Title
81333
    1CHL1    C3    1   2.952   6.356  10.238 -0.5967  0.1369  0.0080
    1CHL1    H3    2   2.842   6.352  10.224 -1.1767  0.1841  3.7394
    1CHL1    O3    3   2.977   6.324  10.374 -0.7725 -0.0561  0.2394
    1CHL1   H3'    4   2.918   6.251  10.392 -0.7540  0.2518  1.6306
    1CHL1    C4    5   3.025   6.261  10.145 -0.6684  0.3246  0.1439
    1CHL1   H4A    6   3.129   6.245  10.181  0.1349  0.8517 -1.7907
    1CHL1   H4B    7   2.976   6.162  10.153  1.7383 -1.0057 -0.5094
    1CHL1    C5    8   3.019   6.312  10.002 -0.8391 -0.3690 -0.4074
    1CHL1    C6    9   2.975   6.221   9.911 -0.3393  0.0548  0.2983
    1CHL1    H6   10   2.945   6.123   9.949 -1.2460  0.4350  0.6023
    1CHL1    C7   11   2.960   6.252   9.767  0.1954  0.4362  0.9613
    1CHL1   H7A   12   2.989   6.165   9.705 -2.0094  0.0037  0.4360
    1CHL1   H7B   13   2.854   6.277   9.745  0.4146  0.2281 -0.4662
    1CHL1    C8   14   3.057   6.373   9.732  0.3832  1.0457 -0.9901
    1CHL1    H8   15   3.166   6.350   9.733  0.5386  1.5179 -2.7295
    1CHL1   C14   16   3.034   6.415   9.590 -0.3907  0.1701  0.1470
    1CHL1   H14   17   2.925   6.434   9.585 -0.4026 -0.1123 -1.3887
    1CHL1   C15   18   3.056   6.308   9.479 -0.2836 -0.0138  1.0256
    1CHL1  H15A   19   3.158   6.267   9.491  0.2720  0.1458 -2.4055
    1CHL1  H15B   20   2.978   6.229   9.477  0.3213 -0.6088  0.5710
    1CHL1   C16   21   3.049   6.389   9.350  0.3397 -0.5279 -0.6738
    1CHL1  H16A   22   3.136   6.373   9.282 -0.5114 -0.2181 -1.8642
    1CHL1  H16B   23   2.957   6.361   9.294  0.7771 -3.0699 -0.2649
    1CHL1   C17   24   3.045   6.537   9.399 -0.4441 -0.2661  0.7658
    1CHL1   H17   25   2.936   6.557   9.410 -0.1991  1.9862 -0.2679
    1CHL1   C13   26   3.103   6.542   9.540  0.0364  0.4974  0.3767
    1CHL1   C18   27   3.258   6.522   9.537  0.3754  0.3357  0.5732
    1CHL1  H18A   28   3.295   6.465   9.450 -0.9501  2.5721 -1.5962
    1CHL1  H18B   29   3.296   6.626   9.529  1.0095  0.0030 -1.1507
    1CHL1  H18C   30   3.302   6.480   9.630  1.6310  2.0267  0.7798
    1CHL1   C12   31   3.057   6.658   9.634 -0.3850  0.1658  0.8809
    1CHL1  H12A   32   3.101   6.758   9.613 -1.5883  0.0339 -3.0465
    1CHL1  H12B   33   2.947   6.667   9.628 -0.2809  0.9506  0.0022
    1CHL1   C11   34   3.103   6.609   9.779  0.2369 -0.5656  0.2013
    1CHL1  H11A   35   3.207   6.572   9.785 -0.1350 -1.4433  4.8427
    1CHL1  H11B   36   3.099   6.696   9.847  2.0844 -0.2506 -0.0368
    1CHL1    C9   37   3.027   6.490   9.828  0.1866  0.8768  0.3259
    1CHL1    H9   38   2.917   6.508   9.829 -0.1733 -1.0108 -0.3078
    1CHL1   C10   39   3.065   6.454   9.976  0.0147  0.1068 -0.2892
    1CHL1   C19   40   3.218   6.472  10.004 -0.4927  1.1917  0.0797
    1CHL1  H19A   41   3.282   6.435   9.921  0.2787  0.1901  1.0839
    1CHL1  H19B   42   3.245   6.579  10.004  3.2378  0.4700 -2.5463
    1CHL1  H19C   43   3.257   6.429  10.099  2.6700  0.7980 -1.2638
    1CHL1    C1   44   2.986   6.546  10.073 -0.2321  0.0298 -0.2464
    1CHL1   H1A   45   3.046   6.640  10.075  2.1621 -1.3796  3.4295
    1CHL1   H1B   46   2.879   6.549  10.044 -0.5204  1.8087  0.8643
    1CHL1    C2   47   2.998   6.501  10.221  0.2590 -0.2191  0.0734
    1CHL1   H2A   48   2.922   6.566  10.271 -0.0238 -0.2439 -0.3212
    1CHL1   H2B   49   3.099   6.518  10.263  0.4936  1.6620 -1.1197
    1CHL1   C20   50   3.093   6.633   9.296  0.2480  0.1543 -0.3229
    1CHL1   H20   51   3.196   6.600   9.269 -0.4232 -3.0092  0.5331
    1CHL1   C21   52   3.103   6.775   9.343  0.0117  0.0303 -0.2290
    1CHL1  H21A   53   3.004   6.808   9.382 -0.0728  0.2005 -0.5783
    1CHL1  H21B   54   3.126   6.842   9.258  1.6001  0.1907  0.2999
    1CHL1  H21C   55   3.177   6.797   9.423  0.4532  0.0915 -0.6518
    1CHL1   C22   56   3.010   6.627   9.166  0.1117 -0.1285 -0.4357
    1CHL1  H22A   57   2.956   6.530   9.156 -2.2774  1.2259 -1.2480
    1CHL1  H22B   58   2.934   6.707   9.162 -0.8973 -1.0247  0.3603
    1CHL1   C23   59   3.091   6.636   9.038 -1.0157 -0.7462  0.2178
    1CHL1  H23A   60   3.175   6.565   9.050 -1.1626 -1.0009 -0.2381
    1CHL1  H23B   61   3.022   6.587   8.966  0.2658 -0.2609 -1.3862
    1CHL1   C24   62   3.137   6.772   8.989  0.0597  0.4960 -0.0710
    1CHL1  H24A   63   3.194   6.822   9.070  2.1523  2.1550 -2.4202
    1CHL1  H24B   64   3.197   6.750   8.898  1.7007  0.9641  0.8494
    1CHL1   C25   65   3.027   6.872   8.949  0.3684 -0.3040  0.3950
    1CHL1   H25   66   2.959   6.903   9.031 -0.6546 -3.0253  0.6826
    1CHL1   C26   67   3.104   6.993   8.892 -0.9787 -0.1570 -0.3583
    1CHL1  H26A   68   3.029   7.066   8.854  0.4668  1.0266 -1.0490
    1CHL1  H26B   69   3.152   7.044   8.978  0.3203 -1.3598 -0.3336
    1CHL1  H26C   70   3.173   6.971   8.807 -1.2479  1.4856 -1.0410
    1CHL1   C27   71   2.941   6.818   8.843  0.6802 -0.4971  0.3434
    1CHL1  H27A   72   2.890   6.721   8.864  0.5316 -0.7520 -1.0668
    1CHL1  H27B   73   2.858   6.887   8.815 -0.9283 -1.8338  1.5690
    1CHL1  H27C   74   2.995   6.802   8.747  0.5015 -0.1341  0.1802
    2CHL1    C3   75   2.426   5.648  10.126 -1.0324  0.3467  0.1249
    2CHL1    H3   76   2.427   5.744  10.071  0.4301 -0.1457 -0.7604
    2CHL1    O3   77   2.412   5.679  10.263  0.0556 -0.4221  0.0288
    2CHL1   H3'   78   2.361   5.603  10.294 -2.6247  1.0096 -0.5906
    2CHL1    C4   79   2.327   5.548  10.073 -0.4423  0.0999 -0.4846
    2CHL1   H4A   80   2.351   5.447  10.114  0.9232  1.6808  2.9470
    2CHL1   H4B   81   2.222   5.564  10.106 -0.6963 -0.1430 -1.1470
    2CHL1    C5   82   2.347   5.547   9.922  0.2898  0.1374 -0.1031
    2CHL1    C6   83   2.249   5.586   9.843 -0.2670 -0.2938 -0.2456
    2CHL1    H6   84   2.155   5.610   9.895  1.0303 -0.3614  2.3268
    2CHL1    C7   85   2.266   5.566   9.693 -0.8757  0.3077 -0.2372
    2CHL1   H7A   86   2.179   5.509   9.654  0.2442 -1.4627 -0.2708
    2CHL1   H7B   87   2.268   5.672   9.663 -0.0432  2.0295  4.8631
    2CHL1    C8   88   2.391   5.481   9.642  0.1400  0.5770  0.4942
    2CHL1    H8   89   2.370   5.372   9.649 -0.6207  0.7220  0.5095
    2CHL1   C14   90   2.412   5.512   9.502 -0.2536  0.2018  0.2071
    2CHL1   H14   91   2.420   5.623   9.498 -1.8861  0.3468  0.0017
    2CHL1   C15   92   2.305   5.484   9.394  0.2303  0.0241  0.4870
    2CHL1  H15A   93   2.285   5.377   9.413  1.2866 -0.7079 -2.1249
    2CHL1  H15B   94   2.221   5.557   9.404  0.0673 -0.1120  0.0999
    2CHL1   C16   95   2.384   5.510   9.266  0.1063  0.7906 -0.3816
    2CHL1  H16A   96   2.348   5.419   9.213 -1.2077  1.1717 -0.1946
    2CHL1  H16B   97   2.358   5.596   9.201 -1.6462  1.2556  0.8647
    2CHL1   C17   98   2.536   5.508   9.301  0.3714  0.7542 -0.0369
    2CHL1   H17   99   2.551   5.618   9.309  0.0476  0.7470  0.7503
    2CHL1   C13  100   2.541   5.459   9.442 -0.5502 -0.1195 -0.3852
    2CHL1   C18  101   2.542   5.305   9.434  0.6784 -0.6537 -0.0111
    2CHL1  H18A  102   2.640   5.260   9.410  1.9324  0.9380  1.8073
    2CHL1  H18B  103   2.504   5.257   9.527 -0.1074 -1.0124 -0.5073
    2CHL1  H18C  104   2.468   5.266   9.360 -0.0290  0.2340  0.2054
    2CHL1   C12  105   2.659   5.504   9.527  0.3860 -0.2299  0.4265
    2CHL1  H12A  106   2.744   5.446   9.486 -0.2130  0.4784 -1.9981
    2CHL1  H12B  107   2.692   5.608   9.506  0.6915 -0.3497  0.3119
    2CHL1   C11  108   2.639   5.467   9.680  0.4017 -0.2597 -0.3842
    2CHL1  H11A  109   2.659   5.359   9.696 -0.2126 -0.3554 -0.2532
    2CHL1  H11B  110   2.732   5.518   9.715  1.0517  0.0136 -2.3814
    2CHL1    C9  111   2.504   5.517   9.731  0.3839 -0.6150  0.1750
    2CHL1    H9  112   2.515   5.627   9.719  0.1897 -0.5855  0.2627
    2CHL1   C10  113   2.485   5.501   9.883  0.1816 -0.2153 -0.3666
    2CHL1   C19  114   2.497   5.354   9.930  0.4633 -0.1001 -0.4530
    2CHL1  H19A  115   2.411   5.286   9.910 -0.3729  0.2275  1.8402
    2CHL1  H19B  116   2.580   5.300   9.879 -1.1305 -2.7895 -0.4207
    2CHL1  H19C  117   2.524   5.348  10.037 -0.5775 -0.8633 -0.2166
    2CHL1    C1  118   2.592   5.585   9.948 -0.0417 -0.4585  0.2635
    2CHL1   H1A  119   2.684   5.526   9.926  0.5773  0.6269 -0.1264
    2CHL1   H1B  120   2.590   5.684   9.898 -1.8555 -1.2810 -1.4472
    2CHL1    C2  121   2.570   5.598  10.104 -0.0403  0.3606 -0.3277
    2CHL1   H2A  122   2.639   5.668  10.157  0.8813 -1.2026  0.6311
    2CHL1   H2B  123   2.586   5.498  10.150 -0.5702 -0.5196 -2.0182
    2CHL1   C20  124   2.630   5.465   9.189 -0.7439  0.0123  1.0414
    2CHL1   H20  125   2.657   5.358   9.195  0.0954 -0.0031 -1.6249
    2CHL1   C21  126   2.761   5.550   9.214  0.2252 -0.2598  0.4165
    2CHL1  H21A  127   2.731   5.655   9.196 -0.6086  0.0886  3.2943
    2CHL1  H21B  128   2.846   5.522   9.147  0.1151  1.2078 -0.3719
    2CHL1  H21C  129   2.798   5.545   9.318 -0.9623 -0.5677  0.8435
    2CHL1   C22  130   2.568   5.495   9.051 -0.0105  1.2481  0.6219
    2CHL1  H22A  131   2.469   5.444   9.041  1.2173 -1.2075  0.3229
    2CHL1  H22B  132   2.560   5.604   9.030 -0.2818  1.0365 -0.4316
    2CHL1   C23  133   2.645   5.438   8.935  0.5601  0.9484  0.0249
    2CHL1  H23A  134   2.600   5.484   8.845  0.3031 -0.6949 -0.7083
    2CHL1  H23B  135   2.755   5.455   8.943  0.3405  1.5943  3.5489
    2CHL1   C24  136   2.628   5.281   8.916  0.2498  0.2920  0.0713
    2CHL1  H24A  137   2.651   5.226   9.010  0.8858  1.0441  0.3666
    2CHL1  H24B  138   2.518   5.268   8.903  0.2804  1.5372 -1.7649
    2CHL1   C25  139   2.709   5.221   8.799 -0.3573 -0.1977  0.0627
    2CHL1   H25  140   2.815   5.255   8.801  0.3549 -1.9481 -2.5589
    2CHL1   C26  141   2.712   5.066   8.808  0.2330  0.1252 -0.6225
    2CHL1  H26A  142   2.783   5.031   8.729  1.4471  1.4262 -0.1629
    2CHL1  H26B  143   2.728   5.025   8.910  0.1551  1.9899  0.1847
    2CHL1  H26C  144   2.612   5.030   8.778 -0.0144  1.5824 -1.6598
    2CHL1   C27  145   2.651   5.261   8.656 -0.2949 -0.0393 -0.3727
    2CHL1  H27A  146   2.682   5.366   8.637 -3.3388  0.8164 -1.1146
    2CHL1  H27B  147   2.692   5.187   8.583  1.0721  1.6799 -1.4206
    2CHL1  H27C  148   2.542   5.248   8.667  0.1474 -2.0403  2.9537
    3CHL1    C3  149   2.869   5.242  10.214 -0.1133  0.9222 -0.8353
    3CHL1    H3  150   2.768   5.285  10.202 -1.4791 -2.0828 -1.2230
    3CHL1    O3  151   2.874   5.216  10.355 -0.1213  0.2701 -0.0908
    3CHL1   H3'  152   2.943   5.151  10.367 -0.6119 -0.1943  0.2491
    3CHL1    C4  153   2.874   5.107  10.135  0.3296  0.3392  0.4642
    3CHL1   H4A  154   2.961   5.056  10.181  0.1067 -0.3241  0.1503
    3CHL1   H4B  155   2.793   5.038  10.165 -0.3654 -0.1336 -2.2510
    3CHL1    C5  156   2.884   5.133   9.985  0.6026 -0.4576 -0.5952
    3CHL1    C6  157   2.797   5.069   9.909  0.6147  0.0001  0.3997
    3CHL1    H6  158   2.718   5.007   9.954 -0.3797  1.1124  0.2132
    3CHL1    C7  159   2.795   5.089   9.759  0.3708  0.4299  0.0822
    3CHL1   H7A  160   2.788   4.986   9.718  3.2655 -0.0672  0.6052
    3CHL1   H7B  161   2.707   5.146   9.722  0.0740 -1.7731 -3.0276
    3CHL1    C8  162   2.924   5.148   9.703  0.7686  0.5162  0.0640
    3CHL1    H8  163   3.004   5.071   9.708  0.1775 -0.0344  1.7757
    3CHL1   C14  164   2.920   5.196   9.558  0.5764 -0.4919 -0.8195
    3CHL1   H14  165   2.846   5.279   9.551  3.0498  2.1536  1.4885
    3CHL1   C15  166   2.873   5.095   9.454  0.2356 -0.0335  0.1113
    3CHL1  H15A  167   2.924   5.000   9.481 -2.0061 -1.5045 -0.4886
    3CHL1  H15B  168   2.766   5.065   9.458  1.1002 -3.6308 -0.2015
    3CHL1   C16  169   2.899   5.166   9.321 -0.0359  0.3956  0.3280
    3CHL1  H16A  170   2.943   5.095   9.249  2.5864 -1.5775  3.5612
    3CHL1  H16B  171   2.809   5.209   9.272  0.6992  1.9448  0.2749
    3CHL1   C17  172   2.988   5.290   9.359  0.3246  0.4959  0.1073
    3CHL1   H17  173   2.923   5.380   9.359  1.4678  1.4751 -3.2645
    3CHL1   C13  174   3.043   5.264   9.501 -0.5432  0.3254 -0.7158
    3CHL1   C18  175   3.163   5.168   9.511 -0.0983 -0.1629  0.1686
    3CHL1  H18A  176   3.260   5.216   9.486 -0.3008 -0.2010 -0.7480
    3CHL1  H18B  177   3.168   5.121   9.611 -4.1367  0.7304  0.9625
    3CHL1  H18C  178   3.150   5.076   9.450 -0.9757 -0.7125  1.1536
    3CHL1   C12  179   3.061   5.396   9.584 -0.2338  0.0786  0.2440
    3CHL1  H12A  180   3.146   5.459   9.552  0.7788 -0.6610  1.4106
    3CHL1  H12B  181   2.969   5.455   9.564 -1.7881 -0.9914  3.5274
    3CHL1   C11  182   3.087   5.358   9.729  0.5644  0.9866  0.0739
    3CHL1  H11A  183   3.173   5.288   9.732 -1.1867 -1.5209 -2.1449
    3CHL1  H11B  184   3.109   5.452   9.783 -0.9064  1.5831 -0.3070
    3CHL1    C9  185   2.972   5.271   9.791  0.1906 -0.0827  0.8698
    3CHL1    H9  186   2.891   5.347   9.784 -0.0682 -0.4507 -0.6207
    3CHL1   C10  187   2.989   5.234   9.940 -0.0784 -0.1202 -0.1844
    3CHL1   C19  188   3.121   5.164   9.951 -0.3418  0.1027  0.3090
    3CHL1  H19A  189   3.118   5.081   9.878 -0.9711  0.6914 -0.3490
    3CHL1  H19B  190   3.210   5.227   9.932 -0.7632  0.6277  0.0165
    3CHL1  H19C  191   3.142   5.125  10.053  3.2485 -0.2340 -0.4418
    3CHL1    C1  192   2.983   5.362  10.026  0.4568  0.0645 -0.4915
    3CHL1   H1A  193   3.068   5.427   9.997 -0.9515  1.9882 -0.4965
    3CHL1   H1B  194   2.892   5.419  10.000 -0.0875 -0.9788 -0.9383
    3CHL1    C2  195   2.985   5.339  10.177  0.5471  0.6925 -0.5698
    3CHL1   H2A  196   2.971   5.438  10.226 -1.7716  1.3170 -2.3534
    3CHL1   H2B  197   3.078   5.287  10.210 -0.0215  0.0289  0.0144
    3CHL1   C20  198   3.089   5.318   9.243 -0.3349 -0.6982 -0.3261
    3CHL1   H20  199   3.172   5.244   9.250 -0.8834 -1.7361 -3.2835
    3CHL1   C21  200   3.148   5.458   9.255 -0.2196  0.6408  0.3339
    3CHL1  H21A  201   3.198   5.493   9.162  0.0871  0.4513  0.4235
    3CHL1  H21B  202   3.219   5.466   9.341 -1.5191 -0.9820  1.6269
    3CHL1  H21C  203   3.076   5.539   9.278  0.9904  1.8765 -0.0564
    3CHL1   C22  204   3.034   5.296   9.098  0.4091  0.0890  0.0629
    3CHL1  H22A  205   2.932   5.251   9.095  0.9325 -1.0671 -2.2793
    3CHL1  H22B  206   3.029   5.395   9.048 -1.2277 -0.6615 -1.3655
    3CHL1   C23  207   3.137   5.211   9.014 -0.1104 -0.4167 -0.0830
    3CHL1  H23A  208   3.243   5.243   9.023 -0.0339  0.0079 -2.0894
    3CHL1  H23B  209   3.132   5.103   9.040  0.3013 -0.0037  1.8914
    3CHL1   C24  210   3.099   5.211   8.866 -0.6648  0.3550 -0.5413
    3CHL1  H24A  211   3.031   5.127   8.843 -0.9394 -0.0463  1.5379
    3CHL1  H24B  212   3.058   5.310   8.837 -0.1310  0.6058 -0.4630
    3CHL1   C25  213   3.219   5.195   8.768 -0.1301 -0.2827 -0.7636
    3CHL1   H25  214   3.290   5.276   8.795  0.7019 -0.9955 -0.7372
    3CHL1   C26  215   3.295   5.065   8.786 -0.6640 -0.1547  0.3744
    3CHL1  H26A  216   3.335   5.059   8.889 -0.8822 -1.7285  0.3939
    3CHL1  H26B  217   3.237   4.972   8.767  1.6267 -2.1140  2.3294
    3CHL1  H26C  218   3.378   5.060   8.711 -0.7794  1.8534  0.0784
    3CHL1   C27  219   3.175   5.216   8.621 -0.3436 -0.1293  0.1869
    3CHL1  H27A  220   3.255   5.197   8.546 -1.8500  1.8659 -2.0885
    3CHL1  H27B  221   3.086   5.161   8.583 -1.0543 -0.3957  2.1259
    3CHL1  H27C  222   3.156   5.324   8.603  0.7532  0.1354  0.5644
    4CHL1    C3  223   0.993   5.996  10.312 -0.5243  0.1446 -0.1519
    4CHL1    H3  224   1.040   5.897  10.293 -0.5632 -0.1177  1.0588
    4CHL1    O3  225   0.997   6.015  10.453 -0.2052  0.0018 -0.7388
    4CHL1   H3'  226   0.974   6.107  10.469 -0.4725  0.0731 -1.5135
    4CHL1    C4  227   1.080   6.114  10.263 -0.7795 -0.4053  0.3111
    4CHL1   H4A  228   1.034   6.204  10.308 -1.7633  0.0563 -1.4975
    4CHL1   H4B  229   1.184   6.107  10.300 -0.8025  0.3804  0.5271
    4CHL1    C5  230   1.076   6.117  10.107  0.1240 -0.0060 -0.0486
    4CHL1    C6  231   1.185   6.116  10.035  0.1252  0.2896 -0.3015
    4CHL1    H6  232   1.280   6.113  10.091 -1.4636  0.9176  2.6144
    4CHL1    C7  233   1.198   6.117   9.887 -0.1050 -0.1504 -0.0207
    4CHL1   H7A  234   1.275   6.194   9.865 -0.2845  0.5273  1.5636
    4CHL1   H7B  235   1.228   6.020   9.843 -1.5852 -0.8502  0.4589
    4CHL1    C8  236   1.067   6.164   9.820 -0.0732  0.0324 -0.5863
    4CHL1    H8  237   1.048   6.273   9.816 -0.6063 -0.0967 -2.5260
    4CHL1   C14  238   1.069   6.129   9.674 -0.1622 -0.5159 -0.3571
    4CHL1   H14  239   1.087   6.019   9.674 -1.6030 -0.8395 -3.0954
    4CHL1   C15  240   1.187   6.192   9.589  0.8312 -0.2485 -0.1193
    4CHL1  H15A  241   1.199   6.298   9.622  1.0498  0.0971 -1.2434
    4CHL1  H15B  242   1.283   6.142   9.614  0.4379 -0.9463 -0.0065
    4CHL1   C16  243   1.134   6.184   9.448  0.1139  0.2183 -0.1073
    4CHL1  H16A  244   1.143   6.283   9.399 -0.1029 -0.4254 -1.4910
    4CHL1  H16B  245   1.202   6.115   9.393  0.0085 -0.5486  0.7040
    4CHL1   C17  246   0.986   6.117   9.452 -0.1951 -1.0843  0.7518
    4CHL1   H17  247   1.003   6.009   9.437  1.0041 -0.4668 -3.8278
    4CHL1   C13  248   0.942   6.153   9.594  0.5449  0.2819  0.3735
    4CHL1   C18  249   0.912   6.303   9.592 -0.0889 -0.5323  0.5634
    4CHL1  H18A  250   1.001   6.365   9.567 -0.3489  0.4710  1.9918
    4CHL1  H18B  251   0.825   6.336   9.530  1.1855  0.4651 -0.7710
    4CHL1  H18C  252   0.889   6.330   9.697  0.2905 -1.3341  0.8596
    4CHL1   C12  253   0.827   6.078   9.653  0.1231  0.2942  0.0082
    4CHL1  H12A  254   0.728   6.107   9.611 -0.2082  1.3153  1.4133
    4CHL1  H12B  255   0.847   5.971   9.631 -1.9796  0.0467 -0.9772
    4CHL1   C11  256   0.814   6.109   9.806 -0.8798  0.0504 -0.6165
    4CHL1  H11A  257   0.777   6.214   9.809 -4.0226 -0.9067  3.2399
    4CHL1  H11B  258   0.730   6.056   9.856 -0.7755 -0.4959 -1.0183
    4CHL1    C9  259   0.949   6.093   9.887 -0.2491 -0.4650  0.2733
    4CHL1    H9  260   0.979   5.987   9.873 -0.1915 -0.2969 -0.9172
    4CHL1   C10  261   0.940   6.109  10.037  0.1082 -0.4728 -0.3992
    4CHL1   C19  262   0.876   6.249  10.074 -0.0962  0.1483  0.8735
    4CHL1  H19A  263   0.872   6.268  10.183 -1.7718 -0.9305  1.0354
    4CHL1  H19B  264   0.932   6.329  10.021 -0.1596  0.6053  1.4800
    4CHL1  H19C  265   0.771   6.264  10.039  1.1727  2.9278 -2.2766
    4CHL1    C1  266   0.839   6.004  10.093 -0.1630  0.7906 -0.3323
    4CHL1   H1A  267   0.736   6.028  10.061 -0.5977 -0.1729  0.2703
    4CHL1   H1B  268   0.877   5.911  10.044 -1.7559 -0.9826  1.5914
    4CHL1    C2  269   0.850   5.992  10.253 -0.1357  0.1227 -0.6842
    4CHL1   H2A  270   0.793   5.903  10.286 -0.7826  0.4175 -0.9856
    4CHL1   H2B  271   0.787   6.075  10.291 -2.5803 -2.7265  2.0002
    4CHL1   C20  272   0.892   6.156   9.332 -0.6098 -0.0826  0.7589
    4CHL1   H20  273   0.842   6.253   9.349 -0.1036  0.6658 -1.6259
    4CHL1   C21  274   0.776   6.052   9.322 -0.6430  0.3953  0.0285
    4CHL1  H21A  275   0.713   6.071   9.233 -2.7178  0.9274  1.5393
    4CHL1  H21B  276   0.696   6.058   9.399 -1.6916  0.3343 -1.0368
    4CHL1  H21C  277   0.803   5.944   9.322 -2.7211 -0.1665  0.7195
    4CHL1   C22  278   0.967   6.154   9.197  0.0159 -0.5243 -0.2685
    4CHL1  H22A  279   1.042   6.236   9.209  1.7663 -2.3768  2.8673
    4CHL1  H22B  280   1.024   6.060   9.182  0.8484 -0.3142  1.4285
    4CHL1   C23  281   0.884   6.185   9.069 -0.5096  0.3002 -0.5597
    4CHL1  H23A  282   0.819   6.097   9.047  1.4132 -1.2355 -0.3114
    4CHL1  H23B  283   0.825   6.279   9.073 -0.9117  0.0409 -0.2996
    4CHL1   C24  284   0.986   6.200   8.955  0.0543 -0.4409  0.1908
    4CHL1  H24A  285   1.065   6.276   8.973  0.5084 -0.4426 -1.6289
    4CHL1  H24B  286   1.048   6.108   8.946  2.9552  1.3373  0.5996
    4CHL1   C25  287   0.923   6.229   8.815 -0.2854  0.5382 -0.3743
    4CHL1   H25  288   1.016   6.232   8.754 -0.5372 -0.1262 -0.7976
    4CHL1   C26  289   0.829   6.113   8.776 -0.1190  0.4485  0.3478
    4CHL1  H26A  290   0.737   6.111   8.839 -0.6433  2.2840 -0.2716
    4CHL1  H26B  291   0.784   6.124   8.675 -4.4323 -2.2219  1.7011
    4CHL1  H26C  292   0.887   6.019   8.778 -0.8691 -0.0187  0.4696
    4CHL1   C27  293   0.862   6.375   8.803  0.4407  0.9504  0.7206
    4CHL1  H27A  294   0.828   6.388   8.698  1.3090 -0.0351  0.3057
    4CHL1  H27B  295   0.766   6.385   8.858 -0.6159  1.5941 -1.1363
    4CHL1  H27C  296   0.935   6.454   8.832  1.2728  0.4080  0.1349
    5CHL1    C3  297   3.436   4.451  10.171 -0.0243 -0.2533  0.0006
    5CHL1    H3  298   3.342   4.507  10.150 -0.8811 -1.8586 -0.7155
    5CHL1    O3  299   3.435   4.413  10.310  0.1151  0.5001 -0.0662
    5CHL1   H3'  300   3.518   4.371  10.332 -0.3067 -0.8211 -0.8770
    5CHL1    C4  301   3.452   4.327  10.077  0.3449 -0.8663 -0.5715
    5CHL1   H4A  302   3.539   4.265  10.109  1.0801 -0.3287 -1.4817
    5CHL1   H4B  303   3.360   4.267  10.098 -0.5657 -0.1465 -2.2819
    5CHL1    C5  304   3.472   4.363   9.935  0.0190 -0.1393  0.5054
    5CHL1    C6  305   3.392   4.312   9.843  0.2866 -0.2134  0.6077
    5CHL1    H6  306   3.319   4.233   9.868  0.5749 -1.3656 -1.8569
    5CHL1    C7  307   3.395   4.331   9.695  0.3497 -0.8351 -0.3338
    5CHL1   H7A  308   3.403   4.233   9.644  0.1059 -0.9014 -0.2467
    5CHL1   H7B  309   3.302   4.378   9.656  0.6748 -1.7046 -2.2839
    5CHL1    C8  310   3.519   4.417   9.657  0.7720  0.0723  0.3186
    5CHL1    H8  311   3.611   4.355   9.647  0.0342 -0.8941 -0.7753
    5CHL1   C14  312   3.485   4.484   9.528 -0.0933  0.1997 -0.4877
    5CHL1   H14  313   3.399   4.551   9.549 -0.5681 -0.7894  0.8658
    5CHL1   C15  314   3.440   4.383   9.420 -0.3592 -0.3214  0.2035
    5CHL1  H15A  315   3.514   4.300   9.421  0.1038  0.0845  0.0937
    5CHL1  H15B  316   3.337   4.343   9.429 -0.9018  0.9008 -0.2751
    5CHL1   C16  317   3.455   4.466   9.289 -0.0898 -0.0767  0.6231
    5CHL1  H16A  318   3.504   4.407   9.209 -1.0989  0.2240 -0.2491
    5CHL1  H16B  319   3.361   4.502   9.241  0.5278  2.6359  1.2787
    5CHL1   C17  320   3.548   4.586   9.328  0.5123  0.4946 -0.3758
    5CHL1   H17  321   3.479   4.669   9.353 -0.2196 -0.3110  0.3595
    5CHL1   C13  322   3.605   4.557   9.464  0.1419 -0.5829 -0.3976
    5CHL1   C18  323   3.729   4.464   9.438 -0.1477  0.2411  0.9686
    5CHL1  H18A  324   3.810   4.509   9.376  0.6615  1.0613  2.5608
    5CHL1  H18B  325   3.775   4.435   9.534  2.2883 -2.6482 -0.8846
    5CHL1  H18C  326   3.701   4.369   9.389 -1.8911  1.2378 -0.0809
    5CHL1   C12  327   3.643   4.671   9.557  0.8008  0.4464 -0.8567
    5CHL1  H12A  328   3.740   4.716   9.526  0.9877  1.2899  0.8539
    5CHL1  H12B  329   3.562   4.746   9.548  1.2814  1.1617  0.5574
    5CHL1   C11  330   3.666   4.625   9.702  0.6143 -0.1410  1.1541
    5CHL1  H11A  331   3.763   4.571   9.703  0.5263 -0.3773 -0.3667
    5CHL1  H11B  332   3.668   4.715   9.767  0.2919  0.2829  0.5938
    5CHL1    C9  333   3.549   4.532   9.753 -0.2291  0.1715  0.2285
    5CHL1    H9  334   3.462   4.600   9.763  1.0615  1.7437  1.2560
    5CHL1   C10  335   3.575   4.480   9.900  0.3922 -0.9218 -0.4776
    5CHL1   C19  336   3.713   4.421   9.919  0.5380  0.0870  0.2053
    5CHL1  H19A  337   3.725   4.333   9.852 -1.6045  0.8720 -1.3579
    5CHL1  H19B  338   3.787   4.503   9.908  0.9095 -0.1444  0.9351
    5CHL1  H19C  339   3.726   4.379  10.021 -4.2257  1.7966  1.8094
    5CHL1    C1  340   3.547   4.600   9.998 -0.6044 -0.0657  0.2124
    5CHL1   H1A  341   3.621   4.683   9.994 -0.5262 -0.1994 -2.1306
    5CHL1   H1B  342   3.450   4.650   9.978 -2.4676 -3.0916  1.0377
    5CHL1    C2  343   3.549   4.548  10.146 -0.3953  0.1670  0.4009
    5CHL1   H2A  344   3.556   4.639  10.210  6.2658  0.8913 -0.6155
    5CHL1   H2B  345   3.640   4.490  10.174  0.6834  0.5726 -2.0193
    5CHL1   C20  346   3.638   4.631   9.214 -0.0128 -0.0843  0.0046
    5CHL1   H20  347   3.707   4.551   9.181 -0.2265 -0.1065 -0.3965
    5CHL1   C21  348   3.720   4.753   9.259  0.3080  0.7892 -0.4361
    5CHL1  H21A  349   3.785   4.791   9.177  2.3440 -1.6765 -0.0889
    5CHL1  H21B  350   3.788   4.744   9.346 -0.6017  2.2782  0.4755
    5CHL1  H21C  351   3.649   4.835   9.283 -3.0914 -0.7947 -3.9562
    5CHL1   C22  352   3.558   4.663   9.087 -0.5801 -0.4314  0.2117
    5CHL1  H22A  353   3.512   4.568   9.053  0.2069 -0.4066 -0.9860
    5CHL1  H22B  354   3.481   4.731   9.129  1.3874  1.2045  1.4097
    5CHL1   C23  355   3.624   4.726   8.956  0.2888  0.4110  0.3199
    5CHL1  H23A  356   3.672   4.826   8.968  3.1229 -0.4638 -2.5355
    5CHL1  H23B  357   3.716   4.667   8.941 -1.1305 -2.1126  0.9580
    5CHL1   C24  358   3.528   4.729   8.834  0.1992 -0.1810 -0.2506
    5CHL1  H24A  359   3.520   4.624   8.800  0.0529  0.2597 -1.6116
    5CHL1  H24B  360   3.428   4.755   8.876  0.8951 -1.4379  2.4577
    5CHL1   C25  361   3.567   4.815   8.719  0.3228  0.0087  0.4089
    5CHL1   H25  362   3.574   4.919   8.757 -0.1756 -0.2503  1.2466
    5CHL1   C26  363   3.712   4.793   8.665  0.0560  0.0818 -0.3489
    5CHL1  H26A  364   3.797   4.819   8.732  1.2114 -1.5665 -1.0993
    5CHL1  H26B  365   3.714   4.683   8.647 -0.7965  0.1256 -0.7418
    5CHL1  H26C  366   3.725   4.844   8.567  1.6642 -0.6869 -0.5832
    5CHL1   C27  367   3.452   4.807   8.608 -0.3297 -0.4673 -0.0105
    5CHL1  H27A  368   3.459   4.709   8.556 -1.0770 -0.9774  0.8387
    5CHL1  H27B  369   3.349   4.816   8.649 -0.3892 -0.2011 -0.2071
    5CHL1  H27C  370   3.471   4.880   8.526 -0.0740 -1.7154 -1.1018
    6CHL1    C3  371   2.593   1.911  10.390  0.1680 -0.3510 -0.6203
    6CHL1    H3  372   2.661   1.998  10.380 -3.3706  2.7203 -0.5166
    6CHL1    O3  373   2.524   1.921  10.512  0.0875  0.8067 -0.0130
    6CHL1   H3'  374   2.585   1.887  10.577 -0.3582  0.4896  0.2396
    6CHL1    C4  375   2.483   1.936  10.276  0.4074 -0.3594 -0.1855
    6CHL1   H4A  376   2.411   1.852  10.287 -0.1988  0.2516  0.6113
    6CHL1   H4B  377   2.435   2.031  10.308 -2.4752 -1.4286 -1.0213
    6CHL1    C5  378   2.543   1.941  10.136  0.9401  0.1107 -0.3497
    6CHL1    C6  379   2.531   2.041  10.047 -0.4607 -0.1929  0.4708
    6CHL1    H6  380   2.476   2.132  10.076  0.0413  0.7556 -1.4166
    6CHL1    C7  381   2.592   2.049   9.914  0.0135  0.0863 -0.1928
    6CHL1   H7A  382   2.520   2.091   9.840 -1.2766 -2.5447 -0.5552
    6CHL1   H7B  383   2.680   2.118   9.916  0.2150 -0.1397 -0.9839
    6CHL1    C8  384   2.646   1.912   9.864  0.9616 -0.9459  0.1750
    6CHL1    H8  385   2.567   1.849   9.818 -0.4150  0.0457  1.0656
    6CHL1   C14  386   2.755   1.926   9.750  0.1049  0.1620 -0.0122
    6CHL1   H14  387   2.845   1.982   9.783  2.1095 -2.9495  0.1646
    6CHL1   C15  388   2.711   2.004   9.623  1.7294 -0.1312 -0.2242
    6CHL1  H15A  389   2.610   1.965   9.599  1.7949 -0.9220  0.7335
    6CHL1  H15B  390   2.682   2.106   9.657 -4.7410 -1.1591 -1.4139
    6CHL1   C16  391   2.822   1.980   9.520 -0.4474  0.4567  0.4485
    6CHL1  H16A  392   2.783   1.960   9.418  0.1718  3.0382 -0.3732
    6CHL1  H16B  393   2.887   2.069   9.502  1.8948 -1.2720 -0.1382
    6CHL1   C17  394   2.903   1.854   9.572  0.9899 -0.5583 -0.2245
    6CHL1   H17  395   2.993   1.896   9.621  1.1403  0.8035 -1.5652
    6CHL1   C13  396   2.813   1.796   9.692 -0.1455 -0.3431 -0.3324
    6CHL1   C18  397   2.701   1.709   9.629 -0.7520 -0.1521  0.0663
    6CHL1  H18A  398   2.757   1.615   9.607  1.2102  0.9929 -0.1438
    6CHL1  H18B  399   2.624   1.706   9.708 -2.1015  1.8722 -1.0771
    6CHL1  H18C  400   2.658   1.736   9.530  0.4138 -1.0351 -0.7141
    6CHL1   C12  401   2.879   1.724   9.806 -0.2608  0.4547  0.3966
    6CHL1  H12A  402   2.920   1.622   9.787 -0.7771  0.1646  0.7994
    6CHL1  H12B  403   2.956   1.791   9.851 -1.6173  1.5476  1.1392
    6CHL1   C11  404   2.785   1.701   9.935  0.1949  0.4940  0.6906
    6CHL1  H11A  405   2.714   1.629   9.888  0.7828  0.2073  0.2268
    6CHL1  H11B  406   2.848   1.669  10.021  2.4912  2.4200 -0.1437
    6CHL1    C9  407   2.718   1.835   9.980 -0.1100 -0.6763  0.2552
    6CHL1    H9  408   2.800   1.903  10.009  0.0589 -0.6835 -0.1912
    6CHL1   C10  409   2.624   1.811  10.106 -0.4375  0.5900  0.0723
    6CHL1   C19  410   2.531   1.696  10.071 -0.1920  0.8335 -0.4976
    6CHL1  H19A  411   2.438   1.705  10.131  0.0420  0.8941 -0.1413
    6CHL1  H19B  412   2.506   1.698   9.963  0.3789  2.0166 -0.6220
    6CHL1  H19C  413   2.569   1.601  10.115  0.0479  1.2417  0.1958
    6CHL1    C1  414   2.720   1.771  10.221 -0.1908 -0.0051  0.0206
    6CHL1   H1A  415   2.754   1.665  10.216 -0.1222  0.0743 -1.6294
    6CHL1   H1B  416   2.806   1.842  10.222  1.1635 -1.5667 -0.5209
    6CHL1    C2  417   2.657   1.772  10.368  0.0835  0.7370 -0.0361
    6CHL1   H2A  418   2.736   1.754  10.445  1.0955  1.8945 -0.7648
    6CHL1   H2B  419   2.581   1.692  10.378  0.3965  0.2373 -1.4252
    6CHL1   C20  420   2.944   1.758   9.458  0.0960  0.8763 -1.0140
    6CHL1   H20  421   2.849   1.715   9.420 -0.0134 -0.6466  0.8545
    6CHL1   C21  422   3.039   1.652   9.523 -0.6544  0.2771  0.6830
    6CHL1  H21A  423   3.068   1.579   9.445  0.8291 -1.5693  2.8253
    6CHL1  H21B  424   2.993   1.589   9.602  0.1492 -1.7908 -0.4201
    6CHL1  H21C  425   3.134   1.703   9.554  0.4162 -1.5487  0.5478
    6CHL1   C22  426   3.017   1.840   9.349  0.0641 -0.3698 -0.7680
    6CHL1  H22A  427   2.975   1.931   9.301  2.7387  1.7242  0.5244
    6CHL1  H22B  428   3.110   1.871   9.401 -0.7432 -1.3679  1.4038
    6CHL1   C23  429   3.054   1.757   9.220 -0.2186 -0.4418 -0.0295
    6CHL1  H23A  430   3.140   1.696   9.255 -0.9832  0.2559  3.3429
    6CHL1  H23B  431   2.971   1.688   9.190 -0.3033 -0.6399  0.6571
    6CHL1   C24  432   3.107   1.844   9.105  0.4450  0.1583  0.1715
    6CHL1  H24A  433   3.170   1.920   9.156  1.2078  0.6715 -1.4952
    6CHL1  H24B  434   3.177   1.789   9.039 -0.4460 -0.4587 -0.2766
    6CHL1   C25  435   3.002   1.909   9.018  0.4880 -0.4028  0.8452
    6CHL1   H25  436   2.926   1.957   9.083 -1.8797 -1.2767 -1.1149
    6CHL1   C26  437   3.055   2.004   8.920  0.3397 -0.2145  0.6639
    6CHL1  H26A  438   3.101   1.939   8.843 -1.5944 -0.2632 -0.5185
    6CHL1  H26B  439   2.970   2.064   8.881  0.8873 -0.4225 -0.8842
    6CHL1  H26C  440   3.133   2.067   8.970  0.6082 -1.0786  1.3642
    6CHL1   C27  441   2.927   1.813   8.921 -0.3487  0.1592  0.5045
    6CHL1  H27A  442   3.004   1.751   8.869  1.1857  3.0764 -0.9388
    6CHL1  H27B  443   2.861   1.744   8.978 -0.5818  1.0205  1.2924
    6CHL1  H27C  444   2.862   1.869   8.851 -0.4841 -0.8114 -0.1776
    7CHL1    C3  445   5.027   5.443  10.420  0.4097  0.2972 -1.0402
    7CHL1    H3  446   5.122   5.385  10.421 -1.3497 -2.8094 -1.9805
    7CHL1    O3  447   4.945   5.430  10.541 -0.7309  0.1798 -0.3921
    7CHL1   H3'  448   4.974   5.508  10.590  0.2214 -0.1743 -0.3830
    7CHL1    C4  449   5.033   5.595  10.393  0.2017  0.4113 -0.5164
    7CHL1   H4A  450   4.928   5.630  10.376  0.3011  0.4485 -1.0772
    7CHL1   H4B  451   5.070   5.635  10.490  0.4489 -1.4005  0.1729
    7CHL1    C5  452   5.110   5.637  10.269 -0.1235  0.4265 -0.0842
    7CHL1    C6  453   5.216   5.717  10.275  0.3477 -0.0812 -0.2380
    7CHL1    H6  454   5.247   5.762  10.371 -1.2722 -1.1921  0.8539
    7CHL1    C7  455   5.289   5.767  10.156  0.7321  0.4711 -0.1969
    7CHL1   H7A  456   5.282   5.878  10.161 -1.4347  0.3416  3.4127
    7CHL1   H7B  457   5.394   5.733  10.151  0.5792 -0.1492  0.5201
    7CHL1    C8  458   5.213   5.726  10.023  0.0714 -0.4382 -0.3914
    7CHL1    H8  459   5.122   5.790  10.014  0.0510 -0.2307  1.1150
    7CHL1   C14  460   5.312   5.742   9.913 -0.7308  0.0393  0.2240
    7CHL1   H14  461   5.395   5.670   9.931 -0.7433 -0.7786 -2.5304
    7CHL1   C15  462   5.381   5.879   9.892 -0.2074 -0.4023 -0.0535
    7CHL1  H15A  463   5.310   5.964   9.890  0.3919  0.2284  2.4200
    7CHL1  H15B  464   5.452   5.910   9.972  0.4114 -1.4824 -0.1530
    7CHL1   C16  465   5.450   5.849   9.753 -0.0843 -0.3172 -0.1340
    7CHL1  H16A  466   5.425   5.935   9.687  2.1269  0.9497  0.5770
    7CHL1  H16B  467   5.561   5.845   9.754 -0.1207 -1.9306  0.6385
    7CHL1   C17  468   5.389   5.711   9.700 -0.2902  0.0628 -0.1865
    7CHL1   H17  469   5.456   5.624   9.720 -1.4708 -0.8435 -0.0318
    7CHL1   C13  470   5.257   5.692   9.780 -0.4505 -0.5068 -0.6680
    7CHL1   C18  471   5.146   5.783   9.726  0.0011  0.7237 -0.3206
    7CHL1  H18A  472   5.098   5.761   9.628  1.6338  1.3152 -1.2879
    7CHL1  H18B  473   5.060   5.787   9.797 -0.3567  1.4871 -0.7730
    7CHL1  H18C  474   5.184   5.887   9.714  2.1549 -0.1913 -1.9854
    7CHL1   C12  475   5.218   5.541   9.785 -0.0975  0.4251 -0.2156
    7CHL1  H12A  476   5.177   5.495   9.693 -1.8515 -0.2921  0.8566
    7CHL1  H12B  477   5.307   5.477   9.803  0.0155  0.1786 -1.5674
    7CHL1   C11  478   5.115   5.519   9.895 -0.7318 -0.0656  0.2490
    7CHL1  H11A  479   5.021   5.561   9.853 -1.0159 -0.2397  0.7070
    7CHL1  H11B  480   5.107   5.409   9.902 -1.2054 -0.1987 -1.8388
    7CHL1    C9  481   5.167   5.583  10.034 -0.1426  0.4321  0.4466
    7CHL1    H9  482   5.257   5.524  10.062 -0.7828 -0.1534  1.3213
    7CHL1   C10  483   5.061   5.569  10.142 -0.0140 -0.3397 -0.2846
    7CHL1   C19  484   4.929   5.648  10.103  0.0502  0.1474  0.0338
    7CHL1  H19A  485   4.889   5.620  10.003 -0.9063 -2.8714  1.1494
    7CHL1  H19B  486   4.858   5.618  10.183  0.0360 -0.4597 -0.1999
    7CHL1  H19C  487   4.946   5.757  10.115  1.0633 -0.0778  0.8367
    7CHL1    C1  488   5.028   5.413  10.164 -0.4496  0.4275  0.2869
    7CHL1   H1A  489   4.976   5.384  10.070  0.6383  0.2053 -0.2665
    7CHL1   H1B  490   5.128   5.364  10.163 -0.1452  0.9387 -2.1161
    7CHL1    C2  491   4.954   5.380  10.297  0.2356 -0.0971  0.1994
    7CHL1   H2A  492   4.935   5.272  10.315 -3.6587  0.5686  1.0504
    7CHL1   H2B  493   4.857   5.432  10.281  1.6741  2.1297 -1.9206
    7CHL1   C20  494   5.376   5.730   9.550  0.2570  0.1179  0.8285
    7CHL1   H20  495   5.309   5.815   9.529 -0.9022 -0.6836  1.1588
    7CHL1   C21  496   5.306   5.599   9.484  0.2477 -0.1406  0.2650
    7CHL1  H21A  497   5.200   5.589   9.516 -0.1885  1.7825 -0.4616
    7CHL1  H21B  498   5.365   5.507   9.502  0.4573 -0.1046 -0.2146
    7CHL1  H21C  499   5.310   5.618   9.375 -2.8811 -0.9550 -0.0746
    7CHL1   C22  500   5.510   5.759   9.484 -0.3856  0.0474  0.0053
    7CHL1  H22A  501   5.577   5.827   9.540 -0.5616 -0.4613  0.8413
    7CHL1  H22B  502   5.565   5.663   9.473 -1.2219 -0.3550 -0.8353
    7CHL1   C23  503   5.504   5.825   9.342  0.0223  0.5719 -0.1534
    7CHL1  H23A  504   5.437   5.762   9.279  1.9700 -1.7794 -0.0322
    7CHL1  H23B  505   5.459   5.926   9.347 -1.5397 -0.0802 -0.2013
    7CHL1   C24  506   5.634   5.825   9.275 -0.4416 -0.7954 -0.1024
    7CHL1  H24A  507   5.691   5.906   9.326 -1.5467 -0.0581  0.0053
    7CHL1  H24B  508   5.691   5.730   9.285  0.7046 -0.5596 -3.2293
    7CHL1   C25  509   5.629   5.841   9.117  0.8729  1.3807 -0.1129
    7CHL1   H25  510   5.566   5.756   9.081 -1.8031  2.8826  0.7633
    7CHL1   C26  511   5.556   5.961   9.070  0.5657 -0.3853 -0.5621
    7CHL1  H26A  512   5.537   5.949   8.961  1.9152 -0.5735 -0.7990
    7CHL1  H26B  513   5.453   5.963   9.110  1.0402  1.9859  0.6948
    7CHL1  H26C  514   5.609   6.056   9.092 -2.7659  1.6497 -0.6485
    7CHL1   C27  515   5.762   5.823   9.052  0.2215 -0.3150  0.3100
    7CHL1  H27A  516   5.835   5.902   9.082  1.3090 -1.3884  0.5593
    7CHL1  H27B  517   5.822   5.734   9.081  0.3574 -0.8945 -1.5778
    7CHL1  H27C  518   5.767   5.832   8.941 -0.4667  1.2261  0.3748
    8CHL1    C3  519   5.119   1.590  10.242  0.3673 -0.5023 -0.4854
    8CHL1    H3  520   5.055   1.500  10.232 -2.4313  1.1845  0.9918
    8CHL1    O3  521   5.130   1.613  10.382 -0.6217  0.5433  0.4677
    8CHL1   H3'  522   5.175   1.698  10.388  1.2318 -0.0680 -2.4794
    8CHL1    C4  523   5.262   1.555  10.194 -0.7913 -0.1007 -0.1936
    8CHL1   H4A  524   5.327   1.642  10.217  1.9920 -1.4566 -2.3178
    8CHL1   H4B  525   5.290   1.465  10.252 -0.3318 -0.3867 -0.8376
    8CHL1    C5  526   5.281   1.536  10.045 -0.2463 -0.1799 -0.2047
    8CHL1    C6  527   5.338   1.427   9.999  0.4500 -0.2072  0.3489
    8CHL1    H6  528   5.377   1.347  10.064 -2.2295 -1.4517  0.5751
    8CHL1    C7  529   5.366   1.401   9.852  0.7349  0.1801 -0.6133
    8CHL1   H7A  530   5.470   1.366   9.833  0.1454 -2.2500  0.2945
    8CHL1   H7B  531   5.308   1.310   9.825 -0.4834  0.1079  1.9578
    8CHL1    C8  532   5.338   1.534   9.768 -0.1129  0.4261 -0.3729
    8CHL1    H8  533   5.425   1.597   9.794  0.0594  0.0182  0.0510
    8CHL1   C14  534   5.344   1.508   9.626  0.3700  0.3063 -0.1186
    8CHL1   H14  535   5.253   1.453   9.593 -0.1627  1.0951  0.0022
    8CHL1   C15  536   5.451   1.412   9.577 -0.4941 -0.0518 -0.3926
    8CHL1  H15A  537   5.551   1.438   9.618  0.0094 -1.7079 -0.4970
    8CHL1  H15B  538   5.432   1.307   9.608 -0.9917  0.3872  0.8376
    8CHL1   C16  539   5.444   1.437   9.427 -0.6483 -0.5375  0.3172
    8CHL1  H16A  540   5.544   1.461   9.384 -0.7019  0.8105  0.8915
    8CHL1  H16B  541   5.397   1.349   9.379 -2.2266 -1.3946  3.2355
    8CHL1   C17  542   5.356   1.562   9.402 -0.0448  1.0140 -0.2432
    8CHL1   H17  543   5.259   1.518   9.373 -0.9486  1.7733  1.4478
    8CHL1   C13  544   5.345   1.630   9.540 -0.0073 -0.7371 -0.2160
    8CHL1   C18  545   5.473   1.716   9.554  0.2977 -0.4796 -0.0199
    8CHL1  H18A  546   5.477   1.801   9.482  1.5852 -3.7757 -4.2226
    8CHL1  H18B  547   5.506   1.728   9.660 -0.1628 -1.2435  0.2164
    8CHL1  H18C  548   5.560   1.654   9.523 -0.2338 -1.0746 -0.3316
    8CHL1   C12  549   5.208   1.703   9.569 -0.5619  0.4086  0.6025
    8CHL1  H12A  550   5.201   1.796   9.509 -0.4542  0.4241  0.6129
    8CHL1  H12B  551   5.126   1.637   9.534 -0.3587 -1.0469  2.7026
    8CHL1   C11  552   5.183   1.734   9.716  0.1806 -1.0268 -0.1110
    8CHL1  H11A  553   5.252   1.815   9.748 -1.6245 -0.0865  1.6046
    8CHL1  H11B  554   5.077   1.766   9.723  0.2250 -1.1419  1.5753
    8CHL1    C9  555   5.213   1.608   9.811  0.0426  0.2435  0.3867
    8CHL1    H9  556   5.135   1.531   9.793  1.1586 -0.4817 -1.6610
    8CHL1   C10  557   5.211   1.643   9.960 -0.6978  0.2057 -0.0727
    8CHL1   C19  558   5.295   1.772   9.986 -0.1477  0.0055 -0.0649
    8CHL1  H19A  559   5.233   1.856   9.949 -0.1795 -0.9698 -2.3861
    8CHL1  H19B  560   5.327   1.796  10.090 -0.9942  1.4249 -0.1088
    8CHL1  H19C  561   5.389   1.779   9.926 -0.1065  0.9712  0.0954
    8CHL1    C1  562   5.070   1.669  10.014 -0.5525 -0.3673 -0.6462
    8CHL1   H1A  563   5.039   1.762   9.962  0.3185 -0.5232 -1.4702
    8CHL1   H1B  564   4.996   1.587  10.006 -0.6222 -0.1059 -3.9698
    8CHL1    C2  565   5.068   1.709  10.169 -0.2507 -0.4949  0.3695
    8CHL1   H2A  566   4.961   1.730  10.188  0.0505  2.6629 -0.7736
    8CHL1   H2B  567   5.125   1.802  10.194 -0.8062 -0.3039  0.9554
    8CHL1   C20  568   5.401   1.650   9.276  0.2244  0.6795  0.0195
    8CHL1   H20  569   5.507   1.677   9.297  0.0519  1.2114  0.2335
    8CHL1   C21  570   5.306   1.770   9.266 -0.4423  0.2735 -0.0376
    8CHL1  H21A  571   5.310   1.845   9.348 -1.6644 -0.5811  0.8294
    8CHL1  H21B  572   5.201   1.735   9.253 -0.1178 -0.8637  0.3446
    8CHL1  H21C  573   5.329   1.823   9.171  0.9123  0.1140  0.1929
    8CHL1   C22  574   5.397   1.567   9.144  0.0515  0.1535  0.6840
    8CHL1  H22A  575   5.428   1.463   9.167  1.8260  0.4879 -0.0106
    8CHL1  H22B  576   5.290   1.569   9.114  0.1394  0.5714  0.3867
    8CHL1   C23  577   5.483   1.614   9.023 -0.3931  0.3555 -0.3065
    8CHL1  H23A  578   5.478   1.722   8.997  0.0376  0.3717 -0.3303
    8CHL1  H23B  579   5.586   1.604   9.062 -0.3720  2.1890  0.1855
    8CHL1   C24  580   5.465   1.524   8.896 -0.1918 -0.1709 -0.3991
    8CHL1  H24A  581   5.428   1.426   8.933 -2.9363  0.7696 -0.4393
    8CHL1  H24B  582   5.378   1.570   8.846 -0.3805 -0.0406  0.0463
    8CHL1   C25  583   5.595   1.521   8.809 -0.2132 -0.0301  0.2482
    8CHL1   H25  584   5.563   1.460   8.722 -2.8021 -2.7244  2.8332
    8CHL1   C26  585   5.644   1.663   8.756  0.1273 -0.6980 -0.0648
    8CHL1  H26A  586   5.670   1.734   8.838  2.4496 -0.6056 -0.7817
    8CHL1  H26B  587   5.743   1.659   8.706  0.0565  0.8856 -0.3856
    8CHL1  H26C  588   5.569   1.712   8.691 -1.0007 -0.1590  1.5760
    8CHL1   C27  589   5.704   1.437   8.877 -0.8441  0.7330 -0.0651
    8CHL1  H27A  590   5.769   1.501   8.942 -0.6261 -1.2731  1.8015
    8CHL1  H27B  591   5.657   1.360   8.941  1.6139  0.6468  1.8172
    8CHL1  H27C  592   5.775   1.386   8.808 -0.7794  0.7909 -0.0424
    9CHL1    C3  593   2.173   1.525  10.312  0.1258  0.5740 -0.0724
    9CHL1    H3  594   2.270   1.576  10.332  1.5119 -1.8448 -0.2834
    9CHL1    O3  595   2.147   1.485  10.445  0.1479  0.0539  0.0798
    9CHL1   H3'  596   2.077   1.420  10.438  0.9354 -0.6985 -0.8860
    9CHL1    C4  597   2.074   1.632  10.260 -0.2056 -0.7401 -0.0065
    9CHL1   H4A  598   1.973   1.590  10.281  0.0426 -1.7779 -0.8296
    9CHL1   H4B  599   2.078   1.712  10.337  2.9220 -0.3388 -0.4653
    9CHL1    C5  600   2.114   1.678  10.122  0.0135 -0.3296  0.0464
    9CHL1    C6  601   2.142   1.807  10.106 -0.6397  0.4525 -0.1188
    9CHL1    H6  602   2.119   1.882  10.183 -0.6852 -0.8871  1.2188
    9CHL1    C7  603   2.176   1.873   9.976  0.9031  0.4021 -0.2943
    9CHL1   H7A  604   2.120   1.968   9.963 -0.3097 -0.5537 -2.9557
    9CHL1   H7B  605   2.284   1.895   9.983  0.6533  1.1376  1.9099
    9CHL1    C8  606   2.151   1.780   9.855 -0.1912 -1.1428 -0.3069
    9CHL1    H8  607   2.042   1.770   9.837 -0.3011 -0.0375 -0.3280
    9CHL1   C14  608   2.222   1.841   9.732 -0.2307  0.0063  0.1644
    9CHL1   H14  609   2.329   1.846   9.762  0.1707 -2.3348 -0.6850
    9CHL1   C15  610   2.201   1.984   9.676 -0.3294  0.4076 -0.9418
    9CHL1  H15A  611   2.090   1.992   9.684 -0.6800 -0.1259 -3.9314
    9CHL1  H15B  612   2.251   2.059   9.740 -0.4638  1.6732 -2.2649
    9CHL1   C16  613   2.264   1.981   9.534 -0.3177  0.3695  0.6263
    9CHL1  H16A  614   2.193   2.018   9.457 -1.0488  0.1994  1.2091
    9CHL1  H16B  615   2.347   2.051   9.508 -2.2398  2.0143 -1.4058
    9CHL1   C17  616   2.301   1.832   9.505 -0.0649 -0.1745 -0.1895
    9CHL1   H17  617   2.409   1.824   9.528 -0.3160  0.1539  1.1574
    9CHL1   C13  618   2.229   1.748   9.614  0.2559  0.7041 -0.3529
    9CHL1   C18  619   2.093   1.715   9.552 -0.2137  0.2356 -0.3692
    9CHL1  H18A  620   2.023   1.671   9.627 -2.1423  1.7838 -1.1742
    9CHL1  H18B  621   2.049   1.808   9.511  0.3689  0.5870 -0.2089
    9CHL1  H18C  622   2.103   1.641   9.470 -1.2872  0.8529 -1.0769
    9CHL1   C12  623   2.307   1.623   9.667 -1.0352 -0.0515 -0.3719
    9CHL1  H12A  624   2.336   1.555   9.584  0.7619 -1.3003  1.1682
    9CHL1  H12B  625   2.410   1.644   9.703 -0.3371 -1.3586 -1.4927
    9CHL1   C11  626   2.226   1.549   9.779  0.3562  0.0514  0.2022
    9CHL1  H11A  627   2.141   1.496   9.732  0.7566  1.4715 -2.2874
    9CHL1  H11B  628   2.288   1.463   9.815  0.2644 -0.1581 -0.1352
    9CHL1    C9  629   2.201   1.637   9.895 -0.0353 -0.2711  0.4263
    9CHL1    H9  630   2.301   1.664   9.934 -0.5554  0.2077  1.4657
    9CHL1   C10  631   2.128   1.569  10.013 -0.3065 -0.2739 -0.4334
    9CHL1   C19  632   1.992   1.515   9.973  0.6536  0.0258  0.1665
    9CHL1  H19A  633   1.939   1.586   9.906  0.1552 -2.1005 -1.7971
    9CHL1  H19B  634   1.993   1.418   9.918 -0.5827 -1.3923  2.4604
    9CHL1  H19C  635   1.920   1.503  10.058 -1.7216  2.1924 -1.4052
    9CHL1    C1  636   2.211   1.450  10.073 -0.4445  0.0929 -0.0265
    9CHL1   H1A  637   2.210   1.355  10.016  2.2159 -1.0408  1.5880
    9CHL1   H1B  638   2.317   1.484  10.076 -0.1462 -0.7745 -0.4756
    9CHL1    C2  639   2.174   1.410  10.217  0.6055  0.4128  0.2488
    9CHL1   H2A  640   2.238   1.326  10.252  0.2589  1.6091  4.3224
    9CHL1   H2B  641   2.069   1.372  10.213  0.4815  0.7902 -3.1624
    9CHL1   C20  642   2.295   1.796   9.357 -0.3412  0.1016 -0.0517
    9CHL1   H20  643   2.190   1.804   9.323  0.3597  2.3786 -1.9628
    9CHL1   C21  644   2.346   1.651   9.334 -0.2334 -0.1087 -0.0211
    9CHL1  H21A  645   2.447   1.642   9.379 -0.6765  0.5090  1.1638
    9CHL1  H21B  646   2.354   1.633   9.225  0.0483  1.4291 -0.2853
    9CHL1  H21C  647   2.281   1.578   9.386  1.9744 -1.7295  0.5969
    9CHL1   C22  648   2.372   1.888   9.256 -0.4768 -0.2741 -0.1528
    9CHL1  H22A  649   2.347   1.847   9.155 -2.0866 -1.2779  0.6124
    9CHL1  H22B  650   2.330   1.991   9.261 -0.5615 -0.3211  0.1141
    9CHL1   C23  651   2.524   1.885   9.273  0.3588  0.0081 -0.3738
    9CHL1  H23A  652   2.565   1.926   9.367  1.3000  3.2876 -2.0483
    9CHL1  H23B  653   2.558   1.779   9.269 -0.4112 -0.2521 -0.2346
    9CHL1   C24  654   2.587   1.961   9.160  0.4032 -0.0431  0.0866
    9CHL1  H24A  655   2.694   1.930   9.147 -0.5663 -2.5547 -3.6936
    9CHL1  H24B  656   2.546   1.920   9.065 -2.3925  0.2772  1.0810
    9CHL1   C25  657   2.569   2.114   9.154 -0.1364 -0.5559  0.1812
    9CHL1   H25  658   2.465   2.143   9.184 -0.6990 -0.2716 -1.8830
    9CHL1   C26  659   2.677   2.180   9.239 -0.3868  0.7452 -0.2925
    9CHL1  H26A  660   2.690   2.289   9.222  1.2726  0.3355 -2.0506
    9CHL1  H26B  661   2.654   2.161   9.346 -1.0828  3.7624  0.1802
    9CHL1  H26C  662   2.778   2.136   9.224 -0.1777  0.8564  0.7342
    9CHL1   C27  663   2.570   2.175   9.015 -0.1577 -0.4389 -0.3063
    9CHL1  H27A  664   2.531   2.119   8.928 -1.6024  0.4234 -0.2401
    9CHL1  H27B  665   2.518   2.273   9.021  1.7214  0.5545  0.8010
    9CHL1  H27C  666   2.677   2.198   8.992 -0.8223  2.7511 -0.7656
   10CHL1    C3  667   6.761   6.389  10.162  0.9423  0.3682  0.0528
   10CHL1    H3  668   6.836   6.470  10.152  1.7748  0.0200  2.6858
   10CHL1    O3  669   6.702   6.394  10.294  0.1351 -0.7917  0.3490
   10CHL1   H3'  670   6.777   6.375  10.350  0.0047 -0.7782  0.5309
   10CHL1    C4  671   6.637   6.394  10.062  0.5163  0.0853 -1.0064
   10CHL1   H4A  672   6.558   6.319  10.083  2.4126 -0.9223  3.6520
   10CHL1   H4B  673   6.585   6.489  10.085 -0.5827 -0.5974 -0.6012
   10CHL1    C5  674   6.682   6.390   9.924  0.2228  0.1668  0.1202
   10CHL1    C6  675   6.667   6.491   9.838 -0.4324  0.1614 -0.4009
   10CHL1    H6  676   6.619   6.578   9.885  1.0627  0.4139  0.7796
   10CHL1    C7  677   6.690   6.495   9.693  1.0509  1.0087  0.2653
   10CHL1   H7A  678   6.598   6.541   9.650 -0.2898 -2.1575 -0.5549
   10CHL1   H7B  679   6.785   6.541   9.662  0.1787  0.8474 -2.9703
   10CHL1    C8  680   6.696   6.345   9.646  0.6783 -0.5911 -0.5725
   10CHL1    H8  681   6.593   6.303   9.647  0.7184 -0.8854  2.7982
   10CHL1   C14  682   6.749   6.347   9.506 -0.1139  0.4377 -0.6458
   10CHL1   H14  683   6.854   6.383   9.516  1.4911 -3.8911  0.0640
   10CHL1   C15  684   6.676   6.437   9.406  0.6934 -0.0992  0.2341
   10CHL1  H15A  685   6.566   6.426   9.420  0.6501  1.6541  1.6115
   10CHL1  H15B  686   6.704   6.544   9.412  2.1766 -0.4390 -0.1865
   10CHL1   C16  687   6.720   6.371   9.267 -0.0166 -1.0544 -0.4628
   10CHL1  H16A  688   6.624   6.353   9.215 -1.9273  0.8927  2.1209
   10CHL1  H16B  689   6.779   6.454   9.224 -0.7764  0.9072  2.0782
   10CHL1   C17  690   6.798   6.245   9.303 -0.3066  0.2691  0.0567
   10CHL1   H17  691   6.901   6.288   9.307 -1.0350  2.1625 -0.5099
   10CHL1   C13  692   6.758   6.203   9.446  0.2092  0.9241  0.2654
   10CHL1   C18  693   6.618   6.139   9.429  0.5665 -0.0699 -0.1097
   10CHL1  H18A  694   6.538   6.197   9.378 -1.6200 -3.5825 -1.0112
   10CHL1  H18B  695   6.612   6.036   9.389 -1.3053 -1.3206  3.0048
   10CHL1  H18C  696   6.593   6.135   9.537 -3.4487  1.3822 -0.7899
   10CHL1   C12  697   6.860   6.114   9.531  0.2158 -0.0357 -1.1313
   10CHL1  H12A  698   6.885   6.014   9.490  0.4917 -0.6433  0.4583
   10CHL1  H12B  699   6.953   6.175   9.526 -0.4182  1.2362  1.2018
   10CHL1   C11  700   6.816   6.117   9.676  0.6424 -0.7155 -0.1767
   10CHL1  H11A  701   6.730   6.046   9.684 -0.7998  0.8776 -0.8996
   10CHL1  H11B  702   6.894   6.066   9.735  1.3074 -1.8437 -1.9407
   10CHL1    C9  703   6.789   6.262   9.734 -0.8558  0.0396  1.4185
   10CHL1    H9  704   6.886   6.316   9.726 -1.5232  1.0045 -1.5014
   10CHL1   C10  705   6.743   6.255   9.883 -0.1824  0.3689 -0.2461
   10CHL1   C19  706   6.652   6.140   9.899  0.5223  0.1138  0.2426
   10CHL1  H19A  707   6.568   6.134   9.826  0.0770 -0.5608  0.7880
   10CHL1  H19B  708   6.704   6.042   9.896 -2.6341 -1.8299  2.7143
   10CHL1  H19C  709   6.608   6.144  10.001 -0.7479 -0.8507 -0.2301
   10CHL1    C1  710   6.866   6.244   9.980 -0.2179 -0.6163 -0.5331
   10CHL1   H1A  711   6.916   6.146   9.964 -0.0139 -1.0779  2.4030
   10CHL1   H1B  712   6.944   6.322   9.963 -0.8847 -0.1199 -1.3882
   10CHL1    C2  713   6.827   6.251  10.130 -0.1813  0.2311 -0.4048
   10CHL1   H2A  714   6.913   6.266  10.198  0.3944  1.1563 -1.2953
   10CHL1   H2B  715   6.766   6.161  10.149  0.6545 -0.7006 -1.8862
   10CHL1   C20  716   6.792   6.136   9.185 -0.2184 -0.8813 -0.0729
   10CHL1   H20  717   6.686   6.106   9.171 -0.4647  0.3389 -1.0794
   10CHL1   C21  718   6.877   6.019   9.221  0.2185  0.8292 -0.0158
   10CHL1  H21A  719   6.971   6.061   9.261  0.4668 -2.0064  2.7443
   10CHL1  H21B  720   6.902   5.942   9.145  0.6746 -1.0056  1.8969
   10CHL1  H21C  721   6.833   5.963   9.306  1.0493  0.8310  0.4158
   10CHL1   C22  722   6.838   6.195   9.049 -0.1730  0.3359  0.8005
   10CHL1  H22A  723   6.790   6.292   9.025 -0.5248 -0.4951 -2.1837
   10CHL1  H22B  724   6.941   6.237   9.051 -0.0679  0.1430 -0.1434
   10CHL1   C23  725   6.819   6.094   8.932 -0.1429 -0.2981  0.6291
   10CHL1  H23A  726   6.887   6.013   8.967 -2.0598 -1.6923  1.3275
   10CHL1  H23B  727   6.719   6.048   8.918  0.1849 -0.8675  0.0796
   10CHL1   C24  728   6.865   6.139   8.791 -0.2103 -1.1493  0.9772
   10CHL1  H24A  729   6.846   6.248   8.779 -0.9115 -0.9003  3.6227
   10CHL1  H24B  730   6.976   6.147   8.796 -0.1206  0.8107 -2.1439
   10CHL1   C25  731   6.834   6.046   8.666  0.6053  0.3576  0.1829
   10CHL1   H25  732   6.724   6.045   8.657  0.3668 -3.3005  1.8491
   10CHL1   C26  733   6.908   6.093   8.536 -0.3415  0.3660 -0.0749
   10CHL1  H26A  734   7.010   6.048   8.536 -1.0834 -1.4240  0.1067
   10CHL1  H26B  735   6.858   6.051   8.446 -1.6395  1.6772  0.0017
   10CHL1  H26C  736   6.909   6.202   8.516 -2.2332  0.2954 -0.8431
   10CHL1   C27  737   6.862   5.894   8.689  0.2473 -1.1473 -0.0412
   10CHL1  H27A  738   6.802   5.870   8.780  0.4347  0.5431  0.5573
   10CHL1  H27B  739   6.821   5.827   8.611 -1.3367 -0.4354  0.1399
   10CHL1  H27C  740   6.969   5.876   8.711  1.0149  3.0908  0.5088
   11CHL1    C3  741   2.677   3.700  10.201 -0.1240 -0.0994  0.6459
   11CHL1    H3  742   2.587   3.757  10.169  0.4026 -0.2940 -1.2942
   11CHL1    O3  743   2.679   3.701  10.342  0.0592  0.3541 -0.2336
   11CHL1   H3'  744   2.766   3.661  10.349  0.5718  1.4523 -0.1196
   11CHL1    C4  745   2.663   3.558  10.155  0.2063  0.2182 -0.2340
   11CHL1   H4A  746   2.748   3.499  10.197  1.3998  2.5582  0.8089
   11CHL1   H4B  747   2.574   3.505  10.195 -0.4310  2.0431  0.8919
   11CHL1    C5  748   2.667   3.555  10.005 -0.2280  0.9387  0.8814
   11CHL1    C6  749   2.558   3.505   9.938  0.1709  0.0423  0.4040
   11CHL1    H6  750   2.473   3.459   9.990 -2.6022  2.2250 -1.8742
   11CHL1    C7  751   2.561   3.484   9.787  0.4279  0.6704 -0.0600
   11CHL1   H7A  752   2.517   3.384   9.766 -1.7363  0.9438  2.6384
   11CHL1   H7B  753   2.481   3.550   9.748  0.3798  0.1699 -0.8392
   11CHL1    C8  754   2.692   3.509   9.718  0.7315  0.2947  0.6227
   11CHL1    H8  755   2.757   3.419   9.732  0.4051 -0.3176 -1.5146
   11CHL1   C14  756   2.670   3.513   9.568  0.2939 -0.3471  0.1559
   11CHL1   H14  757   2.601   3.598   9.546  0.0436 -1.0035 -1.8237
   11CHL1   C15  758   2.599   3.390   9.507 -0.1258 -1.0518 -0.8877
   11CHL1  H15A  759   2.656   3.301   9.541  1.9659 -0.3954 -2.4610
   11CHL1  H15B  760   2.496   3.369   9.542  0.7754  0.0409  2.8718
   11CHL1   C16  761   2.610   3.430   9.360  0.0461  0.6927 -0.4137
   11CHL1  H16A  762   2.620   3.333   9.307  1.7846 -0.6246  2.1358
   11CHL1  H16B  763   2.519   3.477   9.318  0.6688  0.7658 -1.7452
   11CHL1   C17  764   2.733   3.528   9.346 -0.1478 -0.3849  0.5273
   11CHL1   H17  765   2.683   3.627   9.335  1.8056  1.1638  3.8534
   11CHL1   C13  766   2.801   3.539   9.486  0.2252  0.3787  0.0501
   11CHL1   C18  767   2.893   3.421   9.499 -0.2397 -0.5664  0.3280
   11CHL1  H18A  768   2.924   3.419   9.606 -3.8290  2.9609  1.7192
   11CHL1  H18B  769   2.847   3.323   9.474 -0.9457  0.3100 -2.0128
   11CHL1  H18C  770   2.982   3.432   9.434 -0.0187  0.5800  0.7869
   11CHL1   C12  771   2.857   3.676   9.541  0.3084  0.2440  0.5161
   11CHL1  H12A  772   2.945   3.709   9.481  0.1931  2.6377  1.5477
   11CHL1  H12B  773   2.769   3.743   9.527 -0.5083 -1.3316 -3.3625
   11CHL1   C11  774   2.888   3.664   9.688 -0.0384  0.1859 -0.6368
   11CHL1  H11A  775   2.960   3.580   9.701 -0.9744 -0.4672  0.5028
   11CHL1  H11B  776   2.935   3.761   9.714 -0.4996  1.0715 -2.9004
   11CHL1    C9  777   2.761   3.632   9.774  0.1839  0.0575 -0.9894
   11CHL1    H9  778   2.699   3.723   9.762 -0.2521  0.3927  2.7581
   11CHL1   C10  779   2.782   3.624   9.930  0.4860  0.2063  0.7815
   11CHL1   C19  780   2.908   3.536   9.944  0.0284 -0.1836  0.4096
   11CHL1  H19A  781   2.991   3.604   9.917  0.1238 -0.8492 -1.0793
   11CHL1  H19B  782   2.923   3.488  10.043  0.1089 -0.4045  0.2910
   11CHL1  H19C  783   2.911   3.457   9.866  1.3027  0.6017 -0.3650
   11CHL1    C1  784   2.794   3.759   9.992  0.0957 -0.0011  0.1165
   11CHL1   H1A  785   2.886   3.800   9.944  0.4988 -0.7692  0.2307
   11CHL1   H1B  786   2.709   3.823   9.959 -1.2675 -0.7703  1.9527
   11CHL1    C2  787   2.797   3.775  10.147 -0.1248 -0.0313  0.0353
   11CHL1   H2A  788   2.789   3.880  10.183 -2.7071 -0.5854  1.3204
   11CHL1   H2B  789   2.884   3.721  10.191  1.0033  0.8832 -1.0001
   11CHL1   C20  790   2.817   3.506   9.220  0.2712 -0.6909  1.2763
   11CHL1   H20  791   2.881   3.416   9.232 -1.0729 -2.0988 -1.3547
   11CHL1   C21  792   2.922   3.622   9.205  0.3704  0.3515  0.1946
   11CHL1  H21A  793   2.982   3.610   9.112  1.5250  0.9564  0.8466
   11CHL1  H21B  794   2.985   3.625   9.296 -0.9669 -0.9142  1.2267
   11CHL1  H21C  795   2.871   3.720   9.190  0.9922  0.9360  1.7160
   11CHL1   C22  796   2.730   3.473   9.089  0.0114 -0.8764 -0.3663
   11CHL1  H22A  797   2.809   3.456   9.013 -0.4435 -0.3105 -0.9687
   11CHL1  H22B  798   2.669   3.380   9.100 -1.0708 -0.0900  0.4053
   11CHL1   C23  799   2.639   3.589   9.049  0.2838 -0.2822 -0.2055
   11CHL1  H23A  800   2.553   3.595   9.120  1.0348  1.5182  0.5963
   11CHL1  H23B  801   2.689   3.687   9.055 -0.2830 -0.0821  2.4297
   11CHL1   C24  802   2.592   3.563   8.900  0.2149  0.4221 -0.2440
   11CHL1  H24A  803   2.676   3.574   8.828  1.5395 -0.9658  1.0350
   11CHL1  H24B  804   2.549   3.461   8.891  2.2197 -0.4911 -0.0515
   11CHL1   C25  805   2.485   3.668   8.841 -0.5691  0.2094 -0.2606
   11CHL1   H25  806   2.422   3.693   8.929  1.1377  0.4473  0.9431
   11CHL1   C26  807   2.559   3.796   8.808  0.2170  0.7483  0.1843
   11CHL1  H26A  808   2.494   3.879   8.772  0.5438  0.3839 -1.3204
   11CHL1  H26B  809   2.630   3.826   8.888  1.9483 -0.3611 -0.8850
   11CHL1  H26C  810   2.624   3.780   8.720 -0.4605 -0.5310 -0.1154
   11CHL1   C27  811   2.381   3.613   8.738  0.5412  0.1203  0.6976
   11CHL1  H27A  812   2.320   3.694   8.693 -0.5515 -0.7235  0.6391
   11CHL1  H27B  813   2.434   3.564   8.653  2.3861  0.9461  1.3232
   11CHL1  H27C  814   2.326   3.531   8.788 -0.7888 -0.2249 -1.2351
   12CHL1    C3  815   4.513   1.627  10.159  0.4983 -0.9158  0.4172
   12CHL1    H3  816   4.439   1.698  10.114 -0.1030 -0.8916  1.4150
   12CHL1    O3  817   4.496   1.612  10.302  0.1101  0.1022  0.9881
   12CHL1   H3'  818   4.472   1.700  10.334  1.3143  0.4527  0.9770
   12CHL1    C4  819   4.503   1.495  10.076 -0.4704 -0.3897  0.0870
   12CHL1   H4A  820   4.576   1.422  10.116 -1.3080 -1.6198 -0.5749
   12CHL1   H4B  821   4.410   1.443  10.108  0.5946 -1.6159  1.3351
   12CHL1    C5  822   4.513   1.519   9.930  0.5722 -0.0048 -0.4025
   12CHL1    C6  823   4.406   1.495   9.848  0.3713  0.3675  0.3832
   12CHL1    H6  824   4.318   1.443   9.889  0.9180 -1.8102 -1.0562
   12CHL1    C7  825   4.414   1.523   9.701  0.1956 -0.1409 -0.0010
   12CHL1   H7A  826   4.377   1.436   9.643  0.8681  0.0967 -0.8135
   12CHL1   H7B  827   4.354   1.612   9.670 -0.3703 -0.4112  0.3167
   12CHL1    C8  828   4.562   1.543   9.656 -0.5983 -0.4777  0.4692
   12CHL1    H8  829   4.616   1.446   9.652  0.5344  0.1261  0.5463
   12CHL1   C14  830   4.565   1.593   9.512  0.6433 -0.3811 -0.7262
   12CHL1   H14  831   4.519   1.694   9.523  0.0261 -0.8621  1.5686
   12CHL1   C15  832   4.478   1.523   9.412 -0.0697  0.0387  0.2572
   12CHL1  H15A  833   4.478   1.411   9.408 -2.6230 -0.0013 -0.7389
   12CHL1  H15B  834   4.371   1.546   9.434 -0.2687  0.5603 -1.1203
   12CHL1   C16  835   4.529   1.567   9.275  0.4313 -0.4184 -0.2146
   12CHL1  H16A  836   4.548   1.483   9.205  0.9368 -0.3301 -0.1930
   12CHL1  H16B  837   4.458   1.629   9.217 -0.4029 -2.9239 -2.0362
   12CHL1   C17  838   4.667   1.641   9.298 -0.3404  0.2337  0.1150
   12CHL1   H17  839   4.633   1.747   9.291 -1.6322 -0.2340 -0.9968
   12CHL1   C13  840   4.705   1.605   9.445 -0.8137  0.4076  0.4604
   12CHL1   C18  841   4.763   1.468   9.433  0.2157  0.1229  0.4905
   12CHL1  H18A  842   4.795   1.410   9.522  1.5663  0.0614 -0.0090
   12CHL1  H18B  843   4.695   1.401   9.374  0.5613  1.3747 -1.4234
   12CHL1  H18C  844   4.858   1.472   9.375 -1.0830  1.2086 -1.7210
   12CHL1   C12  845   4.793   1.697   9.529  0.2127 -0.3408 -0.4489
   12CHL1  H12A  846   4.900   1.702   9.501  0.0830  1.8058 -0.6954
   12CHL1  H12B  847   4.747   1.798   9.521 -1.9898 -0.6589  4.3485
   12CHL1   C11  848   4.792   1.653   9.681 -0.1605  0.2864  0.2070
   12CHL1  H11A  849   4.851   1.559   9.686  0.7073  0.6544 -2.0691
   12CHL1  H11B  850   4.842   1.726   9.749 -0.6959  0.0647  0.8520
   12CHL1    C9  851   4.647   1.633   9.743 -0.3799  0.4925 -0.1141
   12CHL1    H9  852   4.604   1.735   9.730 -0.9683  0.2462 -0.1335
   12CHL1   C10  853   4.648   1.592   9.891  0.4897  0.1122 -0.0266
   12CHL1   C19  854   4.752   1.477   9.915 -0.9602 -0.5423 -0.5995
   12CHL1  H19A  855   4.751   1.447  10.022  1.3183  0.0084 -0.3726
   12CHL1  H19B  856   4.719   1.393   9.849 -4.5916  0.6293 -0.5069
   12CHL1  H19C  857   4.857   1.499   9.886 -1.0588  1.2234  0.2395
   12CHL1    C1  858   4.664   1.718   9.979  0.7221  0.1906 -0.0144
   12CHL1   H1A  859   4.765   1.753   9.950  0.0805  2.8246  0.6870
   12CHL1   H1B  860   4.585   1.792   9.953  1.2118  0.6636 -0.1783
   12CHL1    C2  861   4.643   1.691  10.128 -0.6661 -0.3148  0.0125
   12CHL1   H2A  862   4.641   1.789  10.179  0.0505  0.1880 -0.8754
   12CHL1   H2B  863   4.718   1.625  10.176  0.0078 -0.0867 -0.7040
   12CHL1   C20  864   4.770   1.630   9.180  0.1281 -0.3211  0.6494
   12CHL1   H20  865   4.803   1.524   9.182 -0.1394 -0.4401 -0.4128
   12CHL1   C21  866   4.903   1.713   9.200  0.4591 -0.0555 -0.3859
   12CHL1  H21A  867   4.892   1.809   9.254 -2.4690 -1.4447  1.7705
   12CHL1  H21B  868   4.971   1.723   9.112  1.1003  0.0788  0.1188
   12CHL1  H21C  869   4.956   1.648   9.272 -1.8724 -2.0059 -0.2738
   12CHL1   C22  870   4.710   1.659   9.038  0.3408 -0.3451  0.2686
   12CHL1  H22A  871   4.634   1.579   9.024  0.9884 -1.6064  3.3609
   12CHL1  H22B  872   4.652   1.754   9.045  0.4858 -0.3907  4.9165
   12CHL1   C23  873   4.807   1.654   8.915  0.0268  0.7623 -0.1367
   12CHL1  H23A  874   4.890   1.725   8.929  0.5601  0.0093  0.6088
   12CHL1  H23B  875   4.854   1.555   8.898 -1.6142 -1.0477  4.3599
   12CHL1   C24  876   4.748   1.696   8.778  0.2491  0.2224 -0.7546
   12CHL1  H24A  877   4.667   1.625   8.751 -1.4800  1.0721  1.7621
   12CHL1  H24B  878   4.698   1.795   8.790  0.7615  0.2147  2.3158
   12CHL1   C25  879   4.850   1.697   8.660  0.0848 -0.0763  0.1187
   12CHL1   H25  880   4.785   1.718   8.572 -1.0539 -2.9017  0.1765
   12CHL1   C26  881   4.958   1.806   8.687 -0.2639 -0.2478 -0.1561
   12CHL1  H26A  882   5.010   1.833   8.593 -0.5568 -1.9818 -0.8622
   12CHL1  H26B  883   4.906   1.901   8.712 -0.3074 -0.2370 -0.2881
   12CHL1  H26C  884   5.029   1.776   8.766 -0.7263 -0.3433  0.2290
   12CHL1   C27  885   4.920   1.562   8.611  0.3831 -0.0359 -0.1306
   12CHL1  H27A  886   4.839   1.498   8.569  1.4519 -1.9723  0.5941
   12CHL1  H27B  887   4.995   1.577   8.531  0.9329 -0.8243  0.2186
   12CHL1  H27C  888   4.973   1.518   8.699  0.6752  1.1776  0.3173
   13CHL1    C3  889   5.518   0.754  10.089  0.0334  0.6294 -0.5877
   13CHL1    H3  890   5.609   0.768  10.026 -1.1816  0.6144 -2.4285
   13CHL1    O3  891   5.560   0.759  10.228  0.0126 -0.3121 -0.6664
   13CHL1   H3'  892   5.502   0.694  10.268  0.3782 -0.8897 -1.0676
   13CHL1    C4  893   5.411   0.863  10.052  0.5681 -0.4728  0.2511
   13CHL1   H4A  894   5.322   0.853  10.119  0.8858 -0.8373  0.6219
   13CHL1   H4B  895   5.439   0.967  10.076 -1.3137  1.0000 -3.1376
   13CHL1    C5  896   5.377   0.846   9.909 -0.3479  0.6426  0.1756
   13CHL1    C6  897   5.398   0.947   9.825 -1.0529 -0.0706  0.5363
   13CHL1    H6  898   5.445   1.041   9.858 -1.4883  0.7776 -1.1213
   13CHL1    C7  899   5.371   0.945   9.681  0.0752 -0.0571  0.8379
   13CHL1   H7A  900   5.316   1.038   9.655 -0.8184 -0.6952  0.3785
   13CHL1   H7B  901   5.467   0.936   9.626 -0.2870 -0.8730  0.3085
   13CHL1    C8  902   5.282   0.823   9.639  0.0875 -0.2160  0.1657
   13CHL1    H8  903   5.177   0.855   9.656 -0.3935 -1.8858  0.4935
   13CHL1   C14  904   5.284   0.803   9.486  0.3923 -0.4727 -0.6416
   13CHL1   H14  905   5.392   0.779   9.474  0.2900 -1.3232  0.0013
   13CHL1   C15  906   5.254   0.923   9.389 -0.0481 -0.1008 -0.7745
   13CHL1  H15A  907   5.159   0.966   9.428 -0.2658 -2.3293  1.4688
   13CHL1  H15B  908   5.334   0.999   9.390 -0.2037  0.0839 -1.5149
   13CHL1   C16  909   5.240   0.868   9.251  0.3632 -0.2002  0.1048
   13CHL1  H16A  910   5.147   0.910   9.207  1.0654  0.5247 -0.7563
   13CHL1  H16B  911   5.319   0.898   9.178  1.7928 -1.3598  1.1299
   13CHL1   C17  912   5.220   0.714   9.273  0.4516  0.5493  0.4039
   13CHL1   H17  913   5.318   0.669   9.247  0.5747  1.3050 -0.4910
   13CHL1   C13  914   5.205   0.688   9.425  0.0425 -0.0777 -0.0410
   13CHL1   C18  915   5.052   0.704   9.450  0.5788 -0.0435 -0.0009
   13CHL1  H18A  916   4.995   0.616   9.412 -0.1667  1.6101 -3.0327
   13CHL1  H18B  917   5.037   0.712   9.560  1.9015 -0.5095  0.2294
   13CHL1  H18C  918   5.001   0.794   9.409 -3.4316 -2.0996 -0.0576
   13CHL1   C12  919   5.268   0.565   9.487  0.3447  0.0698 -0.0272
   13CHL1  H12A  920   5.217   0.473   9.449 -2.8495  0.4430  2.8392
   13CHL1  H12B  921   5.375   0.564   9.457 -0.5365  0.9227 -3.7295
   13CHL1   C11  922   5.255   0.570   9.643 -0.1252  0.7452 -0.1958
   13CHL1  H11A  923   5.150   0.560   9.675  0.4480 -2.0658  1.1123
   13CHL1  H11B  924   5.307   0.478   9.677  0.7533  0.9756 -0.8607
   13CHL1    C9  925   5.331   0.687   9.701  0.5617  0.1331 -0.8921
   13CHL1    H9  926   5.438   0.680   9.673  0.7811 -1.1736  0.1986
   13CHL1   C10  927   5.329   0.708   9.853  1.0747  0.3784 -0.0964
   13CHL1   C19  928   5.174   0.698   9.899  1.1023 -0.3646  0.3329
   13CHL1  H19A  929   5.123   0.770   9.831  2.3303  1.4865  1.2803
   13CHL1  H19B  930   5.131   0.597   9.882  2.0769 -0.8979  0.9598
   13CHL1  H19C  931   5.146   0.733  10.000 -0.9591  1.2353 -0.7228
   13CHL1    C1  932   5.411   0.603   9.916 -0.8025 -0.3933 -0.0335
   13CHL1   H1A  933   5.374   0.500   9.901  0.8720 -1.0728  0.3214
   13CHL1   H1B  934   5.510   0.610   9.865  0.6673 -0.1726  2.6728
   13CHL1    C2  935   5.450   0.621  10.064  0.1701 -0.2807 -0.6533
   13CHL1   H2A  936   5.516   0.535  10.089  0.5585 -0.1399 -1.1924
   13CHL1   H2B  937   5.366   0.615  10.136  2.1392 -2.2380  1.6633
   13CHL1   C20  938   5.118   0.647   9.172 -0.2828 -0.5210 -0.8595
   13CHL1   H20  939   5.020   0.693   9.195 -0.4757 -2.0172  1.6080
   13CHL1   C21  940   5.103   0.494   9.201 -0.3802 -0.1734  0.9106
   13CHL1  H21A  941   5.029   0.450   9.130 -1.3085  2.5749  0.0218
   13CHL1  H21B  942   5.061   0.481   9.303 -0.9777 -0.9937  0.5696
   13CHL1  H21C  943   5.204   0.448   9.200  0.2160  1.0720 -0.2511
   13CHL1   C22  944   5.160   0.668   9.029  0.4622  0.1328  0.4005
   13CHL1  H22A  945   5.207   0.764   8.999  1.6718 -0.7325 -0.5346
   13CHL1  H22B  946   5.229   0.586   9.000 -2.3354 -1.5147 -2.1159
   13CHL1   C23  947   5.039   0.659   8.942  0.7436 -0.5923 -0.7585
   13CHL1  H23A  948   4.971   0.579   8.977 -0.4970  1.9375  3.3004
   13CHL1  H23B  949   4.970   0.745   8.956 -1.1925 -2.2375  0.3449
   13CHL1   C24  950   5.072   0.639   8.798  0.3951  0.3370 -0.6872
   13CHL1  H24A  951   5.107   0.730   8.746 -2.2175  0.0874 -3.1393
   13CHL1  H24B  952   5.151   0.561   8.791  0.6780  0.1603  2.7321
   13CHL1   C25  953   4.954   0.595   8.712 -0.5370  0.8685  0.3035
   13CHL1   H25  954   4.896   0.522   8.772 -0.6046 -0.2998 -1.1366
   13CHL1   C26  955   4.854   0.707   8.676  0.2833  0.1831  0.2950
   13CHL1  H26A  956   4.771   0.674   8.610 -1.2576  0.1963  2.1708
   13CHL1  H26B  957   4.813   0.757   8.766  0.5127  0.9967 -0.0393
   13CHL1  H26C  958   4.917   0.784   8.625  0.9670 -0.3981  0.2373
   13CHL1   C27  959   4.997   0.527   8.582 -0.5515  0.4958 -0.4576
   13CHL1  H27A  960   4.910   0.496   8.521  0.2202  2.5129 -2.7773
   13CHL1  H27B  961   5.036   0.619   8.532 -1.1414  1.2327  0.3966
   13CHL1  H27C  962   5.066   0.443   8.601 -2.3356 -1.0912 -0.7378
   14CHL1    C3  963   5.816   3.952  10.315  0.7149  0.3428  0.6338
   14CHL1    H3  964   5.898   4.027  10.307  1.5984 -0.6433  0.1945
   14CHL1    O3  965   5.817   3.902  10.448 -0.1766  0.1974 -0.2039
   14CHL1   H3'  966   5.748   3.951  10.493 -0.9605 -2.1423  1.3850
   14CHL1    C4  967   5.676   4.012  10.277 -0.5930  0.0119 -0.0966
   14CHL1   H4A  968   5.610   3.927  10.304  2.6860 -2.9890 -0.7365
   14CHL1   H4B  969   5.651   4.099  10.341  2.3175  0.4217  0.6363
   14CHL1    C5  970   5.667   4.042  10.128  0.3620 -0.6192 -0.2648
   14CHL1    C6  971   5.640   4.163  10.078  0.0034 -0.1422 -0.2481
   14CHL1    H6  972   5.625   4.239  10.156  1.3100  0.8888 -0.9737
   14CHL1    C7  973   5.598   4.186   9.936  0.1776 -0.1301  0.9480
   14CHL1   H7A  974   5.498   4.235   9.929  1.1149  1.7259 -0.4998
   14CHL1   H7B  975   5.672   4.246   9.878 -0.7732  1.7678  1.6127
   14CHL1    C8  976   5.582   4.054   9.852  0.0306  0.1514 -0.1855
   14CHL1    H8  977   5.486   4.006   9.881  0.9737 -1.1881  0.8198
   14CHL1   C14  978   5.596   4.091   9.708 -0.5720 -0.0939  0.1141
   14CHL1   H14  979   5.700   4.127   9.698 -0.5705 -0.2213 -0.3601
   14CHL1   C15  980   5.504   4.204   9.658 -0.2838  0.0121 -0.6190
   14CHL1  H15A  981   5.399   4.173   9.680  0.8287 -3.4427  0.4665
   14CHL1  H15B  982   5.521   4.306   9.698 -1.7687  0.8226 -1.9442
   14CHL1   C16  983   5.509   4.183   9.505 -0.6573 -0.4056  0.0840
   14CHL1  H16A  984   5.408   4.173   9.460 -1.7501  0.1070  2.2619
   14CHL1  H16B  985   5.552   4.279   9.468 -1.7335 -0.0576 -0.2928
   14CHL1   C17  986   5.591   4.055   9.477 -0.5615  0.4693  0.0715
   14CHL1   H17  987   5.696   4.090   9.475 -0.7829  1.1493 -1.3992
   14CHL1   C13  988   5.582   3.976   9.607 -0.8501  0.3350 -0.4449
   14CHL1   C18  989   5.442   3.909   9.618 -0.1385  0.3170  0.6711
   14CHL1  H18A  990   5.439   3.828   9.542 -0.2943  1.0155 -0.0869
   14CHL1  H18B  991   5.432   3.867   9.720  0.5620  0.6948  0.9009
   14CHL1  H18C  992   5.361   3.985   9.610 -0.0242  0.4546  0.8095
   14CHL1   C12  993   5.701   3.886   9.638 -0.0908  0.0439 -0.3635
   14CHL1  H12A  994   5.689   3.792   9.580  2.0075  0.2415 -1.1983
   14CHL1  H12B  995   5.791   3.943   9.605  0.6188 -0.0173  1.3491
   14CHL1   C11  996   5.704   3.842   9.784  0.5925  0.1612  0.3901
   14CHL1  H11A  997   5.622   3.768   9.797 -0.5807  0.7806 -2.5681
   14CHL1  H11B  998   5.800   3.788   9.795 -0.6439 -1.9897  1.2660
   14CHL1    C9  999   5.692   3.963   9.884 -0.4838  0.3333  0.1578
   14CHL1    H9 1000   5.787   4.018   9.867 -0.9894  2.1820  2.7020
   14CHL1   C10 1001   5.688   3.921  10.040  0.6711 -0.1570  0.1825
   14CHL1   C19 1002   5.569   3.820  10.060 -0.0297  1.0588 -0.0843
   14CHL1  H19A 1003   5.476   3.864  10.018 -0.3657  0.5740  0.1536
   14CHL1  H19B 1004   5.602   3.726  10.012 -0.6300  2.1914 -2.8955
   14CHL1  H19C 1005   5.541   3.803  10.166 -0.6423  0.8996 -0.2683
   14CHL1    C1 1006   5.829   3.864  10.075 -0.4840  1.2869 -0.5528
   14CHL1   H1A 1007   5.840   3.774  10.011  0.9537  1.3989 -0.5004
   14CHL1   H1B 1008   5.908   3.932  10.035 -1.7676  3.4468  0.4375
   14CHL1    C2 1009   5.852   3.837  10.225  0.5990  0.7571  0.9080
   14CHL1   H2A 1010   5.960   3.817  10.243 -0.1176 -1.6239  3.1963
   14CHL1   H2B 1011   5.795   3.745  10.250 -0.0474  0.6734 -0.7854
   14CHL1   C20 1012   5.568   3.981   9.342 -0.2731 -1.1507  0.1556
   14CHL1   H20 1013   5.469   3.930   9.347  0.5010 -2.6518  0.7614
   14CHL1   C21 1014   5.685   3.870   9.308 -0.6578 -0.1857  0.1194
   14CHL1  H21A 1015   5.694   3.775   9.365  0.5644  1.2338  2.4155
   14CHL1  H21B 1016   5.785   3.915   9.292 -0.4293 -1.0448 -0.9502
   14CHL1  H21C 1017   5.657   3.834   9.207 -1.5337 -2.1317  0.9898
   14CHL1   C22 1018   5.549   4.080   9.221  0.1737 -0.1098  0.7995
   14CHL1  H22A 1019   5.468   4.153   9.243  0.2766  0.0410  0.6856
   14CHL1  H22B 1020   5.639   4.144   9.206 -0.8150  1.3954  0.9978
   14CHL1   C23 1021   5.545   4.033   9.074  0.5469  0.8964  0.1217
   14CHL1  H23A 1022   5.634   3.977   9.039  1.0721  1.4798  0.5105
   14CHL1  H23B 1023   5.470   3.951   9.066  2.0692 -0.4108 -1.7192
   14CHL1   C24 1024   5.511   4.154   8.984 -0.0052  0.8772 -0.0215
   14CHL1  H24A 1025   5.410   4.185   9.015  0.8574  2.1556  1.6764
   14CHL1  H24B 1026   5.584   4.238   8.990 -0.0267  1.1804 -2.7000
   14CHL1   C25 1027   5.494   4.112   8.833  0.1010 -0.3372  0.0029
   14CHL1   H25 1028   5.449   4.205   8.790  3.1295  2.4110  2.3011
   14CHL1   C26 1029   5.634   4.091   8.775  0.2005 -0.0916  0.2041
   14CHL1  H26A 1030   5.632   4.048   8.673  2.1860 -0.9310  0.4779
   14CHL1  H26B 1031   5.699   4.181   8.788  0.4304 -0.3920  1.2505
   14CHL1  H26C 1032   5.693   4.018   8.835 -0.1772  0.3979  1.1903
   14CHL1   C27 1033   5.404   3.991   8.818 -0.3574 -0.4240  0.3811
   14CHL1  H27A 1034   5.317   3.992   8.887 -1.1484  1.1512 -0.5816
   14CHL1  H27B 1035   5.368   3.979   8.714 -1.4861 -0.7348  0.7954
   14CHL1  H27C 1036   5.452   3.894   8.840 -1.4101 -0.6403  1.8841
   15CHL1    C3 1037   3.835   5.560  10.237 -0.7171 -0.2518 -0.0600
   15CHL1    H3 1038   3.846   5.663  10.196  0.7273 -1.0290 -1.7761
   15CHL1    O3 1039   3.760   5.557  10.360 -0.5274 -0.6509 -0.6273
   15CHL1   H3' 1040   3.686   5.614  10.340 -0.8081 -0.9227 -0.3630
   15CHL1    C4 1041   3.761   5.482  10.120 -0.0868 -0.1644 -0.8965
   15CHL1   H4A 1042   3.746   5.380  10.160 -0.7142  0.7713  1.4428
   15CHL1   H4B 1043   3.659   5.526  10.114 -0.7455 -1.3992  0.4728
   15CHL1    C5 1044   3.827   5.487   9.983 -0.2225  0.1467 -0.2589
   15CHL1    C6 1045   3.773   5.530   9.868  0.6293  0.0836  0.2001
   15CHL1    H6 1046   3.669   5.566   9.867  0.8931  0.9888 -2.4128
   15CHL1    C7 1047   3.836   5.518   9.734  0.1370  0.8491  0.5254
   15CHL1   H7A 1048   3.766   5.454   9.676 -1.3204  0.3421  2.7278
   15CHL1   H7B 1049   3.836   5.618   9.685 -0.1979 -1.1213 -3.9959
   15CHL1    C8 1050   3.978   5.453   9.729 -0.5279 -0.2666  0.6031
   15CHL1    H8 1051   3.966   5.343   9.716 -4.0316  0.2390 -2.0379
   15CHL1   C14 1052   4.055   5.495   9.603  0.3152  0.0047  0.4076
   15CHL1   H14 1053   4.083   5.601   9.618 -0.0620  0.4014 -1.4659
   15CHL1   C15 1054   3.978   5.500   9.467  0.4652 -0.2009 -0.0299
   15CHL1  H15A 1055   3.917   5.407   9.464 -0.7829  0.5230  1.4428
   15CHL1  H15B 1056   3.907   5.584   9.459 -0.3221 -0.8724 -0.2357
   15CHL1   C16 1057   4.096   5.505   9.362  0.5486 -0.6640 -0.3180
   15CHL1  H16A 1058   4.072   5.446   9.271 -0.1944  1.8372 -1.8403
   15CHL1  H16B 1059   4.111   5.604   9.314  0.6494 -0.3126  0.4283
   15CHL1   C17 1060   4.230   5.474   9.439 -0.2022 -0.1896 -0.1371
   15CHL1   H17 1061   4.271   5.576   9.458  3.6119 -1.2063 -1.8143
   15CHL1   C13 1062   4.191   5.419   9.580  0.1865 -0.0451 -0.1750
   15CHL1   C18 1063   4.169   5.267   9.551 -0.3383 -0.3976  0.1957
   15CHL1  H18A 1064   4.106   5.216   9.627  0.0986 -0.3121  0.6158
   15CHL1  H18B 1065   4.117   5.248   9.455 -1.3097 -0.5177  0.7318
   15CHL1  H18C 1066   4.268   5.218   9.539 -0.4728 -0.3405 -1.3916
   15CHL1   C12 1067   4.276   5.458   9.699  0.3083  0.1507 -0.5926
   15CHL1  H12A 1068   4.372   5.402   9.703 -0.4533 -1.1391  1.8281
   15CHL1  H12B 1069   4.298   5.567   9.700  0.1668  0.1930 -1.3187
   15CHL1   C11 1070   4.205   5.435   9.837 -0.6103  0.3139 -0.4351
   15CHL1  H11A 1071   4.222   5.326   9.853  2.9882  0.4040 -2.5628
   15CHL1  H11B 1072   4.272   5.482   9.912  0.7454  0.0913 -1.4785
   15CHL1    C9 1073   4.059   5.482   9.854  0.5488  0.8081  0.1260
   15CHL1    H9 1074   4.061   5.592   9.863 -1.2723  0.7393  2.2902
   15CHL1   C10 1075   3.982   5.437   9.988  0.2259  0.9641 -0.5712
   15CHL1   C19 1076   3.974   5.284   9.997 -0.0630 -0.7639 -0.3425
   15CHL1  H19A 1077   4.074   5.235   9.992 -0.1253 -0.8476 -0.9465
   15CHL1  H19B 1078   3.915   5.261  10.088  0.1174  2.1487  0.5936
   15CHL1  H19C 1079   3.917   5.243   9.910 -0.0955 -2.3182  0.3788
   15CHL1    C1 1080   4.047   5.508  10.117  0.1229  1.0389  1.0608
   15CHL1   H1A 1081   4.144   5.459  10.136  0.0972  0.7718  0.5299
   15CHL1   H1B 1082   4.065   5.615  10.096 -1.1840  1.0948  0.0652
   15CHL1    C2 1083   3.969   5.498  10.247  0.2092  0.2908  0.2997
   15CHL1   H2A 1084   4.021   5.542  10.334  0.7763 -0.0962  0.1634
   15CHL1   H2B 1085   3.960   5.392  10.280  0.0671  0.0925 -0.3587
   15CHL1   C20 1086   4.339   5.394   9.359  0.1164 -0.1386  0.0604
   15CHL1   H20 1087   4.303   5.290   9.342 -0.7223 -0.0743  1.2860
   15CHL1   C21 1088   4.476   5.380   9.422 -0.4880 -0.0611 -0.5106
   15CHL1  H21A 1089   4.519   5.480   9.443  0.6783 -0.8919  1.2069
   15CHL1  H21B 1090   4.546   5.323   9.358  1.2035  0.0552  1.1611
   15CHL1  H21C 1091   4.478   5.337   9.524  1.3103  0.8514 -0.1279
   15CHL1   C22 1092   4.348   5.467   9.216  0.3045 -0.7085 -0.4994
   15CHL1  H22A 1093   4.256   5.467   9.154 -1.0059  0.1834  1.3812
   15CHL1  H22B 1094   4.370   5.573   9.239  1.2903 -0.6448 -1.6309
   15CHL1   C23 1095   4.466   5.441   9.124 -0.3159  0.1529 -1.0009
   15CHL1  H23A 1096   4.565   5.471   9.165  0.4630 -1.4761 -1.6151
   15CHL1  H23B 1097   4.478   5.332   9.106  1.8644 -0.5873  3.5496
   15CHL1   C24 1098   4.453   5.514   8.982  0.1801  0.2537 -0.2814
   15CHL1  H24A 1099   4.349   5.490   8.952 -0.4173  0.8226  1.2254
   15CHL1  H24B 1100   4.462   5.622   9.005 -1.1326  0.3482 -0.1428
   15CHL1   C25 1101   4.566   5.474   8.883  0.1521 -0.2229 -0.4268
   15CHL1   H25 1102   4.534   5.379   8.835 -2.9339  0.0764  0.8063
   15CHL1   C26 1103   4.562   5.576   8.778 -0.5681 -0.3436  1.1431
   15CHL1  H26A 1104   4.648   5.575   8.707  0.7209  1.3615  2.6087
   15CHL1  H26B 1105   4.472   5.554   8.716 -0.7037  1.0918  0.8102
   15CHL1  H26C 1106   4.560   5.680   8.816 -0.9440  0.3873 -0.7640
   15CHL1   C27 1107   4.706   5.456   8.950 -0.2974  0.6331  0.5383
   15CHL1  H27A 1108   4.730   5.550   9.004  2.1349  0.9222 -0.8763
   15CHL1  H27B 1109   4.707   5.380   9.030  0.9393 -0.1661 -0.1904
   15CHL1  H27C 1110   4.787   5.434   8.877  1.3031 -0.1474  2.4622
   16CHL1    C3 1111   6.016   4.220  10.601 -0.0989 -0.5944  0.2439
   16CHL1    H3 1112   5.962   4.125  10.583 -0.1897 -0.8534  1.7560
   16CHL1    O3 1113   6.029   4.225  10.743  0.8448 -0.4428  0.3598
   16CHL1   H3' 1114   6.066   4.140  10.769  0.4408 -0.4924  0.7908
   16CHL1    C4 1115   6.159   4.227  10.536  0.2307 -0.0976  0.2889
   16CHL1   H4A 1116   6.229   4.311  10.554  1.3110 -0.9872  0.3825
   16CHL1   H4B 1117   6.215   4.139  10.575  1.2956  0.2119 -0.5036
   16CHL1    C5 1118   6.138   4.203  10.385  0.0330 -0.0634  0.5639
   16CHL1    C6 1119   6.171   4.100  10.314  0.1161 -0.0166  0.1245
   16CHL1    H6 1120   6.202   4.010  10.368 -1.9928 -0.2929  0.9777
   16CHL1    C7 1121   6.152   4.080  10.162  0.2854  0.4879 -0.1884
   16CHL1   H7A 1122   6.256   4.047  10.142 -0.0876 -0.7102 -0.2287
   16CHL1   H7B 1123   6.088   3.994  10.133 -0.2041  0.4620  0.9261
   16CHL1    C8 1124   6.136   4.213  10.089  0.0372 -0.9513  0.4100
   16CHL1    H8 1125   6.229   4.274  10.085 -0.7512  0.4383  1.9874
   16CHL1   C14 1126   6.071   4.196   9.947 -0.1486 -0.5776  0.0822
   16CHL1   H14 1127   5.980   4.136   9.967 -0.3518 -0.1389  0.4897
   16CHL1   C15 1128   6.147   4.106   9.851 -0.4798  0.0202  0.6899
   16CHL1  H15A 1129   6.251   4.143   9.858  0.3254 -2.2968  2.0291
   16CHL1  H15B 1130   6.132   4.000   9.879  0.0136  0.1133  1.3312
   16CHL1   C16 1131   6.090   4.137   9.711 -0.3744 -0.6599 -0.2876
   16CHL1  H16A 1132   6.185   4.175   9.669 -0.7265 -0.1332 -0.6126
   16CHL1  H16B 1133   6.045   4.052   9.655  2.7489 -1.7278 -1.3854
   16CHL1   C17 1134   5.994   4.256   9.730  0.2389  0.8192 -0.0047
   16CHL1   H17 1135   5.890   4.222   9.749  0.6490 -0.0195  0.8155
   16CHL1   C13 1136   6.039   4.321   9.868 -0.0935  0.3503  0.5723
   16CHL1   C18 1137   6.169   4.402   9.846  0.3190  0.6483 -0.1162
   16CHL1  H18A 1138   6.139   4.501   9.806  0.5709  0.4318 -0.8564
   16CHL1  H18B 1139   6.214   4.425   9.945  1.8356 -0.4735 -0.5088
   16CHL1  H18C 1140   6.250   4.354   9.787 -1.2199 -1.0929 -0.9085
   16CHL1   C12 1141   5.937   4.398   9.946 -0.0944 -0.1516  0.0373
   16CHL1  H12A 1142   5.910   4.496   9.902  2.1963 -0.0913 -1.4050
   16CHL1  H12B 1143   5.851   4.332   9.970 -0.0689 -0.9822 -1.9451
   16CHL1   C11 1144   5.985   4.429  10.095 -0.3441 -0.5351  0.6784
   16CHL1  H11A 1145   6.055   4.514  10.085  1.2019 -1.9845 -1.9482
   16CHL1  H11B 1146   5.898   4.472  10.149 -0.2198  0.5778  0.0092
   16CHL1    C9 1147   6.030   4.301  10.169 -0.1711 -0.2455 -0.2464
   16CHL1    H9 1148   5.934   4.245  10.168  0.7067 -1.8259 -1.3895
   16CHL1   C10 1149   6.067   4.323  10.316  0.0699 -1.0207 -0.0279
   16CHL1   C19 1150   6.149   4.455  10.321  0.3280  0.1013 -0.4052
   16CHL1  H19A 1151   6.191   4.468  10.423 -1.0408 -0.7670  0.2947
   16CHL1  H19B 1152   6.232   4.437  10.249  0.2833 -0.0829 -0.4102
   16CHL1  H19C 1153   6.085   4.541  10.292 -1.0475 -1.3129 -1.7757
   16CHL1    C1 1154   5.927   4.333  10.388 -0.7456  0.2208  0.4746
   16CHL1   H1A 1155   5.881   4.426  10.349 -0.7731 -0.7242 -1.8907
   16CHL1   H1B 1156   5.871   4.241  10.359 -1.3950  1.0189 -0.8982
   16CHL1    C2 1157   5.937   4.343  10.544  0.0370 -0.4043  0.2292
   16CHL1   H2A 1158   5.832   4.344  10.580  0.8352 -1.2393  2.8244
   16CHL1   H2B 1159   5.984   4.434  10.587 -0.9674  0.1068  0.2722
   16CHL1   C20 1160   5.988   4.347   9.604 -0.4809  0.6950 -0.2526
   16CHL1   H20 1161   6.088   4.393   9.585 -2.2413  3.7172 -3.5343
   16CHL1   C21 1162   5.899   4.474   9.613 -0.0839  0.1499 -0.2374
   16CHL1  H21A 1163   5.894   4.522   9.513 -2.3943 -0.0813 -0.2870
   16CHL1  H21B 1164   5.947   4.540   9.688  3.6999 -3.0230  0.4664
   16CHL1  H21C 1165   5.795   4.449   9.644 -0.6693  2.3429 -0.2818
   16CHL1   C22 1166   5.955   4.260   9.476 -0.2830  0.1573 -0.0232
   16CHL1  H22A 1167   6.030   4.179   9.468  0.2570  0.6623 -0.1096
   16CHL1  H22B 1168   5.857   4.218   9.510 -0.6457 -1.2228 -2.5831
   16CHL1   C23 1169   5.949   4.341   9.339 -0.6146  0.9497 -0.4598
   16CHL1  H23A 1170   5.860   4.407   9.336 -0.6934  0.8788  0.2114
   16CHL1  H23B 1171   6.043   4.400   9.330 -0.2233  0.6424  1.2888
   16CHL1   C24 1172   5.955   4.240   9.223  0.1116  0.0677  0.4302
   16CHL1  H24A 1173   6.056   4.197   9.208 -0.8977 -1.8817 -1.2163
   16CHL1  H24B 1174   5.878   4.160   9.231  1.1303 -0.8800  1.0719
   16CHL1   C25 1175   5.910   4.321   9.090  0.3753  0.0681 -0.8413
   16CHL1   H25 1176   5.813   4.373   9.105  0.4603  0.6662 -2.2033
   16CHL1   C26 1177   6.000   4.440   9.066 -0.9555 -0.5161  0.3060
   16CHL1  H26A 1178   6.099   4.404   9.030 -0.3132  1.7467 -0.3697
   16CHL1  H26B 1179   5.955   4.503   8.987  1.0127  0.1272 -0.3605
   16CHL1  H26C 1180   6.019   4.509   9.151  0.4192  0.7050 -0.9218
   16CHL1   C27 1181   5.897   4.239   8.967  0.0844  0.6571  0.0594
   16CHL1  H27A 1182   5.997   4.221   8.924  0.9383  5.1630 -0.2313
   16CHL1  H27B 1183   5.861   4.136   8.990  2.3007 -0.7720 -2.3146
   16CHL1  H27C 1184   5.831   4.293   8.897 -2.3128 -0.4633  1.3108
   17CHL1    C3 1185   0.390   6.445  10.256  0.4621 -0.1775  0.3835
   17CHL1    H3 1186   0.287   6.407  10.237  0.0523  0.5062  1.1695
   17CHL1    O3 1187   0.411   6.451  10.395 -0.3739 -0.0705  0.4558
   17CHL1   H3' 1188   0.504   6.473  10.391 -0.4651  0.4054  0.8595
   17CHL1    C4 1189   0.488   6.345  10.175 -0.0069 -0.6802 -0.6821
   17CHL1   H4A 1190   0.597   6.357  10.193  0.2594 -1.1605 -1.9008
   17CHL1   H4B 1191   0.465   6.252  10.231  1.9275 -0.3990  0.7059
   17CHL1    C5 1192   0.467   6.342  10.027  0.1797 -0.1672 -0.5768
   17CHL1    C6 1193   0.459   6.223   9.958  0.4990  0.0145  0.0709
   17CHL1    H6 1194   0.464   6.126  10.011 -2.6951 -0.4852 -0.3478
   17CHL1    C7 1195   0.432   6.218   9.804 -0.9485 -0.4710 -0.0277
   17CHL1   H7A 1196   0.514   6.156   9.761  0.4116  0.1746  1.5262
   17CHL1   H7B 1197   0.334   6.182   9.767 -0.0635 -2.7495 -0.3899
   17CHL1    C8 1198   0.451   6.360   9.746 -0.1656  0.0858  0.5772
   17CHL1    H8 1199   0.560   6.381   9.736 -0.5259  1.0873 -1.9685
   17CHL1   C14 1200   0.404   6.365   9.594 -0.2430  0.2476 -0.6369
   17CHL1   H14 1201   0.294   6.347   9.590 -0.7956  2.7153  1.0244
   17CHL1   C15 1202   0.447   6.254   9.496  0.1900 -1.1356 -0.9962
   17CHL1  H15A 1203   0.553   6.234   9.524  0.1511  0.0396  0.1128
   17CHL1  H15B 1204   0.391   6.161   9.515  1.9749 -2.2194 -0.8391
   17CHL1   C16 1205   0.428   6.309   9.363 -0.1319 -0.3346  0.4505
   17CHL1  H16A 1206   0.514   6.299   9.293  1.7719 -1.9674  2.8951
   17CHL1  H16B 1207   0.351   6.245   9.314  0.8504  0.5515 -2.4701
   17CHL1   C17 1208   0.387   6.459   9.378  0.0189  0.1125 -0.4302
   17CHL1   H17 1209   0.276   6.460   9.382  0.0376  0.4881  0.1812
   17CHL1   C13 1210   0.430   6.494   9.519  0.1034 -0.1302 -0.9285
   17CHL1   C18 1211   0.583   6.534   9.509 -0.2791 -0.6293  0.4703
   17CHL1  H18A 1212   0.647   6.469   9.446  1.6865  1.7787 -0.2075
   17CHL1  H18B 1213   0.586   6.637   9.467  0.5563 -0.1098  1.7646
   17CHL1  H18C 1214   0.639   6.541   9.604 -0.3045  2.1295  0.3722
   17CHL1   C12 1215   0.344   6.596   9.592  0.8192 -0.1422 -0.4099
   17CHL1  H12A 1216   0.354   6.693   9.539  0.6441 -1.5586 -3.1868
   17CHL1  H12B 1217   0.237   6.566   9.590  0.3476  1.1614  1.9789
   17CHL1   C11 1218   0.395   6.612   9.740  0.0381 -0.1437  0.4949
   17CHL1  H11A 1219   0.498   6.652   9.733  0.1133 -0.5253 -1.0690
   17CHL1  H11B 1220   0.320   6.676   9.791  0.3073  0.4831  0.1106
   17CHL1    C9 1221   0.389   6.476   9.823 -0.8385  0.0675  0.5847
   17CHL1    H9 1222   0.282   6.449   9.837 -0.8498 -0.0506  0.2593
   17CHL1   C10 1223   0.447   6.481   9.965 -0.2597 -0.5221 -0.4075
   17CHL1   C19 1224   0.586   6.546   9.949  0.4182  0.4664  0.1107
   17CHL1  H19A 1225   0.658   6.533  10.033  1.0061 -2.0789 -0.6831
   17CHL1  H19B 1226   0.651   6.491   9.878  0.3712  1.0839 -0.4138
   17CHL1  H19C 1227   0.601   6.650   9.912  0.3993  1.0159  1.5508
   17CHL1    C1 1228   0.343   6.573  10.046  0.4325 -0.3499  0.1151
   17CHL1   H1A 1229   0.342   6.673   9.999  2.0341  0.1845  1.1126
   17CHL1   H1B 1230   0.239   6.535  10.053  0.7869 -1.0688  2.6699
   17CHL1    C2 1231   0.390   6.581  10.192  0.6698 -0.6493 -0.8821
   17CHL1   H2A 1232   0.331   6.652  10.255  1.4800 -1.4270  0.8352
   17CHL1   H2B 1233   0.492   6.623  10.192  0.0890  0.9217  1.1671
   17CHL1   C20 1234   0.439   6.531   9.258  0.5349 -0.0450  0.1255
   17CHL1   H20 1235   0.550   6.537   9.250  0.3977  1.0798 -1.5805
   17CHL1   C21 1236   0.385   6.672   9.266 -0.1445 -0.1683 -0.0755
   17CHL1  H21A 1237   0.409   6.721   9.169  0.4938  1.1727  0.7357
   17CHL1  H21B 1238   0.441   6.733   9.340  2.2619  0.5125 -2.3119
   17CHL1  H21C 1239   0.276   6.684   9.280 -0.1367  2.0379 -1.3886
   17CHL1   C22 1240   0.384   6.470   9.124  0.3074  0.4173 -0.4164
   17CHL1  H22A 1241   0.426   6.367   9.120 -0.6153  0.0596 -1.7281
   17CHL1  H22B 1242   0.273   6.469   9.130  0.2333 -0.8271 -1.4726
   17CHL1   C23 1243   0.421   6.532   8.986 -0.1123  0.1010 -0.6582
   17CHL1  H23A 1244   0.406   6.642   8.982 -2.2761 -0.0993  0.3520
   17CHL1  H23B 1245   0.531   6.536   8.970  0.0201 -0.4670  0.0764
   17CHL1   C24 1246   0.348   6.480   8.861 -0.5512  0.5756  0.7317
   17CHL1  H24A 1247   0.345   6.369   8.870  1.1672  0.4043 -0.3303
   17CHL1  H24B 1248   0.241   6.512   8.868 -0.1726  2.3191 -0.6901
   17CHL1   C25 1249   0.406   6.541   8.727  0.0742  0.3631 -0.7787
   17CHL1   H25 1250   0.411   6.651   8.744 -1.0338  0.5880 -1.7506
   17CHL1   C26 1251   0.547   6.486   8.706  0.7016  0.8099 -0.3706
   17CHL1  H26A 1252   0.576   6.513   8.602 -1.4395  0.1344 -1.1981
   17CHL1  H26B 1253   0.618   6.520   8.784 -0.3382  2.1032  0.0340
   17CHL1  H26C 1254   0.538   6.375   8.707  0.6414  0.8227  0.5972
   17CHL1   C27 1255   0.318   6.508   8.601 -0.2502 -0.3790 -0.1758
   17CHL1  H27A 1256   0.243   6.587   8.580 -0.1903 -0.5135 -0.9363
   17CHL1  H27B 1257   0.391   6.512   8.518 -1.0051  3.7812 -0.8431
   17CHL1  H27C 1258   0.281   6.403   8.596 -0.0610 -0.4830  0.5640
   18CHL1    C3 1259   0.022   0.145  10.286 -0.4330  0.8446 -0.1852
   18CHL1    H3 1260  -0.064   0.215  10.296 -0.4790  0.5295  2.4955
   18CHL1    O3 1261   0.073   0.105  10.407  0.3436 -0.4707  0.0279
   18CHL1   H3' 1262   0.158   0.150  10.411  1.2312 -2.0875  0.4931
   18CHL1    C4 1263  -0.036   0.029  10.204 -0.5465 -0.2274 -0.2762
   18CHL1   H4A 1264   0.039  -0.050  10.182 -0.9399 -0.9888  1.0523
   18CHL1   H4B 1265  -0.108  -0.021  10.272  0.5912 -0.5525  0.7195
   18CHL1    C5 1266  -0.095   0.072  10.072  0.4228  0.1600 -0.1969
   18CHL1    C6 1267  -0.221   0.049  10.033  0.4342 -0.1795  0.2066
   18CHL1    H6 1268  -0.290   0.004  10.104  0.9284  0.1059  0.8772
   18CHL1    C7 1269  -0.274   0.090   9.892 -0.1458  0.5997 -1.3637
   18CHL1   H7A 1270  -0.338   0.009   9.853 -1.4097  0.6939  0.3674
   18CHL1   H7B 1271  -0.341   0.178   9.908 -0.3199  0.1889  0.3734
   18CHL1    C8 1272  -0.168   0.135   9.790 -0.3729 -0.4634 -0.3995
   18CHL1    H8 1273  -0.121   0.040   9.757 -1.5299 -1.1435 -0.1620
   18CHL1   C14 1274  -0.227   0.202   9.668  0.3200  0.0525  0.0124
   18CHL1   H14 1275  -0.284   0.286   9.713  2.5815  0.7230  1.7766
   18CHL1   C15 1276  -0.325   0.117   9.588 -0.0885 -0.0944 -0.2932
   18CHL1  H15A 1277  -0.280   0.018   9.566 -0.3059 -0.6347  1.5182
   18CHL1  H15B 1278  -0.418   0.104   9.648  0.7757  3.1078  2.0228
   18CHL1   C16 1279  -0.358   0.205   9.467 -0.5266 -0.3596  0.3046
   18CHL1  H16A 1280  -0.356   0.133   9.382 -1.8531  0.0632 -0.1033
   18CHL1  H16B 1281  -0.458   0.253   9.475 -0.6077 -0.7546  2.0748
   18CHL1   C17 1282  -0.242   0.311   9.464 -0.0356  0.7834  0.0210
   18CHL1   H17 1283  -0.287   0.401   9.510  0.2241  1.0872 -0.3098
   18CHL1   C13 1284  -0.134   0.262   9.567 -0.1958  0.2773  0.7059
   18CHL1   C18 1285  -0.033   0.157   9.499  0.4911 -0.1081 -0.6197
   18CHL1  H18A 1286   0.024   0.107   9.580  2.1783  1.9873 -0.3954
   18CHL1  H18B 1287  -0.096   0.088   9.440 -2.0754  0.7888  0.9247
   18CHL1  H18C 1288   0.038   0.210   9.431  2.1979  0.3648  1.4168
   18CHL1   C12 1289  -0.060   0.372   9.648  0.2876  0.1393 -0.3881
   18CHL1  H12A 1290  -0.002   0.443   9.585  1.3376 -0.0485  0.3356
   18CHL1  H12B 1291  -0.138   0.431   9.702 -0.7076 -2.0713  0.7501
   18CHL1   C11 1292   0.028   0.306   9.761 -0.8357  0.0580 -0.6829
   18CHL1  H11A 1293   0.107   0.242   9.716 -0.1640 -1.5931  2.5300
   18CHL1  H11B 1294   0.079   0.382   9.823  1.1449 -0.9186 -1.0432
   18CHL1    C9 1295  -0.059   0.223   9.864 -0.4912 -0.0110  0.2803
   18CHL1    H9 1296  -0.123   0.296   9.918  0.8812 -1.0576  3.5582
   18CHL1   C10 1297   0.010   0.148   9.980  0.5645  0.4482  0.0617
   18CHL1   C19 1298   0.096   0.037   9.913  0.4724  0.5665  1.0674
   18CHL1  H19A 1299   0.026  -0.036   9.867  1.1296 -0.0853  1.0983
   18CHL1  H19B 1300   0.160   0.070   9.829  0.2980 -1.3212  0.1417
   18CHL1  H19C 1301   0.159  -0.018   9.986  0.0610 -0.9363  0.3421
   18CHL1    C1 1302   0.074   0.258  10.068 -0.1336 -0.0009 -0.5223
   18CHL1   H1A 1303   0.159   0.307  10.014 -0.8506 -0.1487 -1.8248
   18CHL1   H1B 1304   0.014   0.346  10.100  1.5440  1.1052 -0.2945
   18CHL1    C2 1305   0.136   0.212  10.206 -0.0342  0.9823  0.1537
   18CHL1   H2A 1306   0.163   0.298  10.270 -1.1858  0.6040  1.2002
   18CHL1   H2B 1307   0.216   0.135  10.200 -2.1915 -1.3680 -0.6521
   18CHL1   C20 1308  -0.206   0.355   9.326 -0.4894  0.1319 -0.7903
   18CHL1   H20 1309  -0.135   0.284   9.278 -1.5068  0.1912 -2.4940
   18CHL1   C21 1310  -0.129   0.497   9.327  0.2928 -0.1883 -0.2164
   18CHL1  H21A 1311  -0.121   0.529   9.221 -0.5133 -2.4108 -0.9915
   18CHL1  H21B 1312  -0.026   0.491   9.369  0.1853 -1.8697 -0.1566
   18CHL1  H21C 1313  -0.193   0.567   9.385  1.0084  1.3884 -1.2390
   18CHL1   C22 1314  -0.320   0.357   9.217  0.4350  0.4922 -0.0783
   18CHL1  H22A 1315  -0.392   0.275   9.232  0.3984  0.5129 -0.1394
   18CHL1  H22B 1316  -0.385   0.443   9.243  0.9014  0.7942  0.0980
   18CHL1   C23 1317  -0.277   0.356   9.069  0.0128 -0.8844 -0.6287
   18CHL1  H23A 1318  -0.245   0.458   9.038  0.6835  0.1038  2.8918
   18CHL1  H23B 1319  -0.183   0.297   9.063  2.4740  2.7019 -0.7248
   18CHL1   C24 1320  -0.391   0.306   8.978  0.5440 -1.0078 -0.8745
   18CHL1  H24A 1321  -0.415   0.201   9.007 -0.5896 -0.4109  0.4219
   18CHL1  H24B 1322  -0.479   0.371   8.994  2.6656  1.4296  2.2951
   18CHL1   C25 1323  -0.367   0.314   8.828  0.2588 -0.2479 -0.0450
   18CHL1   H25 1324  -0.323   0.415   8.811 -1.4515  0.6598  0.7556
   18CHL1   C26 1325  -0.260   0.212   8.785  0.1888  0.2218 -0.3750
   18CHL1  H26A 1326  -0.213   0.235   8.687 -1.1310  0.8448 -0.8813
   18CHL1  H26B 1327  -0.174   0.241   8.849  1.4166  1.9359 -2.6493
   18CHL1  H26C 1328  -0.287   0.106   8.799 -1.7695  0.5321 -1.5250
   18CHL1   C27 1329  -0.501   0.298   8.755 -0.1782 -0.4303  0.0770
   18CHL1  H27A 1330  -0.483   0.274   8.648 -1.0146 -0.4442 -0.0661
   18CHL1  H27B 1331  -0.567   0.218   8.796  2.2358 -1.5729  2.0644
   18CHL1  H27C 1332  -0.562   0.390   8.761  1.8890  0.9552  1.0040
   19CHL1    C3 1333   5.416   4.682  10.097 -0.4691  0.0596 -0.9456
   19CHL1    H3 1334   5.315   4.726  10.099 -0.2153  0.6224  0.1128
   19CHL1    O3 1335   5.461   4.654  10.228  0.0207  0.3049 -0.1810
   19CHL1   H3' 1336   5.393   4.677  10.291  0.1716  2.2019 -0.6691
   19CHL1    C4 1337   5.420   4.551  10.022  0.8873  0.0478  0.4584
   19CHL1   H4A 1338   5.517   4.501  10.045 -0.7422 -3.2061  0.7799
   19CHL1   H4B 1339   5.342   4.490  10.073  0.7792 -1.5193 -1.4836
   19CHL1    C5 1340   5.396   4.566   9.872  0.3524 -0.6339 -0.1216
   19CHL1    C6 1341   5.300   4.497   9.812 -0.0758 -0.5981  0.3249
   19CHL1    H6 1342   5.234   4.436   9.876 -1.3483 -1.8019 -2.0050
   19CHL1    C7 1343   5.278   4.508   9.663  0.7424  0.0995  0.0015
   19CHL1   H7A 1344   5.270   4.404   9.625  0.4360  0.5680 -1.2718
   19CHL1   H7B 1345   5.187   4.567   9.638  0.5606 -0.2065 -0.0712
   19CHL1    C8 1346   5.401   4.573   9.591 -0.2701 -0.0833  0.1427
   19CHL1    H8 1347   5.483   4.499   9.596  0.6058  0.8262 -0.5294
   19CHL1   C14 1348   5.377   4.605   9.448  0.9670  0.1079  0.6293
   19CHL1   H14 1349   5.293   4.677   9.449 -0.2304 -1.1069 -2.1884
   19CHL1   C15 1350   5.319   4.495   9.356 -0.8320 -0.3323 -0.3495
   19CHL1  H15A 1351   5.388   4.408   9.364 -0.6420 -0.1295  0.3189
   19CHL1  H15B 1352   5.215   4.471   9.388 -0.0497  0.0074  2.8357
   19CHL1   C16 1353   5.330   4.558   9.222 -0.0678 -0.4947  0.2169
   19CHL1  H16A 1354   5.371   4.478   9.156  3.2087  0.4618  0.8912
   19CHL1  H16B 1355   5.236   4.604   9.186  1.5358  2.5303 -0.3811
   19CHL1   C17 1356   5.431   4.671   9.223 -0.7365 -0.4042  1.0399
   19CHL1   H17 1357   5.373   4.766   9.217  0.1065  0.0224 -1.2260
   19CHL1   C13 1358   5.488   4.663   9.367 -0.3270 -0.0772  0.7145
   19CHL1   C18 1359   5.614   4.572   9.371  0.0904 -0.2843  0.1001
   19CHL1  H18A 1360   5.590   4.467   9.340  1.0565 -1.1474  2.1173
   19CHL1  H18B 1361   5.698   4.612   9.312  2.3038 -2.2094  1.7477
   19CHL1  H18C 1362   5.639   4.555   9.478  0.1025 -0.7602  0.0226
   19CHL1   C12 1363   5.517   4.800   9.429 -0.8547 -0.4041  0.2059
   19CHL1  H12A 1364   5.599   4.851   9.375 -1.7571  0.6911 -0.1843
   19CHL1  H12B 1365   5.429   4.868   9.425  0.1829  0.9789 -3.3337
   19CHL1   C11 1366   5.564   4.779   9.574 -0.2770 -0.0368  0.3576
   19CHL1  H11A 1367   5.664   4.730   9.575  0.0900  0.6856 -0.1497
   19CHL1  H11B 1368   5.576   4.876   9.627  0.7787 -0.8943  1.7759
   19CHL1    C9 1369   5.444   4.705   9.662 -0.1890 -0.1982  0.2192
   19CHL1    H9 1370   5.351   4.765   9.657 -1.5053 -2.2311 -1.6810
   19CHL1   C10 1371   5.485   4.669   9.806  0.5710  0.3663  0.0291
   19CHL1   C19 1372   5.635   4.608   9.815 -0.4494  0.3340  0.0091
   19CHL1  H19A 1373   5.639   4.545   9.723  1.2533 -0.7061  0.7476
   19CHL1  H19B 1374   5.702   4.695   9.804 -0.9912  0.6668 -0.7126
   19CHL1  H19C 1375   5.660   4.539   9.899 -1.8478  0.0896  0.2624
   19CHL1    C1 1376   5.488   4.802   9.889  0.4287 -0.0265  0.5812
   19CHL1   H1A 1377   5.571   4.863   9.847 -0.5536  1.1419  0.2663
   19CHL1   H1B 1378   5.394   4.862   9.880 -1.0364 -2.4654 -4.3206
   19CHL1    C2 1379   5.522   4.781  10.038 -0.1472  0.4739  0.4300
   19CHL1   H2A 1380   5.531   4.880  10.087  1.7403  0.2664  0.5824
   19CHL1   H2B 1381   5.625   4.739  10.045 -1.1988 -2.2956  0.5655
   19CHL1   C20 1382   5.517   4.669   9.094 -0.3333 -0.2680  0.5025
   19CHL1   H20 1383   5.568   4.570   9.100  0.6973  0.2436  0.3391
   19CHL1   C21 1384   5.620   4.790   9.093 -0.7601 -0.1918 -0.0886
   19CHL1  H21A 1385   5.699   4.785   9.015 -0.9860 -5.2218 -0.3003
   19CHL1  H21B 1386   5.679   4.800   9.187  1.9122  0.9732 -1.7749
   19CHL1  H21C 1387   5.565   4.884   9.071  0.9291  1.3978  1.9825
   19CHL1   C22 1388   5.446   4.660   8.950 -0.5198 -0.5260  0.6814
   19CHL1  H22A 1389   5.375   4.575   8.947  0.0361 -0.9738 -0.1790
   19CHL1  H22B 1390   5.382   4.751   8.948 -0.2353 -0.3343 -0.5678
   19CHL1   C23 1391   5.540   4.651   8.827  0.2115 -0.3642 -0.0274
   19CHL1  H23A 1392   5.481   4.653   8.732  1.1154 -0.5655 -0.6046
   19CHL1  H23B 1393   5.601   4.743   8.822 -0.8035  0.2914 -0.6121
   19CHL1   C24 1394   5.624   4.521   8.816  0.1078 -0.2238 -0.1787
   19CHL1  H24A 1395   5.689   4.512   8.906 -1.8072  0.8363  1.3853
   19CHL1  H24B 1396   5.555   4.434   8.819 -0.1637 -0.0131 -0.2221
   19CHL1   C25 1397   5.719   4.507   8.694  0.0827 -0.5262  0.2055
   19CHL1   H25 1398   5.774   4.410   8.696  2.4593  0.3384 -5.0077
   19CHL1   C26 1399   5.639   4.496   8.566  0.1981  0.1856 -0.1891
   19CHL1  H26A 1400   5.605   4.595   8.530 -0.4539  0.0579  0.0649
   19CHL1  H26B 1401   5.702   4.472   8.477 -1.1711  0.9848 -1.4238
   19CHL1  H26C 1402   5.557   4.421   8.563  0.1732  0.2284 -2.2438
   19CHL1   C27 1403   5.826   4.622   8.700  0.4439 -0.7961  0.0184
   19CHL1  H27A 1404   5.908   4.599   8.629  0.0103 -0.5728 -0.5659
   19CHL1  H27B 1405   5.780   4.717   8.663  0.6009 -1.0466 -0.8336
   19CHL1  H27C 1406   5.864   4.631   8.804 -2.3941 -0.4270  1.1205
   20CHL1    C3 1407   6.333   3.739  10.275 -0.9067  0.0935  1.5163
   20CHL1    H3 1408   6.275   3.833  10.285 -1.6235 -0.2499  0.6799
   20CHL1    O3 1409   6.371   3.704  10.409  0.7553  0.3252  0.6673
   20CHL1   H3' 1410   6.393   3.611  10.407  0.4672  0.2634  0.1555
   20CHL1    C4 1411   6.251   3.627  10.213  0.6289  0.3708 -0.0977
   20CHL1   H4A 1412   6.309   3.533  10.214 -0.7888 -0.5433 -0.1671
   20CHL1   H4B 1413   6.163   3.611  10.280  1.6920  0.4636  1.3682
   20CHL1    C5 1414   6.227   3.651  10.061  0.4305  0.3142 -0.5445
   20CHL1    C6 1415   6.099   3.645  10.015 -0.3180  0.6191 -0.3555
   20CHL1    H6 1416   6.020   3.637  10.091  1.4789 -0.9538  1.4848
   20CHL1    C7 1417   6.063   3.664   9.869 -0.1382  0.5964 -0.6842
   20CHL1   H7A 1418   5.976   3.600   9.842  1.5647 -1.4705 -1.5992
   20CHL1   H7B 1419   6.029   3.769   9.864  0.7134  0.8725 -0.6893
   20CHL1    C8 1420   6.181   3.663   9.770  0.7207  0.0381 -0.0552
   20CHL1    H8 1421   6.203   3.555   9.751  3.9287  0.7144 -0.6466
   20CHL1   C14 1422   6.138   3.719   9.642 -0.3148 -0.2920  0.3322
   20CHL1   H14 1423   6.123   3.827   9.667 -0.8349 -0.6643  1.7459
   20CHL1   C15 1424   6.019   3.664   9.565  0.2314  0.4781  0.3139
   20CHL1  H15A 1425   5.999   3.557   9.585 -0.0067  0.3551 -0.5432
   20CHL1  H15B 1426   5.925   3.715   9.596 -0.9476 -0.5637 -1.3973
   20CHL1   C16 1427   6.027   3.705   9.421  0.0621  0.1152  0.0149
   20CHL1  H16A 1428   6.022   3.612   9.360  3.2505 -0.3201  0.2722
   20CHL1  H16B 1429   5.942   3.774   9.401 -1.4084 -0.9518  2.2190
   20CHL1   C17 1430   6.166   3.772   9.406 -0.8774 -0.2232  0.0314
   20CHL1   H17 1431   6.147   3.881   9.411  3.0722  0.8288 -2.9490
   20CHL1   C13 1432   6.249   3.722   9.530  0.6252  0.6139 -0.4445
   20CHL1   C18 1433   6.289   3.578   9.493  0.2018  0.0090  0.4748
   20CHL1  H18A 1434   6.311   3.521   9.585  1.6136 -0.0995  0.0928
   20CHL1  H18B 1435   6.206   3.530   9.436  0.4303 -0.4176  0.5025
   20CHL1  H18C 1436   6.387   3.576   9.441 -0.4744  1.5044 -0.9697
   20CHL1   C12 1437   6.364   3.810   9.582  0.1875 -0.1232  0.8137
   20CHL1  H12A 1438   6.452   3.811   9.514 -0.1640 -1.2431  0.3294
   20CHL1  H12B 1439   6.328   3.915   9.588 -0.6389 -0.1990 -1.7078
   20CHL1   C11 1440   6.416   3.755   9.718  0.1052  0.2288 -0.7777
   20CHL1  H11A 1441   6.453   3.652   9.695 -0.8445 -0.5129  0.8049
   20CHL1  H11B 1442   6.500   3.814   9.760 -0.0132 -1.4136  2.0148
   20CHL1    C9 1443   6.304   3.739   9.829 -0.6912 -0.0863  0.4824
   20CHL1    H9 1444   6.262   3.840   9.850 -0.4844  0.1236 -0.0764
   20CHL1   C10 1445   6.353   3.682   9.973  0.6334  0.4991 -0.2498
   20CHL1   C19 1446   6.443   3.560   9.957 -0.1253 -0.2896 -0.6882
   20CHL1  H19A 1447   6.403   3.493   9.878 -0.7073  1.0662 -1.5888
   20CHL1  H19B 1448   6.545   3.583   9.917  0.7072  0.1512  1.5488
   20CHL1  H19C 1449   6.458   3.516  10.058  0.5252  1.8999  0.2289
   20CHL1    C1 1450   6.429   3.791  10.043  0.4045 -0.2153 -0.8484
   20CHL1   H1A 1451   6.518   3.819   9.983  2.3940 -1.0085  1.5448
   20CHL1   H1B 1452   6.358   3.876  10.044 -0.8744 -1.2550 -0.1629
   20CHL1    C2 1453   6.462   3.751  10.186  0.1305 -0.5441  0.5328
   20CHL1   H2A 1454   6.529   3.825  10.234 -1.0098  0.5877  0.4212
   20CHL1   H2B 1455   6.527   3.661  10.177  0.0601 -0.5581  0.1293
   20CHL1   C20 1456   6.229   3.750   9.268  0.3306 -0.3818  0.3457
   20CHL1   H20 1457   6.233   3.642   9.242  3.4767  0.0772 -1.6472
   20CHL1   C21 1458   6.366   3.828   9.260  0.2774 -0.0821  0.4662
   20CHL1  H21A 1459   6.447   3.763   9.300  2.5023  2.1211 -0.2093
   20CHL1  H21B 1460   6.350   3.925   9.312 -1.5068  1.4267 -2.6133
   20CHL1  H21C 1461   6.389   3.857   9.155 -3.4270  0.4975 -0.3222
   20CHL1   C22 1462   6.134   3.817   9.168  0.4476 -0.3191 -0.4536
   20CHL1  H22A 1463   6.034   3.768   9.171  0.0133  0.4973 -1.0304
   20CHL1  H22B 1464   6.115   3.923   9.196  1.3945 -0.4684  0.8710
   20CHL1   C23 1465   6.168   3.815   9.020  0.3595 -0.4280  0.0139
   20CHL1  H23A 1466   6.263   3.867   8.995 -0.3231  0.9415  0.2241
   20CHL1  H23B 1467   6.158   3.706   8.998 -1.5708 -0.3592  0.4092
   20CHL1   C24 1468   6.056   3.888   8.943  0.4002  0.3021  0.0820
   20CHL1  H24A 1469   5.957   3.855   8.979  0.7599  0.0071  0.8270
   20CHL1  H24B 1470   6.060   3.999   8.955 -2.3503  0.9592 -3.3364
   20CHL1   C25 1471   6.059   3.875   8.793  0.0604 -0.1577 -0.5410
   20CHL1   H25 1472   6.165   3.870   8.761  0.3509 -3.2625  0.5246
   20CHL1   C26 1473   6.013   3.733   8.751  0.5433 -0.3313  0.2174
   20CHL1  H26A 1474   5.915   3.722   8.804  1.6028 -1.2667  2.0884
   20CHL1  H26B 1475   6.000   3.739   8.641 -1.6294  1.1528  0.4655
   20CHL1  H26C 1476   6.083   3.653   8.782  0.9278  0.7507  2.3468
   20CHL1   C27 1477   5.996   3.990   8.718  0.9813  0.0096 -0.1411
   20CHL1  H27A 1478   6.057   4.081   8.737  2.2627 -0.3570 -2.1141
   20CHL1  H27B 1479   5.986   3.984   8.607 -1.3515  1.8382 -0.1048
   20CHL1  H27C 1480   5.889   3.991   8.747  0.6331  0.1402 -1.3699
   21CHL1    C3 1481   6.270   2.640  10.215 -0.5360  0.8338  0.1800
   21CHL1    H3 1482   6.234   2.745  10.216 -0.0396  1.0506  2.8563
   21CHL1    O3 1483   6.248   2.582  10.335  0.7109 -0.5116  0.5053
   21CHL1   H3' 1484   6.311   2.509  10.341  0.7789 -0.4054  1.1395
   21CHL1    C4 1485   6.195   2.553  10.112 -0.6364  0.2052 -0.2701
   21CHL1   H4A 1486   6.249   2.456  10.119  0.5931  0.7943 -1.0485
   21CHL1   H4B 1487   6.088   2.534  10.130 -0.5719  0.4646  0.3948
   21CHL1    C5 1488   6.226   2.614   9.971  0.8810 -0.1615 -0.6131
   21CHL1    C6 1489   6.128   2.647   9.882  0.3104 -0.0014  0.8601
   21CHL1    H6 1490   6.023   2.619   9.902  0.8448 -1.8537  1.2883
   21CHL1    C7 1491   6.165   2.718   9.752  0.4104 -0.2918  0.2157
   21CHL1   H7A 1492   6.087   2.698   9.676 -0.1838  0.3508  0.6493
   21CHL1   H7B 1493   6.161   2.827   9.769 -1.0013 -0.4838  1.3146
   21CHL1    C8 1494   6.307   2.685   9.692 -0.1304  0.3950 -0.0852
   21CHL1    H8 1495   6.314   2.580   9.658  0.2019  0.6590 -0.8564
   21CHL1   C14 1496   6.341   2.782   9.579  0.2171  0.2547 -0.2532
   21CHL1   H14 1497   6.335   2.883   9.624 -1.3287 -0.8656  2.2568
   21CHL1   C15 1498   6.248   2.781   9.455 -0.3155 -0.5525 -0.3827
   21CHL1  H15A 1499   6.232   2.676   9.422 -0.8867 -0.2715 -1.0171
   21CHL1  H15B 1500   6.156   2.842   9.466 -0.9229 -1.5844  0.4415
   21CHL1   C16 1501   6.334   2.835   9.346 -0.0408 -0.3594  0.3030
   21CHL1  H16A 1502   6.346   2.771   9.256  2.1680  0.5669 -0.1458
   21CHL1  H16B 1503   6.279   2.927   9.318 -1.1957 -1.3976 -0.9814
   21CHL1   C17 1504   6.472   2.859   9.405  0.4957  0.2323  0.0525
   21CHL1   H17 1505   6.465   2.963   9.443 -1.5641  0.2645 -0.2856
   21CHL1   C13 1506   6.484   2.766   9.523  0.9804 -0.2160 -0.2811
   21CHL1   C18 1507   6.525   2.628   9.474  0.0955  0.5662 -0.5335
   21CHL1  H18A 1508   6.634   2.624   9.450  0.5856 -0.7086  1.6117
   21CHL1  H18B 1509   6.514   2.548   9.550  2.9910 -1.7341 -2.2942
   21CHL1  H18C 1510   6.474   2.596   9.380  1.1917 -1.0431 -0.6233
   21CHL1   C12 1511   6.571   2.818   9.642 -0.0048  0.0875 -0.4965
   21CHL1  H12A 1512   6.673   2.809   9.598 -0.7970 -0.9482 -2.2638
   21CHL1  H12B 1513   6.541   2.923   9.659  1.0067  0.0904  1.6160
   21CHL1   C11 1514   6.554   2.726   9.766  0.5891 -0.3011 -0.7044
   21CHL1  H11A 1515   6.596   2.628   9.733 -2.9521 -1.5271 -1.9684
   21CHL1  H11B 1516   6.614   2.772   9.848 -0.0616  0.7944 -0.8177
   21CHL1    C9 1517   6.404   2.709   9.806  0.5901  0.1345 -0.6438
   21CHL1    H9 1518   6.383   2.815   9.832  1.7474  0.4045 -0.7378
   21CHL1   C10 1519   6.377   2.635   9.946 -1.2984  0.4354  0.7671
   21CHL1   C19 1520   6.439   2.495   9.928  0.3826 -0.0624  0.2087
   21CHL1  H19A 1521   6.427   2.435  10.021  1.5613 -1.1692 -0.3172
   21CHL1  H19B 1522   6.397   2.440   9.840  0.1135  1.1846 -0.4567
   21CHL1  H19C 1523   6.548   2.512   9.921 -0.0167  2.2489 -1.3098
   21CHL1    C1 1524   6.448   2.708  10.064  0.0961 -0.8926 -0.3779
   21CHL1   H1A 1525   6.558   2.710  10.046  0.2531 -2.0624  0.3615
   21CHL1   H1B 1526   6.415   2.814  10.076 -0.2089 -0.9440 -0.7586
   21CHL1    C2 1527   6.429   2.638  10.199  0.0082 -0.1815  0.2598
   21CHL1   H2A 1528   6.464   2.692  10.290 -1.2040  1.2236 -0.0591
   21CHL1   H2B 1529   6.465   2.533  10.198  0.8376  0.0995 -0.2937
   21CHL1   C20 1530   6.582   2.866   9.298 -0.3251  0.3021 -0.5210
   21CHL1   H20 1531   6.606   2.769   9.249  3.1055 -0.7024  2.6837
   21CHL1   C21 1532   6.724   2.886   9.368  0.1092  0.4973 -0.3201
   21CHL1  H21A 1533   6.778   2.805   9.423  1.1784  0.4923 -1.3504
   21CHL1  H21B 1534   6.708   2.967   9.442 -2.4317  0.2880 -0.5400
   21CHL1  H21C 1535   6.797   2.921   9.293  1.7085 -2.4969 -0.3258
   21CHL1   C22 1536   6.564   2.986   9.204 -0.0110  0.7350 -0.1895
   21CHL1  H22A 1537   6.458   2.984   9.171  0.1451 -1.5033 -0.6838
   21CHL1  H22B 1538   6.596   3.070   9.270  0.0708 -0.9927  2.1019
   21CHL1   C23 1539   6.645   2.971   9.073  0.5507  0.2512 -0.0675
   21CHL1  H23A 1540   6.754   2.964   9.096  0.5780  0.9530  0.0349
   21CHL1  H23B 1541   6.614   2.873   9.031 -0.8733  0.6825 -0.0632
   21CHL1   C24 1542   6.599   3.070   8.971  0.6831  0.1466 -0.0182
   21CHL1  H24A 1543   6.489   3.070   8.955  0.8458 -0.7317 -1.3340
   21CHL1  H24B 1544   6.630   3.174   8.995  0.8758  0.1867 -0.4223
   21CHL1   C25 1545   6.654   3.050   8.823 -0.6730 -0.2484 -0.6206
   21CHL1   H25 1546   6.600   3.122   8.757 -1.4556  0.1375  0.4056
   21CHL1   C26 1547   6.802   3.081   8.829  0.4126 -0.4512 -0.1673
   21CHL1  H26A 1548   6.812   3.189   8.804 -1.0183 -0.2510  0.0299
   21CHL1  H26B 1549   6.850   3.057   8.926  1.9276  2.6509 -0.0075
   21CHL1  H26C 1550   6.855   3.022   8.751  1.0501 -0.6437  0.4065
   21CHL1   C27 1551   6.634   2.908   8.768  0.0003 -0.3943 -0.1140
   21CHL1  H27A 1552   6.530   2.872   8.785  0.0524 -0.2854  0.4535
   21CHL1  H27B 1553   6.653   2.913   8.658 -0.3587  0.3343 -0.1450
   21CHL1  H27C 1554   6.713   2.841   8.807  0.6209  0.3068 -0.1642
   22CHL1    C3 1555   0.405   0.696  10.028  0.3269 -0.0989  1.0527
   22CHL1    H3 1556   0.483   0.775  10.025 -1.0787  1.3321  0.9448
   22CHL1    O3 1557   0.384   0.641  10.155 -0.0042 -0.3614  0.1524
   22CHL1   H3' 1558   0.358   0.714  10.211 -1.2617  1.5525 -2.6975
   22CHL1    C4 1559   0.274   0.762   9.973  0.2774  0.1576  0.0352
   22CHL1   H4A 1560   0.191   0.689   9.970  1.8060 -1.6372 -1.2448
   22CHL1   H4B 1561   0.235   0.835  10.047 -0.5649 -1.0969  0.8711
   22CHL1    C5 1562   0.302   0.825   9.836 -0.6782 -0.0933  0.6647
   22CHL1    C6 1563   0.299   0.952   9.817 -0.3043  0.5347  0.1843
   22CHL1    H6 1564   0.272   1.022   9.897  0.3823  1.6044 -0.4767
   22CHL1    C7 1565   0.306   1.015   9.676  0.1614  0.6698 -0.3464
   22CHL1   H7A 1566   0.215   1.077   9.655 -2.1416 -2.3889 -0.0982
   22CHL1   H7B 1567   0.398   1.076   9.664 -1.4697  3.2328 -0.8415
   22CHL1    C8 1568   0.318   0.915   9.558  0.3778 -0.1869  0.3867
   22CHL1    H8 1569   0.213   0.883   9.543 -0.1447  1.2773  0.7095
   22CHL1   C14 1570   0.369   0.974   9.424  0.0887  0.3394 -0.0332
   22CHL1   H14 1571   0.468   1.023   9.433 -0.4790  2.0319 -2.1481
   22CHL1   C15 1572   0.276   1.083   9.367  1.2964 -0.6303 -0.1682
   22CHL1  H15A 1573   0.172   1.045   9.372  1.0387  0.2201  1.8755
   22CHL1  H15B 1574   0.271   1.173   9.432  2.1367 -1.7809  1.5837
   22CHL1   C16 1575   0.305   1.097   9.219 -0.4386  0.4216 -0.1501
   22CHL1  H16A 1576   0.218   1.102   9.149  1.0254  1.6853 -1.9881
   22CHL1  H16B 1577   0.361   1.190   9.196  1.8269 -0.2855  2.0262
   22CHL1   C17 1578   0.402   0.972   9.189  0.4089 -0.7114 -0.6426
   22CHL1   H17 1579   0.502   1.019   9.180 -0.1649  0.9790  1.0571
   22CHL1   C13 1580   0.383   0.878   9.306  0.3096 -0.2626 -0.2925
   22CHL1   C18 1581   0.252   0.797   9.270 -0.4838 -0.1961 -0.7663
   22CHL1  H18A 1582   0.280   0.692   9.245  0.6872 -0.0713 -0.0522
   22CHL1  H18B 1583   0.189   0.790   9.362  2.1507  1.6382  1.3403
   22CHL1  H18C 1584   0.183   0.846   9.199 -0.1145 -1.5671 -2.1298
   22CHL1   C12 1585   0.495   0.783   9.343 -0.1914 -1.2677 -0.4673
   22CHL1  H12A 1586   0.509   0.706   9.265 -2.2714 -2.2928  0.1081
   22CHL1  H12B 1587   0.594   0.827   9.370 -0.3777 -0.9336 -0.3125
   22CHL1   C11 1588   0.457   0.709   9.478  0.0649  0.3739 -1.1270
   22CHL1  H11A 1589   0.383   0.634   9.443  2.5746 -3.0845  0.4315
   22CHL1  H11B 1590   0.542   0.654   9.523  0.5802  0.2521 -2.2111
   22CHL1    C9 1591   0.405   0.798   9.594  0.2545 -0.1017 -0.6729
   22CHL1    H9 1592   0.494   0.862   9.612 -0.5352  0.8494 -0.0479
   22CHL1   C10 1593   0.348   0.726   9.722  0.9487  0.3191 -0.3079
   22CHL1   C19 1594   0.241   0.619   9.686 -0.7319  0.2289  0.0733
   22CHL1  H19A 1595   0.284   0.529   9.637 -1.6035 -0.8136  1.1810
   22CHL1  H19B 1596   0.200   0.568   9.775 -1.7855 -0.3024 -0.6908
   22CHL1  H19C 1597   0.156   0.656   9.624 -2.4390 -5.0522 -1.3008
   22CHL1    C1 1598   0.471   0.641   9.780 -0.2344  0.2094 -0.5894
   22CHL1   H1A 1599   0.500   0.552   9.721 -1.8766 -1.8375  1.5535
   22CHL1   H1B 1600   0.554   0.715   9.786 -0.8857  1.0671 -1.6139
   22CHL1    C2 1601   0.452   0.592   9.918 -0.2305  0.1561 -0.5078
   22CHL1   H2A 1602   0.537   0.533   9.958  0.0801  0.4930 -0.6630
   22CHL1   H2B 1603   0.364   0.525   9.928  0.7143 -0.8958  1.2518
   22CHL1   C20 1604   0.379   0.912   9.043  0.3176  0.6143 -0.9422
   22CHL1   H20 1605   0.272   0.891   9.025  0.4229  0.1736 -1.0557
   22CHL1   C21 1606   0.473   0.790   9.028 -0.9884  0.5610 -0.0462
   22CHL1  H21A 1607   0.492   0.760   8.923  1.7549 -1.2738  0.8853
   22CHL1  H21B 1608   0.436   0.701   9.082 -0.4199  0.6322  0.4797
   22CHL1  H21C 1609   0.570   0.814   9.077 -0.6960  1.1713 -0.8988
   22CHL1   C22 1610   0.408   1.020   8.935 -0.0540 -0.2814 -0.3051
   22CHL1  H22A 1611   0.340   1.106   8.947  3.1578  2.6233 -1.3300
   22CHL1  H22B 1612   0.511   1.062   8.942 -0.8778  1.7695  0.1472
   22CHL1   C23 1613   0.375   0.965   8.796 -0.8238 -0.3855 -0.1917
   22CHL1  H23A 1614   0.464   0.900   8.781 -1.3103 -1.0375 -0.3415
   22CHL1  H23B 1615   0.280   0.906   8.788 -0.4391 -1.1224  0.4778
   22CHL1   C24 1616   0.369   1.075   8.693 -0.5811 -0.4221  0.4213
   22CHL1  H24A 1617   0.285   1.144   8.715  1.2236  2.5749 -1.4202
   22CHL1  H24B 1618   0.460   1.134   8.716 -1.2109 -0.0392  2.0473
   22CHL1   C25 1619   0.371   1.025   8.548  0.0143 -0.3704  0.0899
   22CHL1   H25 1620   0.466   0.971   8.527  0.5488  0.9165 -0.9542
   22CHL1   C26 1621   0.246   0.936   8.528 -0.4635 -0.4781  0.1383
   22CHL1  H26A 1622   0.153   0.987   8.562 -0.6613 -1.1877  0.6814
   22CHL1  H26B 1623   0.239   0.916   8.419 -1.4203  0.7338 -0.0398
   22CHL1  H26C 1624   0.249   0.837   8.578  0.3985  0.0102  1.0980
   22CHL1   C27 1625   0.367   1.149   8.443  0.8426 -0.5196  0.0102
   22CHL1  H27A 1626   0.358   1.105   8.342 -1.1039 -0.1376 -0.0101
   22CHL1  H27B 1627   0.279   1.214   8.463  0.3710 -0.5752 -1.7694
   22CHL1  H27C 1628   0.461   1.207   8.453 -0.1772  1.3643 -0.9166
   23CHL1    C3 1629   2.982   4.733  10.242  0.2188 -0.2961 -0.0210
   23CHL1    H3 1630   2.924   4.827  10.240 -0.9963 -1.0058  0.7793
   23CHL1    O3 1631   2.989   4.697  10.375 -0.5273 -0.2465  0.1999
   23CHL1   H3' 1632   3.049   4.622  10.374  0.9318  0.8633 -1.5503
   23CHL1    C4 1633   2.927   4.613  10.171  0.3260  0.3359 -0.6918
   23CHL1   H4A 1634   2.995   4.530  10.202  3.3458  2.7286 -0.4846
   23CHL1   H4B 1635   2.823   4.610  10.209  0.3917  3.3979 -0.0441
   23CHL1    C5 1636   2.919   4.631  10.025 -0.2753  0.5951 -0.0952
   23CHL1    C6 1637   2.800   4.642   9.966  0.3980 -0.2373  0.2648
   23CHL1    H6 1638   2.713   4.634  10.033  0.0230 -0.8849 -0.2777
   23CHL1    C7 1639   2.789   4.667   9.818  0.1562  0.0649 -0.3646
   23CHL1   H7A 1640   2.710   4.597   9.783  1.1908 -1.0032 -0.6444
   23CHL1   H7B 1641   2.756   4.771   9.798 -1.3966 -0.7039 -2.0769
   23CHL1    C8 1642   2.923   4.635   9.747  0.5564  0.2738 -0.7893
   23CHL1    H8 1643   2.943   4.526   9.745  2.5925  0.5509  0.8254
   23CHL1   C14 1644   2.907   4.688   9.604 -0.2438  0.0729 -0.2064
   23CHL1   H14 1645   2.884   4.797   9.609 -1.8684 -0.2773  0.6917
   23CHL1   C15 1646   2.800   4.634   9.505 -0.1873  0.2981  0.5063
   23CHL1  H15A 1647   2.804   4.523   9.508  1.2436  0.3408  1.0057
   23CHL1  H15B 1648   2.694   4.665   9.519 -0.3938 -0.0555 -0.1918
   23CHL1   C16 1649   2.840   4.679   9.367 -0.0049 -0.0461 -0.3781
   23CHL1  H16A 1650   2.847   4.594   9.296 -2.0497  1.2675 -2.3016
   23CHL1  H16B 1651   2.776   4.758   9.322 -0.6065 -0.0578  0.4460
   23CHL1   C17 1652   2.987   4.729   9.379 -0.7132  0.3051  0.0389
   23CHL1   H17 1653   2.970   4.838   9.382 -0.7839  0.2894  2.9053
   23CHL1   C13 1654   3.035   4.672   9.511  0.4873 -0.7173  0.0698
   23CHL1   C18 1655   3.089   4.528   9.502  0.3296  0.0545  0.4246
   23CHL1  H18A 1656   3.193   4.513   9.466  0.0255 -0.0533 -0.4265
   23CHL1  H18B 1657   3.080   4.476   9.600 -1.0934  0.9116  0.7747
   23CHL1  H18C 1658   3.012   4.479   9.438 -0.3824 -1.0653  2.0563
   23CHL1   C12 1659   3.151   4.754   9.581  0.4797  0.1070 -0.3877
   23CHL1  H12A 1660   3.242   4.744   9.518  1.1608  1.5308  0.3407
   23CHL1  H12B 1661   3.124   4.862   9.582  0.1972  0.0699  2.5166
   23CHL1   C11 1662   3.167   4.711   9.728 -0.1367 -0.0589  0.6351
   23CHL1  H11A 1663   3.227   4.618   9.732 -1.5017 -0.9233  1.7947
   23CHL1  H11B 1664   3.236   4.787   9.771 -1.6415  2.2971 -0.8659
   23CHL1    C9 1665   3.037   4.714   9.811  0.0479 -0.3070  0.7673
   23CHL1    H9 1666   3.016   4.821   9.830 -0.1726 -0.0554 -0.8018
   23CHL1   C10 1667   3.056   4.667   9.956  0.2128 -0.0919 -0.2832
   23CHL1   C19 1668   3.154   4.544   9.958  0.1359  0.4487 -0.0624
   23CHL1  H19A 1669   3.120   4.456   9.899  1.7400 -0.2150 -0.0564
   23CHL1  H19B 1670   3.257   4.564   9.922  0.4137 -1.7088 -0.6325
   23CHL1  H19C 1671   3.152   4.515  10.065  0.4487  1.0369  0.1073
   23CHL1    C1 1672   3.124   4.776  10.041  0.0033  0.1603 -0.5905
   23CHL1   H1A 1673   3.228   4.785  10.004  0.9664 -0.4686  1.7589
   23CHL1   H1B 1674   3.086   4.877  10.015  1.2901  0.6404 -0.6845
   23CHL1    C2 1675   3.129   4.757  10.195  0.6945 -0.4273 -0.5937
   23CHL1   H2A 1676   3.174   4.851  10.234  0.7865 -0.3337 -0.9270
   23CHL1   H2B 1677   3.189   4.671  10.232  0.0883 -0.8439 -0.5611
   23CHL1   C20 1678   3.076   4.710   9.252 -0.7645  0.2587 -0.5590
   23CHL1   H20 1679   3.121   4.609   9.259 -0.6379  0.2403 -1.4977
   23CHL1   C21 1680   3.187   4.810   9.263 -0.0868  0.2983 -0.2216
   23CHL1  H21A 1681   3.150   4.912   9.282  0.9438  0.3961  1.4577
   23CHL1  H21B 1682   3.244   4.808   9.168 -0.5019 -1.7677 -0.4820
   23CHL1  H21C 1683   3.262   4.780   9.340 -2.1279  0.7414  2.0315
   23CHL1   C22 1684   3.001   4.737   9.121  0.0055 -0.5421 -0.0229
   23CHL1  H22A 1685   2.920   4.661   9.119  1.8877 -2.6681  0.6361
   23CHL1  H22B 1686   2.959   4.839   9.138  1.1570 -0.0023 -0.3628
   23CHL1   C23 1687   3.074   4.738   8.985  0.5237 -0.1756  0.5303
   23CHL1  H23A 1688   3.144   4.824   8.982  1.9619 -1.1947  2.4363
   23CHL1  H23B 1689   3.140   4.648   8.987 -0.1794 -0.6921  0.7234
   23CHL1   C24 1690   2.977   4.725   8.864 -0.3981 -0.3196  0.7072
   23CHL1  H24A 1691   2.889   4.660   8.888 -1.2220 -0.2132 -1.7591
   23CHL1  H24B 1692   2.948   4.830   8.843  0.9077  0.0473  0.6622
   23CHL1   C25 1693   3.040   4.672   8.733  0.7401  0.4174  0.1613
   23CHL1   H25 1694   3.116   4.747   8.704  0.9495 -0.0252 -0.4697
   23CHL1   C26 1695   3.099   4.528   8.749  0.4087  0.4458 -0.3189
   23CHL1  H26A 1696   3.140   4.480   8.658 -0.9863  1.3426 -1.4701
   23CHL1  H26B 1697   3.162   4.513   8.839 -2.6214 -0.1430  1.8483
   23CHL1  H26C 1698   3.017   4.459   8.778  1.2432  0.0753  1.3204
   23CHL1   C27 1699   2.922   4.674   8.627 -0.0979  0.5244  0.5484
   23CHL1  H27A 1700   2.876   4.775   8.620  0.5121  0.7431 -0.5652
   23CHL1  H27B 1701   2.958   4.644   8.526 -1.1543 -1.9257  0.8242
   23CHL1  H27C 1702   2.849   4.604   8.672  1.5995 -1.6496  0.0642
   24CHL1    C3 1703   4.325   2.111  10.104 -0.1823 -0.2595 -0.6887
   24CHL1    H3 1704   4.354   2.218  10.111 -2.5643  0.3735  0.9932
   24CHL1    O3 1705   4.283   2.058  10.229 -0.3118  0.1042  0.2574
   24CHL1   H3' 1706   4.354   2.001  10.260 -0.5729  0.3770  1.4299
   24CHL1    C4 1707   4.213   2.104   9.995  0.5580 -0.0758 -0.1854
   24CHL1   H4A 1708   4.179   1.998  10.002  1.3508 -0.5669 -2.7071
   24CHL1   H4B 1709   4.137   2.175  10.034  0.3863  0.6725 -1.8204
   24CHL1    C5 1710   4.261   2.135   9.855 -0.0956 -0.3876 -0.5673
   24CHL1    C6 1711   4.194   2.223   9.776  0.4419 -0.0840 -0.1601
   24CHL1    H6 1712   4.107   2.276   9.816 -0.1451 -0.6568 -0.6622
   24CHL1    C7 1713   4.220   2.247   9.631  0.2976  0.2501  0.1730
   24CHL1   H7A 1714   4.126   2.230   9.574  0.7657 -0.8894 -0.2909
   24CHL1   H7B 1715   4.262   2.349   9.613 -0.3277  0.7011  1.1863
   24CHL1    C8 1716   4.313   2.144   9.569 -0.0569  0.1425 -0.2050
   24CHL1    H8 1717   4.242   2.062   9.544  0.7688  0.2239 -3.1701
   24CHL1   C14 1718   4.375   2.197   9.444  0.0557  0.0567 -0.6182
   24CHL1   H14 1719   4.451   2.273   9.471  0.7227 -0.7707 -0.1239
   24CHL1   C15 1720   4.291   2.285   9.347  0.0847  0.6846 -0.3106
   24CHL1  H15A 1721   4.185   2.250   9.353  0.1026 -0.2722 -3.6482
   24CHL1  H15B 1722   4.288   2.394   9.368 -0.8673  0.5432  0.3412
   24CHL1   C16 1723   4.362   2.261   9.213 -0.2009 -0.1802 -0.0594
   24CHL1  H16A 1724   4.295   2.203   9.146  1.9409 -1.1351 -1.4694
   24CHL1  H16B 1725   4.397   2.357   9.170 -1.3347 -0.2459 -1.1758
   24CHL1   C17 1726   4.486   2.174   9.240  0.5673  0.2224 -0.3411
   24CHL1   H17 1727   4.562   2.245   9.278  0.2529  0.3027  0.1476
   24CHL1   C13 1728   4.459   2.091   9.367  0.0220  0.6315 -0.7265
   24CHL1   C18 1729   4.385   1.961   9.332  0.0655  0.4943  0.0454
   24CHL1  H18A 1730   4.454   1.885   9.291  1.1884  0.3440  2.0931
   24CHL1  H18B 1731   4.327   1.916   9.416 -1.4433  1.6632 -0.3212
   24CHL1  H18C 1732   4.306   1.973   9.254 -0.0067 -0.4070 -0.0299
   24CHL1   C12 1733   4.580   2.063   9.460 -0.0776  0.1279  0.2686
   24CHL1  H12A 1734   4.651   1.987   9.420  0.0107  0.5284 -0.3450
   24CHL1  H12B 1735   4.639   2.156   9.471  1.0786 -0.5323 -0.1598
   24CHL1   C11 1736   4.540   2.006   9.601  0.1953 -0.1056  0.0960
   24CHL1  H11A 1737   4.508   1.899   9.596  0.1793 -0.0841 -0.2692
   24CHL1  H11B 1738   4.626   2.002   9.671  1.3057  0.7568 -1.1832
   24CHL1    C9 1739   4.428   2.097   9.666 -0.8367  0.8256  0.6530
   24CHL1    H9 1740   4.486   2.191   9.678  3.5338 -1.2346 -2.0642
   24CHL1   C10 1741   4.378   2.045   9.804 -0.3827  0.0993  1.4530
   24CHL1   C19 1742   4.329   1.897   9.789 -0.0178 -0.3599 -0.8237
   24CHL1  H19A 1743   4.417   1.834   9.768  0.2109 -0.5322  0.5398
   24CHL1  H19B 1744   4.272   1.856   9.875 -0.5954  3.9025  1.0804
   24CHL1  H19C 1745   4.260   1.900   9.702 -0.5125 -1.3611 -0.4809
   24CHL1    C1 1746   4.488   2.063   9.912  0.2961  0.1388  0.3255
   24CHL1   H1A 1747   4.582   2.009   9.888  1.0475  1.2980  0.5605
   24CHL1   H1B 1748   4.519   2.169   9.905 -2.2868  0.8556 -2.6965
   24CHL1    C2 1749   4.442   2.018  10.048  0.2461 -0.3670 -0.4844
   24CHL1   H2A 1750   4.522   2.026  10.125  1.0088  1.6529 -1.4277
   24CHL1   H2B 1751   4.400   1.915  10.041 -0.9858  0.0945 -0.1745
   24CHL1   C20 1752   4.559   2.101   9.121 -0.7534 -0.3087 -0.2255
   24CHL1   H20 1753   4.541   1.992   9.129  1.0908 -0.5692  1.0746
   24CHL1   C21 1754   4.712   2.120   9.129 -0.4829  1.0579 -0.5329
   24CHL1  H21A 1755   4.744   2.096   9.232  1.3005  0.4117 -1.2010
   24CHL1  H21B 1756   4.739   2.226   9.109  0.6833  0.5932 -1.5526
   24CHL1  H21C 1757   4.772   2.058   9.059 -1.4023  1.2505 -1.5190
   24CHL1   C22 1758   4.501   2.151   8.992 -0.1005  0.0605 -0.1034
   24CHL1  H22A 1759   4.391   2.132   8.982  0.0336 -0.1320 -1.3499
   24CHL1  H22B 1760   4.524   2.259   8.994  0.3513 -0.0411  0.2488
   24CHL1   C23 1761   4.573   2.091   8.863  0.4877  0.1292 -0.5906
   24CHL1  H23A 1762   4.671   2.142   8.853 -1.3150  3.8697 -0.8593
   24CHL1  H23B 1763   4.599   1.984   8.878 -1.0738 -0.5007 -1.9879
   24CHL1   C24 1764   4.484   2.114   8.743 -0.5301  0.3865 -0.1241
   24CHL1  H24A 1765   4.389   2.064   8.772  1.0899 -2.7608  0.1857
   24CHL1  H24B 1766   4.466   2.222   8.726  0.1884  0.5931  0.3734
   24CHL1   C25 1767   4.544   2.057   8.606 -0.2821 -0.0743  0.2791
   24CHL1   H25 1768   4.575   1.952   8.624 -1.0581 -0.1153  1.4856
   24CHL1   C26 1769   4.436   2.065   8.495  0.0304 -0.1685  0.4073
   24CHL1  H26A 1770   4.484   2.013   8.409  3.5426 -0.3877  2.3297
   24CHL1  H26B 1771   4.344   2.005   8.514 -0.1614 -0.9172 -2.4198
   24CHL1  H26C 1772   4.425   2.175   8.486  1.8762  0.0388  0.3193
   24CHL1   C27 1773   4.669   2.134   8.559 -0.5236  0.4849 -0.4076
   24CHL1  H27A 1774   4.762   2.124   8.619  0.0866  2.6077 -0.8967
   24CHL1  H27B 1775   4.694   2.095   8.458  0.6695 -0.8192  0.3685
   24CHL1  H27C 1776   4.643   2.242   8.550 -0.4679  0.5883  0.5961
   25CHL1    C3 1777   5.434   5.283  10.280 -0.1142 -1.0607  0.1098
   25CHL1    H3 1778   5.359   5.360  10.251  1.1702  0.0735 -0.3268
   25CHL1    O3 1779   5.417   5.248  10.418 -0.2676 -0.0850 -0.1616
   25CHL1   H3' 1780   5.408   5.333  10.461 -1.1631 -0.0559 -0.3914
   25CHL1    C4 1781   5.401   5.166  10.191 -0.1858  0.6811 -0.3159
   25CHL1   H4A 1782   5.457   5.077  10.226  0.1745  0.7288 -0.7570
   25CHL1   H4B 1783   5.296   5.139  10.217  0.6498 -0.7175  1.8563
   25CHL1    C5 1784   5.430   5.178  10.045 -0.0864 -0.4803  0.3297
   25CHL1    C6 1785   5.331   5.151   9.958 -0.5020  0.0297  0.0993
   25CHL1    H6 1786   5.244   5.105  10.008  0.1987  0.1168  1.4609
   25CHL1    C7 1787   5.347   5.166   9.808  0.4009  0.3326 -0.4577
   25CHL1   H7A 1788   5.314   5.072   9.759 -1.4746 -0.6609  2.4268
   25CHL1   H7B 1789   5.287   5.254   9.777  0.8053  0.4640 -0.8729
   25CHL1    C8 1790   5.499   5.192   9.771 -0.2354  0.0296 -0.4914
   25CHL1    H8 1791   5.548   5.092   9.774  1.4950  0.6485 -3.6137
   25CHL1   C14 1792   5.515   5.247   9.631  0.6611 -0.0618  0.9651
   25CHL1   H14 1793   5.445   5.333   9.633  0.0584 -0.5264  3.3670
   25CHL1   C15 1794   5.452   5.161   9.514 -0.3158  0.0949 -0.8199
   25CHL1  H15A 1795   5.482   5.054   9.511 -0.2864  0.1148 -1.6957
   25CHL1  H15B 1796   5.342   5.172   9.517 -0.2909  0.1206  0.0840
   25CHL1   C16 1797   5.504   5.241   9.388  0.5749  0.0726 -0.8474
   25CHL1  H16A 1798   5.533   5.158   9.321 -2.7339 -2.8479  0.9489
   25CHL1  H16B 1799   5.421   5.291   9.333 -1.8667 -2.2262  0.4704
   25CHL1   C17 1800   5.621   5.328   9.432  0.0633  0.6078 -0.3684
   25CHL1   H17 1801   5.582   5.430   9.449 -3.0339 -0.5124 -0.1175
   25CHL1   C13 1802   5.649   5.288   9.579  0.4043  0.2212  0.2079
   25CHL1   C18 1803   5.736   5.157   9.576 -0.3521  0.5918 -0.6405
   25CHL1  H18A 1804   5.833   5.182   9.529 -1.1509  0.6934 -2.3127
   25CHL1  H18B 1805   5.755   5.126   9.681 -0.1197  1.5586 -0.3900
   25CHL1  H18C 1806   5.690   5.078   9.513  0.5211  0.1373 -0.7209
   25CHL1   C12 1807   5.704   5.399   9.670 -0.8836  0.4042  0.0022
   25CHL1  H12A 1808   5.806   5.433   9.643  0.4309 -2.1635  1.3809
   25CHL1  H12B 1809   5.639   5.489   9.670 -0.5835  0.7378  3.3952
   25CHL1   C11 1810   5.705   5.351   9.822 -0.1303  0.1404  0.1194
   25CHL1  H11A 1811   5.781   5.270   9.833 -1.0868 -0.3883  3.9993
   25CHL1  H11B 1812   5.747   5.435   9.881  2.4102 -0.4141 -0.7356
   25CHL1    C9 1813   5.568   5.294   9.870 -1.5962 -0.7782  0.1505
   25CHL1    H9 1814   5.505   5.385   9.861  2.6291  2.8056  2.6661
   25CHL1   C10 1815   5.565   5.241  10.021 -0.2112  0.3689  1.3560
   25CHL1   C19 1816   5.680   5.134  10.044 -0.0728 -0.0089  0.1987
   25CHL1  H19A 1817   5.778   5.182  10.022 -1.4369  3.3257  0.6871
   25CHL1  H19B 1818   5.673   5.107  10.152 -1.2786 -0.3640  0.0467
   25CHL1  H19C 1819   5.672   5.040   9.986 -1.0721  1.9351 -3.0506
   25CHL1    C1 1820   5.605   5.357  10.113  0.2626 -0.4364 -0.2531
   25CHL1   H1A 1821   5.712   5.377  10.090  0.1845 -1.3098 -1.4643
   25CHL1   H1B 1822   5.532   5.438  10.091 -0.2851 -1.6506 -3.4185
   25CHL1    C2 1823   5.577   5.330  10.268 -0.1422  0.0963 -0.4673
   25CHL1   H2A 1824   5.591   5.415  10.337 -0.2280 -2.0320  2.3373
   25CHL1   H2B 1825   5.650   5.250  10.295  0.8750  0.5466 -1.7601
   25CHL1   C20 1826   5.733   5.337   9.332  0.2353 -0.9306 -0.0949
   25CHL1   H20 1827   5.768   5.237   9.300 -2.1361 -0.9997 -2.8513
   25CHL1   C21 1828   5.863   5.409   9.389 -0.3231  0.5326 -0.3189
   25CHL1  H21A 1829   5.918   5.342   9.460  1.2758  1.9797 -0.1299
   25CHL1  H21B 1830   5.846   5.509   9.433 -0.4226  0.6173 -0.5482
   25CHL1  H21C 1831   5.933   5.430   9.305 -1.7322 -0.3902 -1.7828
   25CHL1   C22 1832   5.681   5.410   9.205  0.6776 -0.7612 -0.1022
   25CHL1  H22A 1833   5.577   5.448   9.214  1.1207  0.4821 -0.0402
   25CHL1  H22B 1834   5.744   5.494   9.169  0.2131  0.4742  1.8081
   25CHL1   C23 1835   5.672   5.310   9.088  0.0354  0.4840  0.0638
   25CHL1  H23A 1836   5.779   5.283   9.071 -0.4569 -1.0761 -0.7403
   25CHL1  H23B 1837   5.610   5.222   9.116 -0.3554  0.2499 -1.4150
   25CHL1   C24 1838   5.609   5.375   8.967  0.1281  0.0234  0.3038
   25CHL1  H24A 1839   5.596   5.297   8.888  1.0746 -1.5844  1.6735
   25CHL1  H24B 1840   5.507   5.413   8.989 -0.2119 -1.9547  2.4459
   25CHL1   C25 1841   5.695   5.470   8.892 -0.0199  0.0360  1.1651
   25CHL1   H25 1842   5.735   5.545   8.964  0.1159  0.3165  0.8026
   25CHL1   C26 1843   5.819   5.410   8.816 -0.0759  0.4798  0.2568
   25CHL1  H26A 1844   5.890   5.495   8.801  1.7040 -0.9088  0.4296
   25CHL1  H26B 1845   5.865   5.338   8.887  1.4116  1.1037 -0.0153
   25CHL1  H26C 1846   5.789   5.375   8.715 -3.6546  1.7272  0.7620
   25CHL1   C27 1847   5.616   5.550   8.791 -0.0964  0.1556 -0.5965
   25CHL1  H27A 1848   5.676   5.626   8.736 -1.8095  1.4549 -0.7782
   25CHL1  H27B 1849   5.581   5.485   8.708 -0.8448  0.2269 -0.3458
   25CHL1  H27C 1850   5.528   5.605   8.832  0.3911 -0.4928  1.4138
   26CHL1    C3 1851   5.830   0.995  10.031  0.1034  0.2439 -0.2566
   26CHL1    H3 1852   5.725   0.960  10.035  0.4681 -0.7768  1.3350
   26CHL1    O3 1853   5.895   1.004  10.158  0.0778  0.8449  0.3777
   26CHL1   H3' 1854   5.989   1.001  10.136 -0.3398 -1.3760 -1.4535
   26CHL1    C4 1855   5.918   0.900   9.948  0.5759  0.7155  0.1277
   26CHL1   H4A 1856   6.026   0.923   9.960  0.2750  2.1269  0.3465
   26CHL1   H4B 1857   5.909   0.800   9.995  1.1769  0.6490  0.1044
   26CHL1    C5 1858   5.861   0.901   9.805 -0.1867 -0.2871  0.1189
   26CHL1    C6 1859   5.808   0.792   9.742  0.4276  0.7371 -0.1594
   26CHL1    H6 1860   5.808   0.702   9.806 -0.1779  1.1119  0.3748
   26CHL1    C7 1861   5.754   0.779   9.606  0.6398  0.0649 -0.6426
   26CHL1   H7A 1862   5.789   0.690   9.550  1.2806 -1.5429  2.0803
   26CHL1   H7B 1863   5.644   0.759   9.607  0.7824 -0.7824 -1.4689
   26CHL1    C8 1864   5.772   0.909   9.525  0.4118 -0.4178  0.7944
   26CHL1    H8 1865   5.876   0.922   9.490  0.2400  1.6587  0.9304
   26CHL1   C14 1866   5.677   0.919   9.395  0.4675 -1.0568  0.0148
   26CHL1   H14 1867   5.573   0.921   9.434  0.7586  0.1913  0.7773
   26CHL1   C15 1868   5.691   0.804   9.302  0.4431 -0.1430 -0.4138
   26CHL1  H15A 1869   5.798   0.780   9.288  0.7368  1.5334 -1.2352
   26CHL1  H15B 1870   5.636   0.716   9.343  1.9985 -0.8793  0.1628
   26CHL1   C16 1871   5.627   0.858   9.172  0.2899 -0.0947 -0.8835
   26CHL1  H16A 1872   5.702   0.857   9.090  2.3317  4.0038  0.6487
   26CHL1  H16B 1873   5.533   0.809   9.139 -1.3581  0.7780  2.1502
   26CHL1   C17 1874   5.591   1.005   9.200 -0.5951 -0.2745 -0.1729
   26CHL1   H17 1875   5.489   0.999   9.244 -0.1107  0.5439  1.1105
   26CHL1   C13 1876   5.694   1.045   9.319 -0.0009 -0.0345  0.3720
   26CHL1   C18 1877   5.845   1.063   9.269 -0.1239  0.6153  0.5049
   26CHL1  H18A 1878   5.915   1.080   9.354 -0.6898 -3.4177  2.0082
   26CHL1  H18B 1879   5.879   0.977   9.208 -1.3882 -0.0776  0.7305
   26CHL1  H18C 1880   5.837   1.156   9.209  1.8379  1.0829  0.8848
   26CHL1   C12 1881   5.640   1.157   9.408 -0.9562  0.6538  0.3086
   26CHL1  H12A 1882   5.650   1.251   9.350 -1.4241  0.7734  0.4180
   26CHL1  H12B 1883   5.533   1.137   9.431 -1.0574  0.0958 -0.6232
   26CHL1   C11 1884   5.732   1.163   9.527  0.2447 -0.1547 -0.0061
   26CHL1  H11A 1885   5.829   1.211   9.502  0.6079 -0.0956  1.4161
   26CHL1  H11B 1886   5.678   1.226   9.600 -2.4887 -0.0922 -1.9478
   26CHL1    C9 1887   5.753   1.033   9.610 -0.2190 -0.1001  0.1501
   26CHL1    H9 1888   5.650   1.010   9.645  0.3697 -4.4682 -0.5289
   26CHL1   C10 1889   5.841   1.038   9.734  0.5616  0.7269  0.2358
   26CHL1   C19 1890   5.973   1.087   9.690  0.1346 -0.2693  0.1466
   26CHL1  H19A 1891   6.045   1.069   9.772 -0.9422 -1.5470  0.8487
   26CHL1  H19B 1892   6.019   1.024   9.610  2.2013  1.1007  0.1786
   26CHL1  H19C 1893   5.976   1.197   9.675  0.7749  0.0176  2.0848
   26CHL1    C1 1894   5.774   1.134   9.834 -0.6313  0.2098  0.0986
   26CHL1   H1A 1895   5.781   1.234   9.785  2.8938 -0.6769 -1.5951
   26CHL1   H1B 1896   5.667   1.106   9.841 -1.1929  1.4721 -2.1558
   26CHL1    C2 1897   5.837   1.134   9.971 -0.9551 -0.0757  0.4233
   26CHL1   H2A 1898   5.798   1.217  10.035 -1.1671  1.4062 -1.5423
   26CHL1   H2B 1899   5.944   1.161   9.960 -0.9672  0.3299  1.1803
   26CHL1   C20 1900   5.582   1.091   9.070  0.2619  0.3852 -0.4537
   26CHL1   H20 1901   5.683   1.120   9.033  0.7199 -0.3085  0.2397
   26CHL1   C21 1902   5.512   1.219   9.111  0.0245  0.1481  0.2250
   26CHL1  H21A 1903   5.425   1.195   9.176  2.2245 -0.3882  3.1591
   26CHL1  H21B 1904   5.460   1.250   9.018  0.1526  0.6916  0.3356
   26CHL1  H21C 1905   5.573   1.298   9.160 -2.6577  2.2192  0.4345
   26CHL1   C22 1906   5.510   1.019   8.952 -0.3806 -0.1832 -0.4843
   26CHL1  H22A 1907   5.527   0.914   8.922  1.7146  0.2035 -0.8687
   26CHL1  H22B 1908   5.404   1.022   8.985 -0.3624  2.9919 -0.3751
   26CHL1   C23 1909   5.512   1.097   8.813  0.0997  0.1408 -0.0085
   26CHL1  H23A 1910   5.421   1.063   8.758  0.5555 -1.1595  0.0310
   26CHL1  H23B 1911   5.495   1.206   8.831 -1.0928  0.1100 -0.8233
   26CHL1   C24 1912   5.635   1.077   8.726 -0.1059 -0.0590  0.2497
   26CHL1  H24A 1913   5.713   1.148   8.762  0.3668 -0.8846  0.8933
   26CHL1  H24B 1914   5.674   0.973   8.732  1.5046  0.5038  0.1498
   26CHL1   C25 1915   5.625   1.111   8.574  0.2490 -0.8015 -0.3453
   26CHL1   H25 1916   5.563   1.025   8.543 -2.0376 -0.0500  1.8421
   26CHL1   C26 1917   5.538   1.236   8.533 -0.2224  0.4773 -0.2032
   26CHL1  H26A 1918   5.575   1.324   8.590 -0.2569 -0.3088  1.0821
   26CHL1  H26B 1919   5.548   1.252   8.423 -2.5085  1.6139 -0.3062
   26CHL1  H26C 1920   5.430   1.218   8.552 -0.1094 -0.5043 -0.4188
   26CHL1   C27 1921   5.760   1.107   8.501  0.1942  0.6369  0.3320
   26CHL1  H27A 1922   5.787   1.000   8.505  0.7592  0.7845  0.6689
   26CHL1  H27B 1923   5.754   1.157   8.401  0.7455  1.0511  0.4995
   26CHL1  H27C 1924   5.837   1.164   8.558 -0.4250  2.0350 -0.1798
   27CHL1    C3 1925   6.587   4.649  10.183  0.3423 -0.2623  0.3635
   27CHL1    H3 1926   6.618   4.547  10.151 -1.3703 -0.4931 -0.7460
   27CHL1    O3 1927   6.603   4.669  10.321  0.2059  0.1913 -0.2308
   27CHL1   H3' 1928   6.597   4.764  10.333  0.0167  0.0218  1.1774
   27CHL1    C4 1929   6.678   4.754  10.109 -0.8066  0.1838 -0.0177
   27CHL1   H4A 1930   6.665   4.859  10.144 -2.3343  0.0748 -0.1988
   27CHL1   H4B 1931   6.784   4.740  10.141 -0.5095  1.3068 -0.4612
   27CHL1    C5 1932   6.657   4.767   9.959 -0.9995  0.0937  0.2807
   27CHL1    C6 1933   6.763   4.747   9.880 -0.5446  0.0823  0.7619
   27CHL1    H6 1934   6.856   4.729   9.936 -0.3962  1.7014  1.0787
   27CHL1    C7 1935   6.759   4.753   9.733  0.2121 -0.3517  0.0940
   27CHL1   H7A 1936   6.835   4.818   9.684 -1.4597  0.0425 -2.1525
   27CHL1   H7B 1937   6.780   4.651   9.694  0.2879 -0.0512 -0.6710
   27CHL1    C8 1938   6.619   4.789   9.668 -0.4209  0.0782  0.1432
   27CHL1    H8 1939   6.603   4.899   9.663  2.6553  0.5636 -1.1302
   27CHL1   C14 1940   6.615   4.736   9.521  0.0700  0.5000 -0.1326
   27CHL1   H14 1941   6.626   4.627   9.535 -1.7875  0.2514 -0.3688
   27CHL1   C15 1942   6.722   4.774   9.422 -0.5159  0.2702 -1.0390
   27CHL1  H15A 1943   6.736   4.882   9.402 -0.0062  0.3885 -0.0711
   27CHL1  H15B 1944   6.816   4.729   9.459 -0.2320  1.8293  0.2122
   27CHL1   C16 1945   6.669   4.713   9.289  0.6102  0.6001  0.8051
   27CHL1  H16A 1946   6.681   4.796   9.216  1.4681 -0.6782 -0.5711
   27CHL1  H16B 1947   6.722   4.623   9.252 -1.0395 -0.2153  0.3109
   27CHL1   C17 1948   6.514   4.687   9.309  0.7558 -0.4523 -0.8398
   27CHL1   H17 1949   6.502   4.580   9.333 -0.8152 -0.2523 -0.6025
   27CHL1   C13 1950   6.488   4.755   9.445  0.5855 -0.2064 -0.1282
   27CHL1   C18 1951   6.472   4.902   9.412  0.3148  0.1755  0.9786
   27CHL1  H18A 1952   6.489   4.974   9.495  1.1636  1.4962 -0.2935
   27CHL1  H18B 1953   6.543   4.944   9.337  0.8226 -0.5274  1.0518
   27CHL1  H18C 1954   6.374   4.918   9.363  2.5704  1.9342 -3.5779
   27CHL1   C12 1955   6.369   4.705   9.537  0.9054  0.2688 -0.0894
   27CHL1  H12A 1956   6.269   4.721   9.492  1.4261 -0.0479 -1.4419
   27CHL1  H12B 1957   6.390   4.596   9.548 -0.2749 -0.0686 -0.9667
   27CHL1   C11 1958   6.368   4.766   9.680 -0.3037  0.0043  0.1646
   27CHL1  H11A 1959   6.368   4.877   9.681 -0.7435  0.0215 -0.7166
   27CHL1  H11B 1960   6.281   4.715   9.727 -0.0863  0.5755  1.2401
   27CHL1    C9 1961   6.503   4.732   9.754  0.2279  0.0397 -0.1728
   27CHL1    H9 1962   6.517   4.621   9.754  0.8549  0.0819  1.7858
   27CHL1   C10 1963   6.512   4.773   9.906 -0.1014 -0.1718  0.8837
   27CHL1   C19 1964   6.459   4.921   9.918  0.1751  1.0227 -0.1890
   27CHL1  H19A 1965   6.518   4.972   9.838 -0.3513 -0.3593 -1.5041
   27CHL1  H19B 1966   6.349   4.926   9.900 -0.4918 -0.7197  2.8571
   27CHL1  H19C 1967   6.472   4.955  10.023 -3.2656 -1.8135  1.3839
   27CHL1    C1 1968   6.416   4.685   9.995  0.1942 -0.1093 -0.4386
   27CHL1   H1A 1969   6.315   4.728   9.976 -0.9420 -2.4543 -0.0345
   27CHL1   H1B 1970   6.408   4.588   9.942 -1.0057  0.6006 -1.6375
   27CHL1    C2 1971   6.439   4.676  10.147  0.2505 -0.6638 -0.6571
   27CHL1   H2A 1972   6.367   4.609  10.198 -0.5457  0.8558  0.3202
   27CHL1   H2B 1973   6.408   4.774  10.190 -1.0648 -1.1297 -0.5004
   27CHL1   C20 1974   6.407   4.706   9.195 -0.2192 -0.1315  0.4020
   27CHL1   H20 1975   6.374   4.812   9.190  1.9417  0.6926  2.0061
   27CHL1   C21 1976   6.283   4.615   9.224  0.1847 -0.0007 -0.2612
   27CHL1  H21A 1977   6.325   4.515   9.245 -1.0605 -0.5203 -0.1314
   27CHL1  H21B 1978   6.203   4.609   9.147 -0.8471  0.4722  0.7495
   27CHL1  H21C 1979   6.236   4.640   9.321 -0.7547  2.4584 -1.2572
   27CHL1   C22 1980   6.463   4.680   9.046 -0.5778 -0.2327  0.3230
   27CHL1  H22A 1981   6.558   4.737   9.040  0.7335 -1.9928  2.7556
   27CHL1  H22B 1982   6.490   4.573   9.030 -0.6877 -0.0765 -1.0368
   27CHL1   C23 1983   6.369   4.722   8.936 -0.0401 -0.4556 -0.4169
   27CHL1  H23A 1984   6.265   4.686   8.952 -0.9665  1.6832 -1.2220
   27CHL1  H23B 1985   6.343   4.830   8.935 -0.3594 -0.5335 -1.8931
   27CHL1   C24 1986   6.413   4.694   8.792 -0.4066  0.1713  0.3191
   27CHL1  H24A 1987   6.379   4.775   8.723  1.6330 -1.2147 -2.5114
   27CHL1  H24B 1988   6.522   4.713   8.786 -0.5815  0.9806 -0.4721
   27CHL1   C25 1989   6.404   4.554   8.737 -0.1893 -0.1440  0.0160
   27CHL1   H25 1990   6.475   4.496   8.800 -0.0282  0.6115  0.5384
   27CHL1   C26 1991   6.260   4.498   8.745 -0.1725 -0.5236 -0.1219
   27CHL1  H26A 1992   6.227   4.492   8.852  1.1876 -0.8867  0.2903
   27CHL1  H26B 1993   6.190   4.574   8.703  1.0807  0.6645 -0.1332
   27CHL1  H26C 1994   6.255   4.401   8.692  3.2637 -0.2239 -1.1934
   27CHL1   C27 1995   6.468   4.539   8.598 -0.0501 -0.9700  0.5512
   27CHL1  H27A 1996   6.494   4.432   8.583  0.4208 -0.6404 -1.1384
   27CHL1  H27B 1997   6.399   4.564   8.516 -2.8200  0.1359  3.0347
   27CHL1  H27C 1998   6.557   4.606   8.587  1.2077 -2.2328  2.3906
   28CHL1    C3 1999   4.689   2.483  10.022  0.6613 -0.8609 -0.2239
   28CHL1    H3 2000   4.726   2.378  10.018  0.0650 -1.1134  0.5217
   28CHL1    O3 2001   4.672   2.500  10.159  0.1864 -0.2596 -0.0504
   28CHL1   H3' 2002   4.634   2.588  10.164  0.8307 -0.0091  0.6166
   28CHL1    C4 2003   4.777   2.587   9.959  0.1127  0.0840 -0.6934
   28CHL1   H4A 2004   4.739   2.687   9.988  1.6205 -0.0218  1.9647
   28CHL1   H4B 2005   4.880   2.565   9.994 -0.4000 -2.0458 -0.3417
   28CHL1    C5 2006   4.774   2.569   9.806 -0.6099  0.0163  0.0336
   28CHL1    C6 2007   4.884   2.530   9.740  0.0741  0.6588 -0.3466
   28CHL1    H6 2008   4.978   2.517   9.794  0.5234 -0.0238 -1.2613
   28CHL1    C7 2009   4.884   2.516   9.593  0.1185  0.5425  0.0567
   28CHL1   H7A 2010   4.985   2.546   9.556  0.3231  0.9313  0.9110
   28CHL1   H7B 2011   4.882   2.406   9.576 -1.2681  0.1967  2.1624
   28CHL1    C8 2012   4.766   2.589   9.521 -0.5712 -0.3546  0.2537
   28CHL1    H8 2013   4.777   2.699   9.534 -1.3466  0.1647 -2.6992
   28CHL1   C14 2014   4.771   2.546   9.376  0.4999 -0.3527 -0.5205
   28CHL1   H14 2015   4.760   2.436   9.378  1.3093 -0.4229  1.4118
   28CHL1   C15 2016   4.904   2.566   9.294 -0.2012 -0.0768  0.3165
   28CHL1  H15A 2017   4.935   2.670   9.317 -2.2125  0.2433  1.9301
   28CHL1  H15B 2018   4.976   2.489   9.328 -0.2808 -1.1552 -1.7817
   28CHL1   C16 2019   4.858   2.554   9.148  0.5812 -0.9338 -0.6341
   28CHL1  H16A 2020   4.911   2.622   9.079  0.0483  0.7353  0.5285
   28CHL1  H16B 2021   4.893   2.456   9.110  1.0619 -0.7898 -0.5641
   28CHL1   C17 2022   4.699   2.555   9.153  0.0306 -0.4171 -0.5060
   28CHL1   H17 2023   4.674   2.447   9.166  1.2526 -0.7822 -1.0553
   28CHL1   C13 2024   4.662   2.611   9.291 -0.1582  0.6332  0.0870
   28CHL1   C18 2025   4.666   2.765   9.284 -0.5806  0.5362 -0.2772
   28CHL1  H18A 2026   4.579   2.791   9.219 -1.2940  1.0674  0.8632
   28CHL1  H18B 2027   4.656   2.811   9.384 -0.4254  0.4997 -0.2461
   28CHL1  H18C 2028   4.755   2.803   9.229  1.9273 -0.9596  2.4916
   28CHL1   C12 2029   4.524   2.566   9.352  0.6104 -0.3968  0.0404
   28CHL1  H12A 2030   4.436   2.608   9.299 -0.0076 -0.8316  0.6926
   28CHL1  H12B 2031   4.515   2.455   9.353 -1.5938 -0.2661  0.1200
   28CHL1   C11 2032   4.523   2.608   9.501  0.1659  0.3257  0.2192
   28CHL1  H11A 2033   4.527   2.719   9.505 -0.4671  0.3239  1.2411
   28CHL1  H11B 2034   4.422   2.578   9.537 -0.1625 -1.0979 -1.7397
   28CHL1    C9 2035   4.638   2.545   9.587 -0.6004 -0.1654  0.8605
   28CHL1    H9 2036   4.630   2.434   9.584  0.9305 -0.3348  1.9303
   28CHL1   C10 2037   4.638   2.580   9.738 -0.3085 -0.5215  0.1843
   28CHL1   C19 2038   4.576   2.723   9.761  0.6431 -0.1234  0.7186
   28CHL1  H19A 2039   4.591   2.773   9.859 -1.4980  0.7340  0.6585
   28CHL1  H19B 2040   4.617   2.794   9.686 -2.8738  0.8186 -0.5129
   28CHL1  H19C 2041   4.468   2.728   9.738  0.6595 -0.2247  0.6201
   28CHL1    C1 2042   4.547   2.473   9.810 -0.0399 -0.7194 -0.0656
   28CHL1   H1A 2043   4.445   2.477   9.767 -0.6614 -2.0976  1.2073
   28CHL1   H1B 2044   4.587   2.371   9.791  1.5451  0.2035 -2.0854
   28CHL1    C2 2045   4.548   2.489   9.967 -0.1765  0.3349  0.0821
   28CHL1   H2A 2046   4.479   2.407   9.998 -2.0726  1.7674 -0.1955
   28CHL1   H2B 2047   4.503   2.585  10.000 -1.2947 -0.0486 -0.2566
   28CHL1   C20 2048   4.634   2.606   9.023  0.2403 -0.3639 -0.1337
   28CHL1   H20 2049   4.622   2.716   9.020 -0.7252 -0.4361  0.6821
   28CHL1   C21 2050   4.491   2.547   9.004  0.6183  0.5407  0.1232
   28CHL1  H21A 2051   4.485   2.465   8.931 -0.9651  0.6084  0.1304
   28CHL1  H21B 2052   4.427   2.626   8.959 -0.0849 -0.1810 -0.1626
   28CHL1  H21C 2053   4.449   2.531   9.106 -2.0118  3.3953 -0.3264
   28CHL1   C22 2054   4.718   2.574   8.897 -0.5380 -0.9843  0.8783
   28CHL1  H22A 2055   4.810   2.636   8.892 -0.6120 -0.8799  0.7993
   28CHL1  H22B 2056   4.751   2.469   8.907 -0.6978 -1.2495 -1.0001
   28CHL1   C23 2057   4.665   2.623   8.757 -0.0373 -0.2420  0.1031
   28CHL1  H23A 2058   4.573   2.564   8.736  0.2642 -0.7120  0.0723
   28CHL1  H23B 2059   4.632   2.727   8.775  0.8751 -0.1107  1.0986
   28CHL1   C24 2060   4.760   2.608   8.634  0.3086  0.1028  0.0021
   28CHL1  H24A 2061   4.855   2.661   8.657 -0.1576  1.3173 -0.7683
   28CHL1  H24B 2062   4.787   2.502   8.613 -1.5377 -1.2842  3.7577
   28CHL1   C25 2063   4.710   2.687   8.507 -0.2378 -0.0842  0.2558
   28CHL1   H25 2064   4.678   2.787   8.542 -1.4285  0.4411 -2.0930
   28CHL1   C26 2065   4.825   2.711   8.408  0.4216 -0.0402  0.7997
   28CHL1  H26A 2066   4.895   2.780   8.459 -0.1191 -0.4568  2.1301
   28CHL1  H26B 2067   4.864   2.608   8.392  0.4978 -0.0642  1.1373
   28CHL1  H26C 2068   4.782   2.758   8.316 -1.6688 -1.9538  0.7005
   28CHL1   C27 2069   4.586   2.626   8.433 -0.3998  0.0246  0.2102
   28CHL1  H27A 2070   4.600   2.518   8.416  1.4831  0.3914 -0.7981
   28CHL1  H27B 2071   4.487   2.640   8.483 -1.2752 -1.4533 -1.0318
   28CHL1  H27C 2072   4.578   2.680   8.336 -3.8844 -0.3331  0.1664
   29CHL1    C3 2073   4.791   1.081   6.703 -0.2893 -0.5021 -0.0384
   29CHL1    H3 2074   4.883   1.021   6.684 -1.1737 -1.3120 -2.0099
   29CHL1    O3 2075   4.770   1.127   6.574 -0.0077  0.1638 -0.1125
   29CHL1   H3' 2076   4.811   1.214   6.564  0.0703 -0.1372 -3.3523
   29CHL1    C4 2077   4.672   0.998   6.740 -0.0988  0.6684  0.0495
   29CHL1   H4A 2078   4.576   1.047   6.716  1.4475  2.6656 -2.5778
   29CHL1   H4B 2079   4.665   0.913   6.668  1.2307 -0.3504  1.0567
   29CHL1    C5 2080   4.668   0.951   6.887  1.2566  0.1814 -0.3549
   29CHL1    C6 2081   4.631   0.823   6.917  0.3023  0.5262 -0.0230
   29CHL1    H6 2082   4.595   0.761   6.832 -1.2653  1.8302 -0.3621
   29CHL1    C7 2083   4.619   0.764   7.046  0.0962 -0.5115 -0.1756
   29CHL1   H7A 2084   4.529   0.702   7.061 -0.0444 -0.8379 -2.1130
   29CHL1   H7B 2085   4.701   0.690   7.060 -0.7684 -1.1235  2.0449
   29CHL1    C8 2086   4.633   0.876   7.158 -0.5609 -0.0900  0.4803
   29CHL1    H8 2087   4.534   0.924   7.172 -0.2945  0.6757 -0.2016
   29CHL1   C14 2088   4.671   0.809   7.288 -0.2003 -0.4671 -0.1219
   29CHL1   H14 2089   4.770   0.764   7.265  0.2375 -0.4532  1.6088
   29CHL1   C15 2090   4.573   0.692   7.339 -0.3507  0.0522 -0.3859
   29CHL1  H15A 2091   4.468   0.717   7.314 -0.4129 -1.8138 -2.2912
   29CHL1  H15B 2092   4.593   0.596   7.286 -0.7751 -0.0133 -0.4348
   29CHL1   C16 2093   4.603   0.689   7.491 -0.1488  0.2536  0.3735
   29CHL1  H16A 2094   4.509   0.700   7.548 -0.7212 -0.6589 -0.3603
   29CHL1  H16B 2095   4.656   0.595   7.520  1.6900  1.3395  0.6790
   29CHL1   C17 2096   4.702   0.798   7.521 -0.0734  0.3399 -0.4251
   29CHL1   H17 2097   4.808   0.762   7.520 -0.7560 -1.8144 -0.5868
   29CHL1   C13 2098   4.696   0.900   7.407 -0.0763  0.7949 -0.2386
   29CHL1   C18 2099   4.565   0.982   7.441 -0.5412  0.2827 -0.0624
   29CHL1  H18A 2100   4.595   1.075   7.494 -0.3341 -0.2044  0.6963
   29CHL1  H18B 2101   4.513   1.022   7.352 -0.0708 -2.6684 -1.8188
   29CHL1  H18C 2102   4.495   0.923   7.504 -0.7428  0.4367 -0.1410
   29CHL1   C12 2103   4.820   0.983   7.376 -0.4133 -0.5010  0.1444
   29CHL1  H12A 2104   4.847   1.049   7.462  1.6702  0.8262 -1.4346
   29CHL1  H12B 2105   4.905   0.911   7.366  0.8421  0.6844  1.6827
   29CHL1   C11 2106   4.787   1.065   7.249  0.2965 -0.2910  0.9741
   29CHL1  H11A 2107   4.710   1.143   7.269  1.1499  1.3227 -1.5058
   29CHL1  H11B 2108   4.881   1.116   7.218  0.8009 -0.2974  2.4529
   29CHL1    C9 2109   4.741   0.976   7.125 -0.2685 -0.0318  0.7793
   29CHL1    H9 2110   4.831   0.912   7.115 -0.2404  0.2870 -1.3997
   29CHL1   C10 2111   4.721   1.057   6.995 -0.0281  0.0446 -0.2452
   29CHL1   C19 2112   4.605   1.148   7.019  0.0989  0.5008 -0.1707
   29CHL1  H19A 2113   4.575   1.208   6.931  2.5172  1.9010 -0.1316
   29CHL1  H19B 2114   4.528   1.100   7.083 -0.0209 -0.8630 -1.2907
   29CHL1  H19C 2115   4.636   1.228   7.090 -0.1845  0.7170 -0.2899
   29CHL1    C1 2116   4.846   1.127   6.934 -0.5682 -0.0374  0.1832
   29CHL1   H1A 2117   4.875   1.217   6.993 -0.7454 -0.2086  0.5327
   29CHL1   H1B 2118   4.926   1.049   6.934  0.9740  1.4513  1.0550
   29CHL1    C2 2119   4.833   1.192   6.801 -0.4284  0.4853  0.0498
   29CHL1   H2A 2120   4.931   1.226   6.761 -0.0380 -0.9040 -0.2468
   29CHL1   H2B 2121   4.758   1.273   6.805 -1.7351 -0.6196 -1.1373
   29CHL1   C20 2122   4.704   0.842   7.673  0.1304 -0.1925 -0.4498
   29CHL1   H20 2123   4.600   0.864   7.707 -0.0286 -0.8715 -0.4709
   29CHL1   C21 2124   4.792   0.967   7.697 -0.1535  0.8611 -0.0258
   29CHL1  H21A 2125   4.808   0.974   7.807 -0.5359  2.6334 -0.0597
   29CHL1  H21B 2126   4.736   1.061   7.675 -1.7043 -0.0901 -0.3668
   29CHL1  H21C 2127   4.891   0.965   7.648  0.1666  4.3976  0.2770
   29CHL1   C22 2128   4.763   0.729   7.755  0.5414  0.3589 -0.2239
   29CHL1  H22A 2129   4.693   0.643   7.761 -0.7471  1.4399  2.6916
   29CHL1  H22B 2130   4.856   0.699   7.703  0.9143  0.3308  0.4524
   29CHL1   C23 2131   4.807   0.758   7.900 -0.5856  0.0772 -0.5033
   29CHL1  H23A 2132   4.910   0.799   7.896 -0.4780  0.0852  1.2881
   29CHL1  H23B 2133   4.737   0.831   7.947 -0.3665 -0.9531  1.5431
   29CHL1   C24 2134   4.827   0.631   7.996 -0.2114 -0.5622  0.2931
   29CHL1  H24A 2135   4.726   0.586   7.991  0.8954 -3.0666 -1.6489
   29CHL1  H24B 2136   4.896   0.571   7.933 -0.8439 -1.1876  0.1890
   29CHL1   C25 2137   4.888   0.652   8.139 -0.2448 -0.0002 -0.3295
   29CHL1   H25 2138   4.979   0.714   8.120 -0.3239  0.9339  2.0504
   29CHL1   C26 2139   4.793   0.740   8.228 -0.9165  1.1244 -0.1107
   29CHL1  H26A 2140   4.828   0.749   8.333  1.1820  0.5278 -0.7053
   29CHL1  H26B 2141   4.805   0.841   8.184  2.3699  1.3033  0.8910
   29CHL1  H26C 2142   4.688   0.705   8.230 -0.1800 -1.3685  2.9435
   29CHL1   C27 2143   4.920   0.520   8.214  0.1451 -0.1265  0.2241
   29CHL1  H27A 2144   4.993   0.532   8.297 -0.3191 -0.1281  0.6414
   29CHL1  H27B 2145   4.834   0.472   8.266 -0.7841  1.1951 -0.0316
   29CHL1  H27C 2146   4.970   0.448   8.146  2.3402  0.5400  1.0479
   30CHL1    C3 2147   0.818   4.929   7.175 -0.3157  0.6519 -0.1796
   30CHL1    H3 2148   0.728   4.984   7.211 -0.4842  0.4930 -0.3527
   30CHL1    O3 2149   0.825   4.969   7.038  0.3378  0.0824  0.5078
   30CHL1   H3' 2150   0.849   5.062   7.039  1.3433 -0.1698  1.0825
   30CHL1    C4 2151   0.946   4.987   7.246 -0.0187 -0.1651  0.4265
   30CHL1   H4A 2152   1.036   4.945   7.196 -0.7071  0.6516 -1.6123
   30CHL1   H4B 2153   0.962   5.095   7.228  0.2471 -0.4380 -1.1352
   30CHL1    C5 2154   0.954   4.951   7.397 -0.1011 -0.2099 -0.2528
   30CHL1    C6 2155   0.974   5.044   7.488 -0.1366  0.1478  0.0013
   30CHL1    H6 2156   0.994   5.148   7.459  0.4507  0.4722  1.4810
   30CHL1    C7 2157   0.969   5.012   7.635 -0.6281 -0.0016  0.7359
   30CHL1   H7A 2158   1.052   5.069   7.682  0.5050 -0.1369 -0.9961
   30CHL1   H7B 2159   0.873   5.049   7.678 -0.7054 -1.0475  1.4735
   30CHL1    C8 2160   0.989   4.864   7.673 -0.2979 -0.5300  0.3796
   30CHL1    H8 2161   1.092   4.828   7.651 -0.4792 -1.3403  0.8445
   30CHL1   C14 2162   0.970   4.850   7.820 -0.1139  0.3294 -0.1183
   30CHL1   H14 2163   0.864   4.884   7.827 -0.3794 -0.5991  0.6059
   30CHL1   C15 2164   1.045   4.935   7.924  0.4945  0.5307  0.0263
   30CHL1  H15A 2165   1.150   4.960   7.897 -0.2349  4.1029 -0.1022
   30CHL1  H15B 2166   1.005   5.039   7.926  0.2668  0.4866  3.3780
   30CHL1   C16 2167   1.028   4.864   8.061  0.0887  1.1487 -0.2936
   30CHL1  H16A 2168   1.132   4.841   8.093  0.0216  2.4781  1.0038
   30CHL1  H16B 2169   0.975   4.932   8.131 -1.7811  0.0003 -0.5229
   30CHL1   C17 2170   0.938   4.736   8.023 -0.8861  0.2478 -0.4996
   30CHL1   H17 2171   0.832   4.767   8.028 -1.5693 -0.8111 -4.8687
   30CHL1   C13 2172   0.970   4.709   7.872 -0.5045  0.1991  0.1137
   30CHL1   C18 2173   1.111   4.655   7.862  0.2078 -0.6103  0.9851
   30CHL1  H18A 2174   1.197   4.713   7.903  1.4021 -0.6236 -1.3532
   30CHL1  H18B 2175   1.123   4.555   7.908 -2.4032 -1.1528  0.6317
   30CHL1  H18C 2176   1.147   4.633   7.759 -2.3381 -2.5338  0.4147
   30CHL1   C12 2177   0.861   4.628   7.793 -0.1998 -0.1309  0.2004
   30CHL1  H12A 2178   0.869   4.518   7.807  0.3329 -0.2352 -0.7787
   30CHL1  H12B 2179   0.757   4.665   7.804 -0.2232  0.2984 -1.1904
   30CHL1   C11 2180   0.886   4.645   7.641 -0.5189 -0.5666  0.1943
   30CHL1  H11A 2181   0.977   4.595   7.602  0.1871  2.2899 -2.2090
   30CHL1  H11B 2182   0.797   4.603   7.590 -0.5001  0.0822 -0.3947
   30CHL1    C9 2183   0.902   4.785   7.587  0.4836 -0.4799 -0.3548
   30CHL1    H9 2184   0.804   4.835   7.603 -0.1886 -2.2454  1.6206
   30CHL1   C10 2185   0.936   4.806   7.435 -0.2710  0.1364 -0.0828
   30CHL1   C19 2186   1.062   4.720   7.404  0.0243 -0.4982  0.0511
   30CHL1  H19A 2187   1.058   4.610   7.411 -2.2346 -0.4568  0.1270
   30CHL1  H19B 2188   1.100   4.741   7.301 -3.5840  1.1100 -1.1293
   30CHL1  H19C 2189   1.143   4.751   7.473  0.5707  0.9335 -1.1733
   30CHL1    C1 2190   0.817   4.753   7.349  0.1309  0.2881  0.4452
   30CHL1   H1A 2191   0.824   4.644   7.370  2.8975  0.2144 -0.4654
   30CHL1   H1B 2192   0.717   4.781   7.390 -0.7731  0.5969 -1.8258
   30CHL1    C2 2193   0.820   4.781   7.204  0.1247 -0.2027  0.9043
   30CHL1   H2A 2194   0.739   4.736   7.143  0.4145  1.4805 -0.8415
   30CHL1   H2B 2195   0.907   4.738   7.150 -0.4793 -1.4422  0.8881
   30CHL1   C20 2196   0.953   4.621   8.126  0.1290 -0.6370  0.0182
   30CHL1   H20 2197   1.027   4.542   8.100  3.8597  1.9201  1.8840
   30CHL1   C21 2198   0.812   4.558   8.142  0.6344 -0.4500  0.6341
   30CHL1  H21A 2199   0.826   4.469   8.206  2.1761 -0.5011  0.2689
   30CHL1  H21B 2200   0.783   4.533   8.038 -2.0699 -0.1575  1.2596
   30CHL1  H21C 2201   0.733   4.630   8.173 -0.2974 -1.6920  1.1763
   30CHL1   C22 2202   1.011   4.660   8.267  0.5235  0.3640  0.2523
   30CHL1  H22A 2203   1.057   4.575   8.322  0.6818  1.5000  1.9725
   30CHL1  H22B 2204   1.101   4.723   8.247 -0.4377  1.2589 -1.4067
   30CHL1   C23 2205   0.908   4.728   8.366 -0.3087 -0.2160  0.0359
   30CHL1  H23A 2206   0.836   4.795   8.315  0.9879 -0.9097 -2.9189
   30CHL1  H23B 2207   0.854   4.646   8.418 -0.1601 -1.1562 -1.2410
   30CHL1   C24 2208   0.968   4.798   8.483  0.1046 -1.3713  0.6946
   30CHL1  H24A 2209   1.014   4.894   8.452 -2.5696 -0.2335 -0.0981
   30CHL1  H24B 2210   0.891   4.836   8.554  1.6655 -0.9001  2.1966
   30CHL1   C25 2211   1.073   4.718   8.555 -0.0759 -0.0729 -0.5392
   30CHL1   H25 2212   1.149   4.672   8.488  1.5245  1.8975 -0.1883
   30CHL1   C26 2213   1.148   4.825   8.637  0.6834 -0.6805 -0.0335
   30CHL1  H26A 2214   1.199   4.891   8.564 -0.5592 -0.1175 -0.4227
   30CHL1  H26B 2215   1.083   4.899   8.688  0.8102 -0.3777 -0.3065
   30CHL1  H26C 2216   1.217   4.784   8.714 -0.7692 -0.5768  1.3781
   30CHL1   C27 2217   1.013   4.606   8.646 -0.1622  0.0509  0.5889
   30CHL1  H27A 2218   0.976   4.523   8.582  1.7804  0.4769 -1.2435
   30CHL1  H27B 2219   1.100   4.563   8.701  0.5397  0.2837 -0.3118
   30CHL1  H27C 2220   0.949   4.654   8.723  0.5867 -0.1539  1.3559
   31CHL1    C3 2221   4.105   1.322   6.702 -0.1813 -0.6163 -0.4599
   31CHL1    H3 2222   4.081   1.220   6.666 -0.4083  0.7559 -4.7504
   31CHL1    O3 2223   4.116   1.408   6.592  0.0404 -0.4820 -0.5918
   31CHL1   H3' 2224   4.137   1.356   6.515  2.1144  0.4219 -0.6836
   31CHL1    C4 2225   3.986   1.374   6.785  0.1891 -0.7650 -0.6053
   31CHL1   H4A 2226   3.993   1.485   6.787 -0.8295 -0.7082  0.2244
   31CHL1   H4B 2227   3.890   1.351   6.735  0.5394  0.3793 -1.8664
   31CHL1    C5 2228   3.992   1.350   6.933 -0.5916 -0.4227 -0.3642
   31CHL1    C6 2229   3.887   1.302   6.993  0.6738 -0.0043 -0.1172
   31CHL1    H6 2230   3.795   1.301   6.933  2.2864 -0.1770 -2.7941
   31CHL1    C7 2231   3.881   1.272   7.138  0.8225  0.3629  0.0973
   31CHL1   H7A 2232   3.795   1.325   7.183 -1.5527 -1.4037 -2.0422
   31CHL1   H7B 2233   3.864   1.163   7.154  0.6381  0.3942  0.1047
   31CHL1    C8 2234   4.004   1.313   7.213  0.6008  0.4136 -0.6906
   31CHL1    H8 2235   3.991   1.422   7.228 -0.4791 -0.0406  2.3670
   31CHL1   C14 2236   4.023   1.248   7.352  0.1085  0.0334 -0.2970
   31CHL1   H14 2237   4.051   1.143   7.331  3.5734  0.1471  2.8828
   31CHL1   C15 2238   3.896   1.244   7.447  0.3694 -0.1463  0.4773
   31CHL1  H15A 2239   3.859   1.349   7.457  1.0027  0.0557  0.7762
   31CHL1  H15B 2240   3.811   1.191   7.401  0.2676  2.1431 -2.2332
   31CHL1   C16 2241   3.952   1.199   7.580  1.3555  0.9088 -0.0245
   31CHL1  H16A 2242   3.911   1.272   7.653  1.3822  0.7230  0.1735
   31CHL1  H16B 2243   3.917   1.099   7.614 -2.2224  1.8414 -0.5189
   31CHL1   C17 2244   4.106   1.210   7.569  0.3770  0.9595  0.8161
   31CHL1   H17 2245   4.126   1.106   7.536 -0.3503  0.4786  1.8467
   31CHL1   C13 2246   4.136   1.295   7.441  0.1743  0.8121  0.0541
   31CHL1   C18 2247   4.134   1.447   7.478 -0.3487 -0.9523  0.5966
   31CHL1  H18A 2248   4.054   1.471   7.551  0.1777 -1.3488  1.3221
   31CHL1  H18B 2249   4.226   1.484   7.527  0.3242 -0.7523 -0.7699
   31CHL1  H18C 2250   4.109   1.512   7.391  0.6166 -0.7243  0.4806
   31CHL1   C12 2251   4.266   1.256   7.368  0.0475  1.0236 -0.1277
   31CHL1  H12A 2252   4.353   1.298   7.423  0.5419  0.4880 -0.4844
   31CHL1  H12B 2253   4.279   1.146   7.363  1.3489  1.1469  0.1519
   31CHL1   C11 2254   4.261   1.299   7.218  0.3101 -0.0100  0.0391
   31CHL1  H11A 2255   4.277   1.409   7.227  3.9326 -0.2693 -1.3060
   31CHL1  H11B 2256   4.356   1.259   7.176  1.1954  1.9584  0.0673
   31CHL1    C9 2257   4.132   1.279   7.136  0.2932  0.0220 -0.1225
   31CHL1    H9 2258   4.122   1.169   7.123 -0.3920 -0.1028  1.2080
   31CHL1   C10 2259   4.129   1.348   6.996 -0.3083  0.1622 -0.0311
   31CHL1   C19 2260   4.162   1.497   7.021  0.5139 -0.3653  0.0028
   31CHL1  H19A 2261   4.105   1.532   7.110 -1.4702  0.0795 -1.3873
   31CHL1  H19B 2262   4.270   1.509   7.044  0.6515  0.4567 -1.0067
   31CHL1  H19C 2263   4.145   1.566   6.936  1.8094  0.7669  0.6295
   31CHL1    C1 2264   4.238   1.278   6.915 -0.1281  0.0244  0.5534
   31CHL1   H1A 2265   4.336   1.315   6.953  0.6647  1.5227 -2.6072
   31CHL1   H1B 2266   4.233   1.168   6.925 -3.0229 -0.0628 -0.9293
   31CHL1    C2 2267   4.242   1.329   6.767 -1.0490  0.3400 -0.8327
   31CHL1   H2A 2268   4.318   1.288   6.698 -3.1276  0.1365 -3.1014
   31CHL1   H2B 2269   4.279   1.433   6.786  3.5638 -1.3668  0.9549
   31CHL1   C20 2270   4.186   1.229   7.701  1.0047 -0.7921  0.5633
   31CHL1   H20 2271   4.217   1.335   7.704 -0.7182 -0.1734 -1.2492
   31CHL1   C21 2272   4.309   1.138   7.695 -0.0798 -0.6021  0.2130
   31CHL1  H21A 2273   4.292   1.036   7.735 -1.1888 -2.4230 -4.2337
   31CHL1  H21B 2274   4.387   1.182   7.760 -2.6371  1.8413  1.8774
   31CHL1  H21C 2275   4.340   1.138   7.588  1.4226 -0.5913  0.6224
   31CHL1   C22 2276   4.098   1.199   7.827  0.3785 -0.2487  0.0522
   31CHL1  H22A 2277   4.011   1.267   7.837 -1.9002 -2.6492 -1.8200
   31CHL1  H22B 2278   4.054   1.097   7.820 -0.3265  0.0369  0.3414
   31CHL1   C23 2279   4.184   1.190   7.950  0.1093  0.3472 -0.2237
   31CHL1  H23A 2280   4.254   1.103   7.949 -0.6332 -0.2507 -0.7325
   31CHL1  H23B 2281   4.247   1.281   7.961  0.6321  0.3865 -2.9144
   31CHL1   C24 2282   4.103   1.165   8.076 -0.2074 -0.0437 -0.9214
   31CHL1  H24A 2283   4.055   1.258   8.114  0.1557 -1.4236  3.4109
   31CHL1  H24B 2284   4.025   1.090   8.052 -0.6137 -0.4669  1.5222
   31CHL1   C25 2285   4.195   1.111   8.190 -0.7313 -0.4489 -0.1169
   31CHL1   H25 2286   4.257   1.027   8.152  0.9289  0.7004 -0.0919
   31CHL1   C26 2287   4.291   1.219   8.243 -0.3421 -0.0970 -0.0143
   31CHL1  H26A 2288   4.356   1.198   8.330 -2.7942  0.7932  2.1730
   31CHL1  H26B 2289   4.357   1.252   8.160 -1.0704  2.8112  0.4548
   31CHL1  H26C 2290   4.226   1.307   8.266 -1.6873 -0.9212 -0.5133
   31CHL1   C27 2291   4.110   1.054   8.303  0.6549  0.5212  0.4836
   31CHL1  H27A 2292   4.040   0.975   8.270  1.5678  0.1646 -0.6533
   31CHL1  H27B 2293   4.056   1.136   8.356  1.1563  0.6892  0.7447
   31CHL1  H27C 2294   4.176   1.005   8.378  1.7521  1.6566  0.3064
   32CHL1    C3 2295   4.802   6.310   7.026  0.0913 -0.4327  0.0695
   32CHL1    H3 2296   4.851   6.217   6.991 -1.2739 -0.9854 -0.4589
   32CHL1    O3 2297   4.743   6.399   6.932 -0.1811 -0.6988  0.2980
   32CHL1   H3' 2298   4.775   6.485   6.957 -1.2365  0.0369 -0.7781
   32CHL1    C4 2299   4.695   6.274   7.124 -0.4000 -0.0148  0.5733
   32CHL1   H4A 2300   4.655   6.374   7.151  0.5861  1.0180 -1.5132
   32CHL1   H4B 2301   4.614   6.216   7.076  0.4880  0.4461 -1.5978
   32CHL1    C5 2302   4.760   6.199   7.235  0.1100 -0.0469 -0.0484
   32CHL1    C6 2303   4.713   6.078   7.270 -0.1288  0.5061 -1.0031
   32CHL1    H6 2304   4.627   6.026   7.225  0.1100  1.0722 -2.1633
   32CHL1    C7 2305   4.743   6.014   7.395  0.0964 -0.1540 -0.0382
   32CHL1   H7A 2306   4.648   5.994   7.450 -0.9541  0.1153 -1.6721
   32CHL1   H7B 2307   4.789   5.915   7.374 -0.9882 -1.3055  2.5578
   32CHL1    C8 2308   4.836   6.099   7.488 -0.2293  0.1639 -0.2069
   32CHL1    H8 2309   4.764   6.168   7.538 -0.0940 -0.2264  0.5371
   32CHL1   C14 2310   4.913   6.009   7.591  0.8589  0.3158 -0.5091
   32CHL1   H14 2311   4.982   5.955   7.524 -0.1628  1.9043 -2.9588
   32CHL1   C15 2312   4.826   5.908   7.668 -0.3593 -1.1591  0.1016
   32CHL1  H15A 2313   4.729   5.958   7.690  0.6173  1.1359 -0.4376
   32CHL1  H15B 2314   4.815   5.814   7.611  0.8705 -0.7500 -0.8698
   32CHL1   C16 2315   4.912   5.876   7.792 -0.0379 -0.1190  0.0770
   32CHL1  H16A 2316   4.863   5.926   7.879  2.2788  0.2652  1.2682
   32CHL1  H16B 2317   4.925   5.767   7.804 -0.7295 -0.4870 -2.1692
   32CHL1   C17 2318   5.041   5.960   7.788  0.4587 -0.3470 -0.5468
   32CHL1   H17 2319   5.110   5.887   7.740  1.3896  0.0987  0.0753
   32CHL1   C13 2320   4.999   6.075   7.696 -0.3653  0.0939 -0.8150
   32CHL1   C18 2321   4.920   6.173   7.788  0.5422  0.0811 -0.3978
   32CHL1  H18A 2322   4.851   6.126   7.862  1.5555  0.4276  0.8023
   32CHL1  H18B 2323   4.986   6.238   7.849  0.4749 -0.8153  0.6738
   32CHL1  H18C 2324   4.860   6.249   7.733 -0.1918 -0.7697 -0.7953
   32CHL1   C12 2325   5.105   6.149   7.607 -0.0366 -0.5964 -0.1586
   32CHL1  H12A 2326   5.175   6.210   7.667  0.4004  0.8567 -2.0575
   32CHL1  H12B 2327   5.170   6.075   7.554  2.3356 -0.0037  1.7623
   32CHL1   C11 2328   5.043   6.240   7.501  0.3283 -0.0003 -0.7771
   32CHL1  H11A 2329   5.008   6.324   7.564  1.5594 -0.7577  1.0013
   32CHL1  H11B 2330   5.124   6.286   7.440  1.3892 -1.1055 -0.2462
   32CHL1    C9 2331   4.939   6.175   7.412  1.2066 -0.2056 -0.3173
   32CHL1    H9 2332   4.989   6.097   7.351 -0.0597  1.1711 -3.3226
   32CHL1   C10 2333   4.873   6.269   7.307 -0.2713 -0.2251 -0.5013
   32CHL1   C19 2334   4.821   6.395   7.386 -0.2832  0.1607  0.9837
   32CHL1  H19A 2335   4.905   6.461   7.416 -0.0615  0.1806  0.3400
   32CHL1  H19B 2336   4.758   6.461   7.323  1.2108  2.2668  1.5996
   32CHL1  H19C 2337   4.764   6.368   7.478  0.2823  1.6527  1.8000
   32CHL1    C1 2338   4.983   6.312   7.213 -0.8823 -0.0784  0.4083
   32CHL1   H1A 2339   5.049   6.378   7.273 -1.2298  0.5369  0.1144
   32CHL1   H1B 2340   5.035   6.223   7.170 -1.2324 -0.5206  0.8890
   32CHL1    C2 2341   4.915   6.391   7.094  0.3189  0.3223 -0.5148
   32CHL1   H2A 2342   4.995   6.418   7.021 -1.3183  2.8665 -1.5338
   32CHL1   H2B 2343   4.883   6.491   7.132 -0.5933 -0.2565  0.2555
   32CHL1   C20 2344   5.121   5.978   7.918  0.6435  0.2713 -0.3907
   32CHL1   H20 2345   5.055   6.027   7.993 -1.0096 -0.0760 -1.5760
   32CHL1   C21 2346   5.242   6.079   7.895  0.9559  0.4312 -0.2213
   32CHL1  H21A 2347   5.206   6.177   7.858 -5.4433 -0.6206  1.9816
   32CHL1  H21B 2348   5.313   6.031   7.824  1.0653  0.4832 -0.1474
   32CHL1  H21C 2349   5.303   6.091   7.987 -1.6252 -1.2099  1.8315
   32CHL1   C22 2350   5.165   5.845   7.987 -0.1505  0.3069  0.4672
   32CHL1  H22A 2351   5.083   5.771   7.977  0.0990  0.1289 -0.3437
   32CHL1  H22B 2352   5.258   5.816   7.933  0.1014  1.8737  0.0003
   32CHL1   C23 2353   5.219   5.865   8.125 -0.1535  0.0055  0.6043
   32CHL1  H23A 2354   5.320   5.912   8.121  0.0649 -0.4276  0.9249
   32CHL1  H23B 2355   5.148   5.934   8.176 -2.2524 -1.5832 -0.0486
   32CHL1   C24 2356   5.235   5.729   8.199 -0.4674  0.0351 -0.7389
   32CHL1  H24A 2357   5.135   5.698   8.236 -0.7274  2.6896  1.1439
   32CHL1  H24B 2358   5.280   5.645   8.143 -0.0028 -1.6408  1.9445
   32CHL1   C25 2359   5.320   5.742   8.329  0.2550  0.1432  0.4041
   32CHL1   H25 2360   5.298   5.835   8.385  1.4588 -0.1834  1.4467
   32CHL1   C26 2361   5.284   5.623   8.421  0.3867 -0.1981  1.2805
   32CHL1  H26A 2362   5.177   5.615   8.447 -0.2661 -0.9990 -1.3840
   32CHL1  H26B 2363   5.321   5.530   8.372  3.8850  1.7931 -0.2299
   32CHL1  H26C 2364   5.327   5.639   8.523 -0.0229  3.8791  0.9606
   32CHL1   C27 2365   5.464   5.739   8.289 -0.1654  0.0342 -0.6932
   32CHL1  H27A 2366   5.493   5.642   8.243  1.8572  0.5309 -0.5581
   32CHL1  H27B 2367   5.504   5.815   8.219  0.0347 -0.4905 -1.1526
   32CHL1  H27C 2368   5.530   5.751   8.378  1.1104  1.4903 -1.7896
   33CHL1    C3 2369   4.621   1.727   6.724 -0.3775 -0.3668  0.1944
   33CHL1    H3 2370   4.538   1.781   6.775 -0.3664 -0.2399  0.0764
   33CHL1    O3 2371   4.642   1.751   6.583 -0.1384  0.0837  0.3966
   33CHL1   H3' 2372   4.642   1.847   6.582 -1.0615  0.0877 -0.3038
   33CHL1    C4 2373   4.741   1.786   6.801 -0.6233 -0.5713 -0.0392
   33CHL1   H4A 2374   4.839   1.755   6.758 -0.9434  0.0491 -1.2738
   33CHL1   H4B 2375   4.736   1.895   6.779  4.8972 -0.2810 -1.3939
   33CHL1    C5 2376   4.741   1.764   6.952  0.6263 -0.5515 -0.1456
   33CHL1    C6 2377   4.742   1.867   7.041  0.1686  0.2754 -0.8606
   33CHL1    H6 2378   4.728   1.972   7.011 -2.5527  0.3904  0.5020
   33CHL1    C7 2379   4.736   1.860   7.192  0.2763  0.0465  0.2879
   33CHL1   H7A 2380   4.808   1.935   7.232  0.1216  0.4449 -0.1754
   33CHL1   H7B 2381   4.640   1.910   7.216 -1.0514 -1.1558 -2.1344
   33CHL1    C8 2382   4.739   1.714   7.245 -0.1501  0.2869  0.3678
   33CHL1    H8 2383   4.846   1.684   7.233  0.7052  3.0854  0.2159
   33CHL1   C14 2384   4.690   1.707   7.388  0.1068  0.6575 -0.5262
   33CHL1   H14 2385   4.582   1.732   7.386 -0.0357  0.6315  2.2311
   33CHL1   C15 2386   4.745   1.806   7.489 -0.6502 -0.4324 -0.5988
   33CHL1  H15A 2387   4.853   1.816   7.465  0.0420  0.5273  2.4397
   33CHL1  H15B 2388   4.703   1.909   7.474  0.3603 -0.2968 -2.9442
   33CHL1   C16 2389   4.725   1.739   7.629 -0.1335  0.0591  0.8113
   33CHL1  H16A 2390   4.823   1.704   7.667  0.0809 -1.0049 -0.6587
   33CHL1  H16B 2391   4.674   1.803   7.705 -2.5789 -2.4223  1.4047
   33CHL1   C17 2392   4.649   1.607   7.594  0.2727 -0.4013 -0.0140
   33CHL1   H17 2393   4.542   1.633   7.586 -0.5824 -2.7331  2.3360
   33CHL1   C13 2394   4.679   1.572   7.451 -0.8433 -0.1215  0.2691
   33CHL1   C18 2395   4.826   1.513   7.440  0.7261  0.3873 -1.0921
   33CHL1  H18A 2396   4.894   1.545   7.521 -0.0278  1.2399 -0.7901
   33CHL1  H18B 2397   4.812   1.403   7.456 -1.5224  0.9588  1.6658
   33CHL1  H18C 2398   4.878   1.523   7.342  0.8566  2.7636 -0.8224
   33CHL1   C12 2399   4.581   1.487   7.367 -0.7869  0.3105  0.0321
   33CHL1  H12A 2400   4.578   1.382   7.404  2.7289  0.5676  1.3697
   33CHL1  H12B 2401   4.483   1.539   7.376  0.2598  2.5956 -1.0432
   33CHL1   C11 2402   4.620   1.481   7.215 -0.0584  0.0790  0.6328
   33CHL1  H11A 2403   4.707   1.415   7.196  0.5747  1.0233  0.1719
   33CHL1  H11B 2404   4.537   1.432   7.160  0.2704  0.0257  0.1790
   33CHL1    C9 2405   4.648   1.624   7.150  0.1596  0.1050 -0.5458
   33CHL1    H9 2406   4.548   1.674   7.152 -0.7580 -1.5498 -1.9040
   33CHL1   C10 2407   4.708   1.625   7.002 -0.5103  0.2574  0.2094
   33CHL1   C19 2408   4.838   1.535   6.980 -0.1888  0.2169  0.0988
   33CHL1  H19A 2409   4.824   1.428   7.007  0.6619 -0.0596 -0.5052
   33CHL1  H19B 2410   4.880   1.532   6.877  0.3329 -2.6953  0.3085
   33CHL1  H19C 2411   4.921   1.571   7.043  0.4862 -0.1355 -0.5704
   33CHL1    C1 2412   4.590   1.561   6.914 -0.5640  0.1645 -0.5840
   33CHL1   H1A 2413   4.583   1.453   6.940 -0.3697  0.5379  1.1174
   33CHL1   H1B 2414   4.493   1.610   6.936  0.3946  1.8065  0.1129
   33CHL1    C2 2415   4.599   1.575   6.762  0.4551 -0.0907  0.0197
   33CHL1   H2A 2416   4.501   1.552   6.715  0.3369  0.7332 -0.1545
   33CHL1   H2B 2417   4.678   1.515   6.713  2.0518  0.8762  1.3090
   33CHL1   C20 2418   4.672   1.499   7.708 -0.1119 -0.4624 -0.0573
   33CHL1   H20 2419   4.773   1.453   7.698  0.2768  0.6295 -1.5036
   33CHL1   C21 2420   4.572   1.377   7.685 -0.7082  0.4027  0.4243
   33CHL1  H21A 2421   4.555   1.306   7.769  2.3410 -0.5119  0.4193
   33CHL1  H21B 2422   4.610   1.309   7.606 -2.0555  0.6354 -0.4525
   33CHL1  H21C 2423   4.477   1.422   7.650 -1.1639 -0.7906  0.0477
   33CHL1   C22 2424   4.653   1.548   7.854 -0.2973  0.3250 -0.5752
   33CHL1  H22A 2425   4.703   1.646   7.868 -0.5903  0.2584  1.1307
   33CHL1  H22B 2426   4.544   1.562   7.868 -0.8034 -2.0205 -1.5836
   33CHL1   C23 2427   4.704   1.449   7.963  0.6446 -0.2491 -0.7158
   33CHL1  H23A 2428   4.712   1.514   8.053 -0.0038  2.3189 -2.3976
   33CHL1  H23B 2429   4.631   1.368   7.979  0.0405  0.5293  0.6341
   33CHL1   C24 2430   4.835   1.377   7.927  0.0076 -0.4023  0.4044
   33CHL1  H24A 2431   4.813   1.310   7.841 -0.7837  0.5939 -0.1909
   33CHL1  H24B 2432   4.918   1.443   7.895 -0.6355 -0.1028 -0.6946
   33CHL1   C25 2433   4.898   1.302   8.052  0.1252 -0.1517  0.3111
   33CHL1   H25 2434   4.912   1.385   8.125 -1.3612  1.1556 -0.8024
   33CHL1   C26 2435   4.796   1.209   8.119 -0.6507 -0.0137 -0.3019
   33CHL1  H26A 2436   4.842   1.150   8.201  1.3256 -0.4850 -1.6987
   33CHL1  H26B 2437   4.714   1.278   8.149  0.1186  0.1649  1.5341
   33CHL1  H26C 2438   4.752   1.139   8.044 -0.3219 -1.3137  0.6761
   33CHL1   C27 2439   5.021   1.231   8.018 -0.0007  0.2066  0.7995
   33CHL1  H27A 2440   5.049   1.181   8.113  0.0796 -2.3310 -0.4657
   33CHL1  H27B 2441   5.006   1.151   7.942  0.0192  0.1512  0.8537
   33CHL1  H27C 2442   5.086   1.309   7.972 -1.7783  0.8513 -0.7559
   34CHL1    C3 2443   5.047   5.791   7.029  0.2517  1.0375  0.5743
   34CHL1    H3 2444   5.026   5.685   7.053  0.7578  1.0639  1.1831
   34CHL1    O3 2445   4.975   5.833   6.914  0.5398 -1.4317 -0.3538
   34CHL1   H3' 2446   5.022   5.915   6.898 -0.9003 -0.6409 -0.7932
   34CHL1    C4 2447   5.004   5.858   7.161  0.0097 -1.3682  0.1508
   34CHL1   H4A 2448   5.022   5.967   7.148  0.2640 -1.5637 -1.3547
   34CHL1   H4B 2449   4.894   5.840   7.164  0.0473 -1.4983  1.4841
   34CHL1    C5 2450   5.071   5.793   7.276 -0.1962  0.3393 -0.2528
   34CHL1    C6 2451   5.015   5.727   7.382  0.1722 -0.3334 -0.7791
   34CHL1    H6 2452   4.905   5.723   7.387  0.1450 -1.0756 -1.8069
   34CHL1    C7 2453   5.093   5.678   7.500  0.2765 -0.3051  0.3715
   34CHL1   H7A 2454   5.034   5.717   7.586 -0.5648 -0.0026 -0.3221
   34CHL1   H7B 2455   5.094   5.566   7.501  1.0531 -0.2994  0.5560
   34CHL1    C8 2456   5.238   5.725   7.496  0.3504  0.2937  0.8411
   34CHL1    H8 2457   5.238   5.832   7.529 -0.3737  0.1248  1.3985
   34CHL1   C14 2458   5.317   5.640   7.595 -0.2385  0.4364  0.3208
   34CHL1   H14 2459   5.326   5.539   7.550 -1.1771 -0.6050  2.3399
   34CHL1   C15 2460   5.254   5.615   7.733 -0.2691 -0.4093  0.3216
   34CHL1  H15A 2461   5.196   5.699   7.777  1.7500  1.4822 -0.4424
   34CHL1  H15B 2462   5.185   5.528   7.725  0.7466 -1.2046  0.0570
   34CHL1   C16 2463   5.380   5.579   7.820 -0.7707  0.1776  1.0273
   34CHL1  H16A 2464   5.388   5.640   7.913  0.4312  0.3085  0.8585
   34CHL1  H16B 2465   5.376   5.471   7.846  1.9255  0.4337  2.9959
   34CHL1   C17 2466   5.503   5.598   7.725  0.2611  0.6063  0.2060
   34CHL1   H17 2467   5.512   5.498   7.677  1.7690  1.0023 -0.3906
   34CHL1   C13 2468   5.455   5.693   7.612 -0.8315 -0.1262 -1.1836
   34CHL1   C18 2469   5.458   5.839   7.670  0.2661  0.2174  0.2171
   34CHL1  H18A 2470   5.418   5.907   7.592 -3.2212 -0.2034  1.4592
   34CHL1  H18B 2471   5.405   5.842   7.768  1.8974 -3.8085  1.4211
   34CHL1  H18C 2472   5.559   5.874   7.698  0.1954  0.0469  0.7086
   34CHL1   C12 2473   5.527   5.677   7.477  0.0164 -0.1284  0.4053
   34CHL1  H12A 2474   5.632   5.712   7.491  0.2909 -0.3232 -0.9576
   34CHL1  H12B 2475   5.526   5.571   7.444 -0.3284  0.4633 -1.6010
   34CHL1   C11 2476   5.458   5.757   7.371  0.0318  0.3258  0.8744
   34CHL1  H11A 2477   5.468   5.864   7.399 -0.0324  0.4604  0.3790
   34CHL1  H11B 2478   5.511   5.746   7.274 -2.0575 -0.4331 -0.2431
   34CHL1    C9 2479   5.304   5.722   7.358 -0.2190  0.0662 -0.0331
   34CHL1    H9 2480   5.283   5.619   7.321  2.4622 -0.7046  0.3588
   34CHL1   C10 2481   5.228   5.804   7.253  0.0245  0.7892  0.5697
   34CHL1   C19 2482   5.263   5.957   7.273 -0.3921 -0.3692 -0.5260
   34CHL1  H19A 2483   5.372   5.971   7.263 -0.3030 -0.5057  0.1988
   34CHL1  H19B 2484   5.213   6.023   7.199  0.0480 -2.3086 -2.6725
   34CHL1  H19C 2485   5.248   5.998   7.375 -1.0982 -0.3808 -0.6160
   34CHL1    C1 2486   5.268   5.749   7.110  0.0739 -0.3870 -0.4463
   34CHL1   H1A 2487   5.375   5.772   7.093  0.4483  0.3947  2.3500
   34CHL1   H1B 2488   5.237   5.643   7.118 -0.2181 -0.4899 -2.5259
   34CHL1    C2 2489   5.191   5.811   6.996 -1.5507  0.0531 -0.2382
   34CHL1   H2A 2490   5.213   5.745   6.909  1.3796 -1.0837  1.2190
   34CHL1   H2B 2491   5.221   5.916   6.980  0.9345 -0.6153 -0.4212
   34CHL1   C20 2492   5.632   5.617   7.797 -0.5685 -0.9472  0.1041
   34CHL1   H20 2493   5.633   5.702   7.869 -0.8000 -1.0093  0.1799
   34CHL1   C21 2494   5.759   5.635   7.712  0.8636  0.3118 -0.1819
   34CHL1  H21A 2495   5.849   5.628   7.777  0.3725 -2.4244  0.3508
   34CHL1  H21B 2496   5.753   5.735   7.665 -0.7576  0.7697  0.9213
   34CHL1  H21C 2497   5.763   5.564   7.627 -2.2620 -0.4144  0.1421
   34CHL1   C22 2498   5.656   5.501   7.905 -0.2868  0.2120  0.2489
   34CHL1  H22A 2499   5.560   5.479   7.957 -0.6092  1.1625  0.0713
   34CHL1  H22B 2500   5.667   5.404   7.853 -1.2393  0.8993 -1.2905
   34CHL1   C23 2501   5.750   5.535   8.023 -0.2213  0.1247  0.3989
   34CHL1  H23A 2502   5.851   5.500   7.990 -0.3920  0.2626 -0.2825
   34CHL1  H23B 2503   5.763   5.637   8.064 -0.9344 -0.1683  1.3970
   34CHL1   C24 2504   5.705   5.447   8.142  0.3830 -0.2523  0.4088
   34CHL1  H24A 2505   5.625   5.498   8.200 -1.0045 -0.3779 -1.3066
   34CHL1  H24B 2506   5.651   5.358   8.103 -0.1804  0.5961 -0.8223
   34CHL1   C25 2507   5.825   5.394   8.227 -0.5399 -1.1911  0.0779
   34CHL1   H25 2508   5.895   5.347   8.155 -2.1285 -1.9402 -1.0623
   34CHL1   C26 2509   5.895   5.502   8.315  0.6033  0.0916 -0.3901
   34CHL1  H26A 2510   5.988   5.458   8.358 -1.7055 -5.6075 -0.3356
   34CHL1  H26B 2511   5.936   5.589   8.260  2.0283 -0.2182  0.1356
   34CHL1  H26C 2512   5.831   5.543   8.396  0.6143 -0.9886  0.1852
   34CHL1   C27 2513   5.774   5.284   8.315  0.3999 -0.1792 -0.0777
   34CHL1  H27A 2514   5.861   5.238   8.366 -0.3248 -1.3346  0.1609
   34CHL1  H27B 2515   5.700   5.318   8.390 -0.8615  0.4676 -1.5493
   34CHL1  H27C 2516   5.728   5.207   8.249  1.3114  0.4919 -1.5368
   35CHL1    C3 2517   1.732   5.443   7.221 -0.6085 -0.4722 -0.3022
   35CHL1    H3 2518   1.746   5.553   7.214  2.4265 -0.7891 -0.5396
   35CHL1    O3 2519   1.711   5.393   7.090 -0.2391 -0.1647 -0.2316
   35CHL1   H3' 2520   1.616   5.404   7.080 -0.0882  0.4422 -1.0920
   35CHL1    C4 2521   1.860   5.384   7.284  0.9881  0.7086  1.0057
   35CHL1   H4A 2522   1.843   5.275   7.284  1.4203  0.5379 -2.2360
   35CHL1   H4B 2523   1.934   5.407   7.204 -0.5415  2.7878  0.0620
   35CHL1    C5 2524   1.895   5.421   7.427  0.2469  0.4413 -0.0431
   35CHL1    C6 2525   2.022   5.471   7.447  0.6155 -0.2028 -0.4614
   35CHL1    H6 2526   2.091   5.482   7.363  1.2496  0.9845  0.1917
   35CHL1    C7 2527   2.058   5.523   7.583  0.0758 -0.0303 -0.7439
   35CHL1   H7A 2528   2.156   5.481   7.614  0.3644  0.9769 -0.2246
   35CHL1   H7B 2529   2.056   5.634   7.570 -2.6940 -0.0449 -1.1221
   35CHL1    C8 2530   1.958   5.480   7.701  0.4274  0.7514  0.3382
   35CHL1    H8 2531   1.982   5.372   7.714 -0.6494  0.4791  0.1361
   35CHL1   C14 2532   1.981   5.553   7.833  0.2397 -1.0062 -0.4531
   35CHL1   H14 2533   1.954   5.657   7.803  0.5943 -0.9604 -0.6223
   35CHL1   C15 2534   2.121   5.547   7.896 -0.0728 -0.2696  0.6428
   35CHL1  H15A 2535   2.168   5.448   7.876  1.0319  0.2993  0.3860
   35CHL1  H15B 2536   2.186   5.614   7.837  0.9401 -1.9095 -0.1628
   35CHL1   C16 2537   2.089   5.583   8.040 -0.3185  0.2375  0.5622
   35CHL1  H16A 2538   2.135   5.512   8.111 -0.2418  1.0063  1.2958
   35CHL1  H16B 2539   2.139   5.677   8.070  1.1013  0.3600 -1.9305
   35CHL1   C17 2540   1.939   5.599   8.060 -0.7382 -0.0650 -0.4742
   35CHL1   H17 2541   1.917   5.707   8.054 -0.6827  0.0206  0.6621
   35CHL1   C13 2542   1.877   5.526   7.943  0.0107  0.0815  0.2851
   35CHL1   C18 2543   1.890   5.374   7.985 -0.0526  0.1158  0.6532
   35CHL1  H18A 2544   1.824   5.336   8.066  0.8495 -0.8018  0.9783
   35CHL1  H18B 2545   1.859   5.316   7.895  1.1651  1.0852 -0.4392
   35CHL1  H18C 2546   1.994   5.355   8.016 -0.0421  0.0742  0.5918
   35CHL1   C12 2547   1.738   5.569   7.897  0.3066 -0.2484  0.3417
   35CHL1  H12A 2548   1.659   5.541   7.969 -0.7520  0.1331 -0.6518
   35CHL1  H12B 2549   1.725   5.679   7.887 -1.7914 -0.2846  2.0750
   35CHL1   C11 2550   1.706   5.479   7.770 -0.1366 -0.2467  0.5764
   35CHL1  H11A 2551   1.694   5.374   7.805 -1.4331 -0.6408 -0.9294
   35CHL1  H11B 2552   1.603   5.507   7.739  0.4265  1.3143  0.0137
   35CHL1    C9 2553   1.807   5.497   7.651 -0.2267 -0.0158  0.4062
   35CHL1    H9 2554   1.793   5.602   7.619  1.1579 -0.2172 -0.9836
   35CHL1   C10 2555   1.774   5.409   7.525 -0.3758 -0.2810 -0.1043
   35CHL1   C19 2556   1.775   5.259   7.555 -0.2211  0.2007  0.6167
   35CHL1  H19A 2557   1.862   5.210   7.604 -0.6505  0.4067  1.6005
   35CHL1  H19B 2558   1.683   5.237   7.614 -0.5336 -0.7577 -0.1886
   35CHL1  H19C 2559   1.750   5.204   7.461  0.8513 -1.6551  1.3684
   35CHL1    C1 2560   1.629   5.451   7.460  0.4473  0.5010  0.0589
   35CHL1   H1A 2561   1.555   5.406   7.529 -0.6820  0.7717 -0.9358
   35CHL1   H1B 2562   1.613   5.560   7.455 -1.8168  0.2231 -0.1683
   35CHL1    C2 2563   1.611   5.406   7.306  0.4173  0.4305  0.2567
   35CHL1   H2A 2564   1.511   5.445   7.278 -0.7506 -3.4630 -1.8441
   35CHL1   H2B 2565   1.617   5.295   7.315 -0.0626  0.3665 -0.1916
   35CHL1   C20 2566   1.902   5.568   8.206  0.3985 -0.1011  0.0687
   35CHL1   H20 2567   1.919   5.461   8.228  0.4692  0.3799  2.6714
   35CHL1   C21 2568   1.752   5.608   8.215 -0.1440  0.2030  0.5488
   35CHL1  H21A 2569   1.717   5.600   8.320 -1.8926 -0.3519 -0.0323
   35CHL1  H21B 2570   1.691   5.522   8.179  0.1586  0.3232 -0.2758
   35CHL1  H21C 2571   1.722   5.704   8.167  1.2269  1.6133  2.3589
   35CHL1   C22 2572   1.998   5.634   8.315  0.3339  0.1606  0.8452
   35CHL1  H22A 2573   2.100   5.591   8.302  1.5720  2.6584  1.6717
   35CHL1  H22B 2574   1.989   5.741   8.285 -1.4759  0.2125  1.4578
   35CHL1   C23 2575   1.953   5.613   8.459  0.4675 -0.1671  0.5172
   35CHL1  H23A 2576   1.850   5.651   8.468  0.1208  0.0134 -2.7606
   35CHL1  H23B 2577   1.946   5.504   8.481 -0.9243 -0.4583 -1.1533
   35CHL1   C24 2578   2.057   5.679   8.549  0.5237 -0.1883  0.2480
   35CHL1  H24A 2579   2.160   5.642   8.526 -0.0217 -0.0134 -2.8684
   35CHL1  H24B 2580   2.055   5.789   8.534  0.6155 -0.2728 -0.4181
   35CHL1   C25 2581   2.051   5.637   8.699  0.5625 -0.2300  0.3552
   35CHL1   H25 2582   2.046   5.527   8.708 -1.2608 -0.0696  1.9343
   35CHL1   C26 2583   2.179   5.678   8.779  0.1836 -0.1314  0.1165
   35CHL1  H26A 2584   2.268   5.660   8.714  0.1606 -0.2961  0.1296
   35CHL1  H26B 2585   2.181   5.785   8.810  1.7291  0.1367 -0.7585
   35CHL1  H26C 2586   2.192   5.610   8.866 -0.2195 -1.3224 -0.7278
   35CHL1   C27 2587   1.921   5.692   8.764 -0.7844 -0.6282 -0.0700
   35CHL1  H27A 2588   1.837   5.674   8.694 -1.2168 -0.0091  0.2855
   35CHL1  H27B 2589   1.924   5.802   8.778 -0.0113 -0.6090 -0.3181
   35CHL1  H27C 2590   1.895   5.637   8.857 -1.8638  1.1998  0.7553
   36CHL1    C3 2591   1.719   0.137   7.253  0.0218  0.3230 -0.5096
   36CHL1    H3 2592   1.704   0.028   7.243 -0.3355  0.4588 -1.5760
   36CHL1    O3 2593   1.821   0.177   7.161  0.0108 -0.0607 -0.2393
   36CHL1   H3' 2594   1.801   0.134   7.078  1.0952 -2.5462  0.6955
   36CHL1    C4 2595   1.587   0.207   7.220  0.1273  0.3585  0.0487
   36CHL1   H4A 2596   1.612   0.316   7.219 -1.7553  0.9749 -3.9996
   36CHL1   H4B 2597   1.552   0.179   7.118  1.1728  0.8771 -0.4717
   36CHL1    C5 2598   1.480   0.167   7.313  0.2743 -0.1535 -0.2265
   36CHL1    C6 2599   1.364   0.116   7.272 -0.2723 -0.4411 -0.1526
   36CHL1    H6 2600   1.353   0.105   7.163  0.4597  1.3980 -0.4635
   36CHL1    C7 2601   1.250   0.084   7.356 -0.6192  0.6333  0.0846
   36CHL1   H7A 2602   1.155   0.126   7.315 -1.1990 -1.8016 -1.2233
   36CHL1   H7B 2603   1.227  -0.025   7.355  1.4982  0.1415 -1.3477
   36CHL1    C8 2604   1.276   0.125   7.509  1.3449  0.5724 -0.3926
   36CHL1    H8 2605   1.251   0.233   7.511  0.6732  0.4189 -0.2429
   36CHL1   C14 2606   1.180   0.050   7.606 -0.0943  0.4300  0.4234
   36CHL1   H14 2607   1.219  -0.053   7.594 -0.7597  0.4239 -2.2455
   36CHL1   C15 2608   1.026   0.048   7.584 -0.0344  0.0559  0.2616
   36CHL1  H15A 2609   0.990   0.152   7.571 -0.3824 -0.1553 -0.5818
   36CHL1  H15B 2610   0.999  -0.013   7.494 -0.0101 -0.9839  0.9383
   36CHL1   C16 2611   0.962  -0.014   7.710  0.0270  0.3958 -0.2585
   36CHL1  H16A 2612   0.884   0.056   7.747  2.4606  2.4831  1.3466
   36CHL1  H16B 2613   0.929  -0.117   7.687  0.3519  0.0295  0.8755
   36CHL1   C17 2614   1.085  -0.024   7.805  0.8899 -0.4207 -0.5197
   36CHL1   H17 2615   1.138  -0.119   7.782 -2.0279 -2.2910  0.0563
   36CHL1   C13 2616   1.193   0.078   7.756  0.2383 -0.2274  0.3887
   36CHL1   C18 2617   1.154   0.224   7.785  0.9421  0.7468  0.1114
   36CHL1  H18A 2618   1.204   0.303   7.724  0.4933  0.6297 -0.4108
   36CHL1  H18B 2619   1.046   0.246   7.778  0.8383 -0.0213 -0.8494
   36CHL1  H18C 2620   1.174   0.240   7.894 -1.7458 -0.2496  0.8182
   36CHL1   C12 2621   1.335   0.046   7.801 -0.2938  0.4301 -0.0733
   36CHL1  H12A 2622   1.333   0.070   7.910  0.9864  0.4301 -0.0326
   36CHL1  H12B 2623   1.362  -0.061   7.794  2.7498  0.9062  2.2002
   36CHL1   C11 2624   1.439   0.125   7.718  1.1320 -0.3101 -0.1236
   36CHL1  H11A 2625   1.416   0.232   7.738 -1.5185 -0.3495 -2.2953
   36CHL1  H11B 2626   1.541   0.091   7.745  2.2702  2.9296  0.0964
   36CHL1    C9 2627   1.422   0.099   7.557 -0.3030  0.2109  0.3448
   36CHL1    H9 2628   1.451  -0.008   7.549 -0.8688  0.0786 -0.0345
   36CHL1   C10 2629   1.516   0.178   7.461 -0.2455 -0.2570 -0.4754
   36CHL1   C19 2630   1.519   0.327   7.507  0.0529 -0.8597  0.2234
   36CHL1  H19A 2631   1.541   0.326   7.615 -2.3483 -0.7427  0.7757
   36CHL1  H19B 2632   1.597   0.385   7.452 -0.5808  0.4836  0.7127
   36CHL1  H19C 2633   1.420   0.374   7.490  1.0578  1.7230  0.9532
   36CHL1    C1 2634   1.658   0.123   7.487 -0.2495 -0.3508  0.4092
   36CHL1   H1A 2635   1.691   0.161   7.586  2.2220  2.9983 -1.4647
   36CHL1   H1B 2636   1.652   0.013   7.472  1.1824 -0.7601  2.4422
   36CHL1    C2 2637   1.766   0.175   7.393 -0.5486 -0.5885  0.1980
   36CHL1   H2A 2638   1.861   0.121   7.409 -1.9227 -2.7684  1.4616
   36CHL1   H2B 2639   1.778   0.286   7.396 -0.7662 -0.4632 -2.0348
   36CHL1   C20 2640   1.057  -0.018   7.959  0.1555 -0.0280  0.2937
   36CHL1   H20 2641   1.135   0.041   8.012  0.8878 -0.8248  0.1275
   36CHL1   C21 2642   1.076  -0.169   8.004  0.3304 -0.7275  0.3178
   36CHL1  H21A 2643   1.039  -0.190   8.107 -1.1047  1.2555  0.2676
   36CHL1  H21B 2644   1.184  -0.192   7.999  0.8924  0.9621  2.7355
   36CHL1  H21C 2645   1.004  -0.225   7.940 -0.8884 -1.2330  2.0579
   36CHL1   C22 2646   0.925   0.043   7.994  0.3133  0.1668 -0.2340
   36CHL1  H22A 2647   0.915   0.146   7.953  1.5374  1.5331  2.6371
   36CHL1  H22B 2648   0.836  -0.015   7.961  0.3366  0.2572 -0.4594
   36CHL1   C23 2649   0.899   0.056   8.142 -0.3189  0.2592  0.2869
   36CHL1  H23A 2650   0.900  -0.039   8.199 -0.0249  1.6316  2.7235
   36CHL1  H23B 2651   0.975   0.117   8.196 -0.5119  0.7051  0.0626
   36CHL1   C24 2652   0.754   0.101   8.172  0.6545 -0.5650  0.2504
   36CHL1  H24A 2653   0.719   0.183   8.106  1.7713  0.3118  0.7162
   36CHL1  H24B 2654   0.688   0.017   8.140 -0.3580 -0.1076  1.1048
   36CHL1   C25 2655   0.715   0.133   8.316  0.4569 -0.5802 -0.8942
   36CHL1   H25 2656   0.787   0.212   8.344  1.4763 -1.5074 -0.8293
   36CHL1   C26 2657   0.571   0.196   8.327 -0.5211  0.4935 -0.0611
   36CHL1  H26A 2658   0.560   0.240   8.429  0.3826  1.9954 -0.5929
   36CHL1  H26B 2659   0.558   0.277   8.253  1.7569  0.7690 -0.2452
   36CHL1  H26C 2660   0.489   0.122   8.319 -1.4966  1.5383  0.0040
   36CHL1   C27 2661   0.724   0.021   8.416 -0.2343  0.4098  0.6666
   36CHL1  H27A 2662   0.669  -0.067   8.376  0.3534  0.1745  0.3608
   36CHL1  H27B 2663   0.827  -0.012   8.442 -0.0630 -0.4749 -1.0474
   36CHL1  H27C 2664   0.692   0.056   8.517 -0.1123  1.0188  0.4941
   37CHL1    C3 2665   5.588   2.053   6.768 -0.6602 -0.3185  0.1799
   37CHL1    H3 2666   5.502   1.987   6.794 -1.0050 -0.2368 -0.7338
   37CHL1    O3 2667   5.643   2.007   6.645 -0.6460  0.4105  0.3195
   37CHL1   H3' 2668   5.729   2.048   6.642  0.1752 -1.2634 -0.4471
   37CHL1    C4 2669   5.544   2.202   6.758 -0.7062  0.2724  0.3476
   37CHL1   H4A 2670   5.625   2.263   6.711  1.5916 -4.1353 -2.0842
   37CHL1   H4B 2671   5.466   2.209   6.680  1.0459 -1.1980 -1.6437
   37CHL1    C5 2672   5.485   2.269   6.879 -0.3797  0.0058 -0.6216
   37CHL1    C6 2673   5.370   2.330   6.892  0.5042 -0.1093  0.3652
   37CHL1    H6 2674   5.295   2.336   6.812  0.2999 -0.2085  0.5479
   37CHL1    C7 2675   5.321   2.396   7.020  0.0740  0.4471  0.5707
   37CHL1   H7A 2676   5.288   2.499   6.996 -0.0276  0.2869 -0.0018
   37CHL1   H7B 2677   5.228   2.344   7.051 -0.7396  0.5721 -1.5241
   37CHL1    C8 2678   5.427   2.401   7.137 -0.2048 -0.3935 -0.2153
   37CHL1    H8 2679   5.497   2.487   7.124  0.2209 -0.5262  0.9903
   37CHL1   C14 2680   5.345   2.432   7.267  0.8789 -0.1812  0.0952
   37CHL1   H14 2681   5.265   2.355   7.271  0.2725  0.4872  1.2356
   37CHL1   C15 2682   5.268   2.564   7.282 -0.8229 -0.2716 -0.7621
   37CHL1  H15A 2683   5.325   2.658   7.263 -1.6959  1.0982  2.5990
   37CHL1  H15B 2684   5.171   2.560   7.228 -0.9151 -1.5848 -0.5299
   37CHL1   C16 2685   5.248   2.570   7.436  1.2498 -0.4065  1.3383
   37CHL1  H16A 2686   5.287   2.670   7.465  1.4200 -0.4706  1.3323
   37CHL1  H16B 2687   5.140   2.582   7.460  0.9852 -0.1096  0.0573
   37CHL1   C17 2688   5.315   2.450   7.499 -0.5053  0.3320 -0.4933
   37CHL1   H17 2689   5.244   2.365   7.486  1.4608 -1.1158 -2.9882
   37CHL1   C13 2690   5.424   2.416   7.393 -1.1029  0.1012  0.1516
   37CHL1   C18 2691   5.530   2.527   7.402 -0.3443  0.1088  0.2702
   37CHL1  H18A 2692   5.608   2.501   7.476 -2.0928 -0.0688  2.1365
   37CHL1  H18B 2693   5.588   2.543   7.309  1.9205 -1.0745  1.3981
   37CHL1  H18C 2694   5.500   2.633   7.415  0.0130  0.2957 -0.3913
   37CHL1   C12 2695   5.498   2.283   7.393 -0.3610  0.2925  0.4337
   37CHL1  H12A 2696   5.564   2.274   7.482 -0.2547 -2.1370  0.1850
   37CHL1  H12B 2697   5.424   2.201   7.388 -0.0131 -0.0171  0.2771
   37CHL1   C11 2698   5.580   2.261   7.265 -0.4846  0.0686  0.6979
   37CHL1  H11A 2699   5.661   2.337   7.265  0.0007 -0.4231 -0.6168
   37CHL1  H11B 2700   5.623   2.160   7.276  2.9044  1.1664 -1.1002
   37CHL1    C9 2701   5.505   2.273   7.136 -0.9592 -0.1460  0.5068
   37CHL1    H9 2702   5.433   2.191   7.154 -0.5579 -0.1231  2.4502
   37CHL1   C10 2703   5.580   2.252   6.999  0.6238  0.7650 -0.1627
   37CHL1   C19 2704   5.695   2.355   6.992  0.2464 -0.0191 -0.5674
   37CHL1  H19A 2705   5.653   2.454   6.967 -1.6726 -0.9452 -1.2135
   37CHL1  H19B 2706   5.748   2.352   7.090 -0.6717 -1.0225 -0.0848
   37CHL1  H19C 2707   5.769   2.330   6.913  0.6274 -2.3873  0.4314
   37CHL1    C1 2708   5.634   2.107   7.006 -0.2589 -0.1226  0.3572
   37CHL1   H1A 2709   5.717   2.100   7.079  0.8876  2.8776 -0.5007
   37CHL1   H1B 2710   5.554   2.048   7.056 -2.5358  2.6583  0.2700
   37CHL1    C2 2711   5.694   2.051   6.880 -0.3236  0.0297  0.2192
   37CHL1   H2A 2712   5.738   1.950   6.895  1.8400  0.3297 -3.0977
   37CHL1   H2B 2713   5.782   2.113   6.853  0.6068 -1.2852  0.0877
   37CHL1   C20 2714   5.356   2.481   7.642  0.0847 -0.7364  0.0814
   37CHL1   H20 2715   5.425   2.568   7.646  0.3323 -0.9315  0.1143
   37CHL1   C21 2716   5.426   2.363   7.712 -0.4434  0.3304  0.2198
   37CHL1  H21A 2717   5.536   2.359   7.699 -0.1707  1.1285  2.0014
   37CHL1  H21B 2718   5.394   2.268   7.664  2.5145 -0.8727  0.4370
   37CHL1  H21C 2719   5.409   2.358   7.822 -0.3671 -0.6857  0.1912
   37CHL1   C22 2720   5.239   2.528   7.730  0.3379 -0.9328 -0.1387
   37CHL1  H22A 2721   5.281   2.546   7.831  1.0371  0.8290 -0.7149
   37CHL1  H22B 2722   5.191   2.618   7.686 -0.5828 -0.9655  0.7457
   37CHL1   C23 2723   5.132   2.417   7.755  0.3750  0.2746 -0.2802
   37CHL1  H23A 2724   5.088   2.378   7.661  2.7316 -0.2821 -1.2134
   37CHL1  H23B 2725   5.178   2.326   7.799 -2.9711 -1.0002  0.9336
   37CHL1   C24 2726   5.019   2.476   7.834 -0.1792  0.5772 -0.1481
   37CHL1  H24A 2727   5.064   2.517   7.927  0.6891 -1.0733  0.2073
   37CHL1  H24B 2728   4.972   2.560   7.779 -0.8655 -0.3687 -1.0747
   37CHL1   C25 2729   4.908   2.375   7.864 -0.0785  0.5857 -0.5262
   37CHL1   H25 2730   4.866   2.311   7.783 -0.1367 -0.6448  0.4316
   37CHL1   C26 2731   4.964   2.264   7.967  0.6886  0.3132  0.3188
   37CHL1  H26A 2732   4.883   2.201   8.009 -1.1361  1.9304 -0.6282
   37CHL1  H26B 2733   5.042   2.211   7.908  0.0381 -1.3293  0.8751
   37CHL1  H26C 2734   5.014   2.317   8.050 -1.0178  0.0242  1.5722
   37CHL1   C27 2735   4.791   2.450   7.930  0.7238 -0.7707  0.5055
   37CHL1  H27A 2736   4.711   2.378   7.961 -0.9398  0.3573 -0.9437
   37CHL1  H27B 2737   4.830   2.500   8.021 -1.8086 -0.3917  1.4622
   37CHL1  H27C 2738   4.738   2.515   7.856 -1.1251 -2.6236  0.0911
   38CHL1    C3 2739   3.549   3.034   6.640 -0.5646  0.1005 -0.2833
   38CHL1    H3 2740   3.484   2.944   6.642 -0.2152 -0.1757 -0.9221
   38CHL1    O3 2741   3.556   3.080   6.506  0.2418  0.2795  0.4511
   38CHL1   H3' 2742   3.623   3.149   6.503  0.0042  0.4907 -2.1316
   38CHL1    C4 2743   3.486   3.143   6.732  0.0608  0.5817 -0.1305
   38CHL1   H4A 2744   3.539   3.241   6.737  0.8121  0.2219 -0.7913
   38CHL1   H4B 2745   3.388   3.164   6.684  0.9220 -0.9550 -2.7808
   38CHL1    C5 2746   3.476   3.096   6.879 -0.0816  0.1745  0.5485
   38CHL1    C6 2747   3.362   3.099   6.950 -0.1714  0.3672  0.5356
   38CHL1    H6 2748   3.269   3.135   6.902 -1.3528 -4.0724 -1.0464
   38CHL1    C7 2749   3.350   3.047   7.086  0.5935  0.6432 -0.0310
   38CHL1   H7A 2750   3.279   3.112   7.143 -0.3423 -0.0451 -0.3852
   38CHL1   H7B 2751   3.302   2.947   7.081  0.6103  0.5895  0.7804
   38CHL1    C8 2752   3.487   3.039   7.154 -0.1584 -0.1713 -0.3071
   38CHL1    H8 2753   3.525   3.143   7.163 -0.2242 -0.3040  2.6406
   38CHL1   C14 2754   3.484   2.975   7.297 -0.4872 -0.3023  0.0525
   38CHL1   H14 2755   3.450   2.871   7.278  2.0168 -1.0668 -0.5313
   38CHL1   C15 2756   3.384   3.030   7.398 -0.1947  0.1982  0.2268
   38CHL1  H15A 2757   3.407   3.138   7.412  0.6114  0.0030  0.4899
   38CHL1  H15B 2758   3.278   3.029   7.366 -0.0094 -0.0989 -0.3886
   38CHL1   C16 2759   3.428   2.958   7.526 -0.8075 -0.5332  0.0703
   38CHL1  H16A 2760   3.449   3.030   7.608 -2.1408  0.4700 -0.4278
   38CHL1  H16B 2761   3.356   2.877   7.550 -1.9745  0.1519 -1.0083
   38CHL1   C17 2762   3.575   2.896   7.497  0.4980  0.1392 -0.2369
   38CHL1   H17 2763   3.561   2.788   7.473 -0.9233  0.0776  0.7564
   38CHL1   C13 2764   3.619   2.955   7.365 -0.2807 -0.9396 -0.1521
   38CHL1   C18 2765   3.691   3.091   7.394 -0.8985 -1.0046 -0.6232
   38CHL1  H18A 2766   3.631   3.145   7.470  0.5587  1.8021 -1.3353
   38CHL1  H18B 2767   3.798   3.086   7.426 -1.3122 -0.5841  0.8889
   38CHL1  H18C 2768   3.703   3.165   7.312  1.4748  0.1171  0.6180
   38CHL1   C12 2769   3.705   2.867   7.281 -0.7538  0.0348  0.0631
   38CHL1  H12A 2770   3.797   2.853   7.342 -0.5755 -0.3847 -0.2973
   38CHL1  H12B 2771   3.680   2.761   7.263  0.1537 -0.5428  1.9892
   38CHL1   C11 2772   3.721   2.922   7.146 -0.3990 -1.3523  0.3702
   38CHL1  H11A 2773   3.789   3.010   7.148 -1.6074 -0.3566 -0.6124
   38CHL1  H11B 2774   3.772   2.846   7.082 -1.0139 -2.4452  1.1396
   38CHL1    C9 2775   3.588   2.968   7.068 -0.7299 -0.5131 -0.2896
   38CHL1    H9 2776   3.541   2.871   7.043  2.3625 -1.7204 -1.9723
   38CHL1   C10 2777   3.609   3.038   6.933 -0.7293 -0.2457  0.2653
   38CHL1   C19 2778   3.708   3.156   6.961  0.0335  0.2717  0.2252
   38CHL1  H19A 2779   3.667   3.214   7.047  1.1332  2.6999 -0.7959
   38CHL1  H19B 2780   3.811   3.138   6.999 -0.2361  3.6609  3.1584
   38CHL1  H19C 2781   3.732   3.214   6.870  0.5713  0.2238  0.3291
   38CHL1    C1 2782   3.672   2.935   6.836  0.6366  0.0342  0.9786
   38CHL1   H1A 2783   3.774   2.909   6.872  0.7719 -0.1889  0.4511
   38CHL1   H1B 2784   3.607   2.845   6.830 -0.0757  0.5883  0.2169
   38CHL1    C2 2785   3.684   2.994   6.693  0.6554 -1.1558 -0.5762
   38CHL1   H2A 2786   3.746   2.928   6.628 -0.0067  0.0742 -2.5433
   38CHL1   H2B 2787   3.747   3.085   6.701 -0.2875 -0.2756 -2.6147
   38CHL1   C20 2788   3.662   2.886   7.626  0.0298 -0.5093 -0.4277
   38CHL1   H20 2789   3.675   2.990   7.662  1.8047 -1.6142  2.5636
   38CHL1   C21 2790   3.797   2.817   7.607  0.3483 -0.5655 -0.0178
   38CHL1  H21A 2791   3.866   2.875   7.542  1.6185 -1.3160  0.6263
   38CHL1  H21B 2792   3.789   2.716   7.562  0.3065 -0.5995  0.0654
   38CHL1  H21C 2793   3.848   2.799   7.704  3.4255 -1.2059 -1.6325
   38CHL1   C22 2794   3.582   2.811   7.734  0.4825 -0.3326 -0.0979
   38CHL1  H22A 2795   3.503   2.877   7.775  0.0809  0.1358 -1.5591
   38CHL1  H22B 2796   3.538   2.722   7.683  0.3279 -0.5567  0.4173
   38CHL1   C23 2797   3.648   2.759   7.858 -1.1318  0.6812 -0.4929
   38CHL1  H23A 2798   3.717   2.677   7.830  0.8196  2.7176 -2.0316
   38CHL1  H23B 2799   3.709   2.839   7.907 -1.4939 -0.6505  2.3287
   38CHL1   C24 2800   3.550   2.701   7.965 -0.0272  0.2350  0.2419
   38CHL1  H24A 2801   3.487   2.782   8.007 -0.6795 -0.8015  1.3271
   38CHL1  H24B 2802   3.487   2.616   7.929  0.5130 -0.6766  1.3748
   38CHL1   C25 2803   3.617   2.646   8.093 -0.4043 -0.0530  0.5233
   38CHL1   H25 2804   3.654   2.743   8.133  0.7936  0.7667 -2.2888
   38CHL1   C26 2805   3.531   2.589   8.203 -0.1085 -0.0086  0.3270
   38CHL1  H26A 2806   3.478   2.497   8.171 -0.3651  0.3523 -0.3059
   38CHL1  H26B 2807   3.589   2.571   8.296 -1.2530  0.8349  1.2336
   38CHL1  H26C 2808   3.452   2.657   8.241  0.4612  1.4786 -1.0212
   38CHL1   C27 2809   3.744   2.555   8.075 -0.8235 -0.1363 -0.2529
   38CHL1  H27A 2810   3.721   2.458   8.028  1.6512 -1.0014  0.1417
   38CHL1  H27B 2811   3.811   2.605   8.002 -1.2134  0.8397  0.0321
   38CHL1  H27C 2812   3.795   2.546   8.174  1.9287  1.3463 -1.4145
   39CHL1    C3 2813   3.177   0.791   6.991  0.4077  0.4913  0.5913
   39CHL1    H3 2814   3.243   0.707   7.021 -1.0667 -0.7087  0.5505
   39CHL1    O3 2815   3.154   0.796   6.853 -0.1113 -0.1498  0.2267
   39CHL1   H3' 2816   3.091   0.865   6.831 -0.0064 -0.2242 -0.3375
   39CHL1    C4 2817   3.045   0.761   7.066 -0.1334 -0.6803 -0.3047
   39CHL1   H4A 2818   2.982   0.844   7.028  1.3111  0.5256 -0.1639
   39CHL1   H4B 2819   2.993   0.671   7.028 -3.4459  0.4773  1.0607
   39CHL1    C5 2820   3.049   0.772   7.212  0.6167 -0.3998 -0.0951
   39CHL1    C6 2821   3.021   0.667   7.288  0.4134  0.1104 -0.2895
   39CHL1    H6 2822   2.981   0.577   7.241  0.8665  0.6116 -1.6669
   39CHL1    C7 2823   3.032   0.661   7.438  0.1557  0.0877  0.6659
   39CHL1   H7A 2824   2.937   0.610   7.466  0.5132 -0.4627  0.8946
   39CHL1   H7B 2825   3.114   0.592   7.466 -0.2845 -0.6081  0.2876
   39CHL1    C8 2826   3.058   0.792   7.499 -0.0839  0.0321 -0.4245
   39CHL1    H8 2827   2.961   0.845   7.487  0.3000  1.1151  1.0220
   39CHL1   C14 2828   3.105   0.774   7.638  0.2937 -0.1213  0.2308
   39CHL1   H14 2829   3.199   0.717   7.621  0.7066  0.8047 -0.7371
   39CHL1   C15 2830   3.029   0.686   7.738 -0.3036 -0.0899 -0.2029
   39CHL1  H15A 2831   2.922   0.715   7.738 -0.4027 -0.4066  1.0582
   39CHL1  H15B 2832   3.043   0.578   7.714 -1.5202 -0.0327 -1.2865
   39CHL1   C16 2833   3.098   0.719   7.874  0.0708  1.4350 -0.9263
   39CHL1  H16A 2834   3.019   0.741   7.949  2.1214  1.4335  1.3739
   39CHL1  H16B 2835   3.163   0.637   7.911 -2.4693  0.3859  1.6147
   39CHL1   C17 2836   3.191   0.841   7.850  0.0870  0.0550  0.6882
   39CHL1   H17 2837   3.295   0.805   7.837  0.1238 -0.4285  2.1644
   39CHL1   C13 2838   3.143   0.902   7.714 -0.5374 -0.5518  0.0119
   39CHL1   C18 2839   3.019   0.995   7.734 -0.1090  0.0829 -0.0481
   39CHL1  H18A 2840   2.945   0.926   7.781  0.2586  0.3216  0.9079
   39CHL1  H18B 2841   3.022   1.074   7.812  0.6259 -0.3071  0.3291
   39CHL1  H18C 2842   2.986   1.032   7.635 -1.2742  0.4582  0.4629
   39CHL1   C12 2843   3.253   0.978   7.636 -0.3531  0.8263  0.1109
   39CHL1  H12A 2844   3.271   1.074   7.689 -0.6228  0.8030  0.2444
   39CHL1  H12B 2845   3.345   0.917   7.647 -0.0115  1.1340 -0.9545
   39CHL1   C11 2846   3.213   1.000   7.487  0.6619  0.8782 -0.8331
   39CHL1  H11A 2847   3.137   1.082   7.483 -0.8492 -0.5380 -2.9554
   39CHL1  H11B 2848   3.309   1.037   7.445  1.1810 -1.8372 -2.2402
   39CHL1    C9 2849   3.164   0.868   7.415 -0.2642 -1.2056  0.7308
   39CHL1    H9 2850   3.255   0.804   7.411 -0.4060 -1.3911  0.4192
   39CHL1   C10 2851   3.116   0.899   7.271  0.7918 -0.3370  0.6918
   39CHL1   C19 2852   3.019   1.020   7.273  0.2173  0.0247 -0.7143
   39CHL1  H19A 2853   2.958   1.027   7.180  1.3818  1.2701 -1.4179
   39CHL1  H19B 2854   2.949   1.002   7.357  1.3506 -3.6436 -0.3582
   39CHL1  H19C 2855   3.074   1.116   7.274  0.3285 -0.0367 -0.8379
   39CHL1    C1 2856   3.240   0.927   7.187 -0.8573  0.4874 -0.6759
   39CHL1   H1A 2857   3.282   1.022   7.225 -0.0307 -0.3654  0.5983
   39CHL1   H1B 2858   3.323   0.857   7.212 -2.7065 -0.6198  3.1068
   39CHL1    C2 2859   3.233   0.930   7.033  0.8902 -0.4045 -0.3529
   39CHL1   H2A 2860   3.328   0.961   6.985  0.3937  1.3121 -0.2967
   39CHL1   H2B 2861   3.169   1.017   7.004 -0.2393 -0.3346  2.1033
   39CHL1   C20 2862   3.195   0.923   7.985  0.1545  0.5610  0.1305
   39CHL1   H20 2863   3.089   0.956   7.999  0.1600  0.0299  1.6912
   39CHL1   C21 2864   3.289   1.036   7.967  0.8137 -0.0976 -0.2033
   39CHL1  H21A 2865   3.257   1.112   7.892  0.9883 -0.8483 -1.0662
   39CHL1  H21B 2866   3.391   1.005   7.935  1.6186  1.1289  1.0689
   39CHL1  H21C 2867   3.301   1.088   8.064 -0.2797 -0.5958  0.2174
   39CHL1   C22 2868   3.236   0.834   8.105 -0.3053 -0.1363 -0.5224
   39CHL1  H22A 2869   3.172   0.743   8.109  2.2932 -2.0927 -0.8451
   39CHL1  H22B 2870   3.338   0.794   8.089  0.2028 -0.0733  2.1551
   39CHL1   C23 2871   3.232   0.910   8.235 -0.2776  0.6180 -0.0062
   39CHL1  H23A 2872   3.332   0.959   8.238  0.3349 -0.4015 -1.9413
   39CHL1  H23B 2873   3.149   0.983   8.232  0.3867  1.4050 -3.6391
   39CHL1   C24 2874   3.228   0.793   8.342  0.7122  0.0582  0.8813
   39CHL1  H24A 2875   3.130   0.741   8.330  1.3659 -0.8043 -1.1939
   39CHL1  H24B 2876   3.302   0.712   8.324  1.2063  1.0611 -2.1162
   39CHL1   C25 2877   3.237   0.837   8.483 -0.3577 -0.5189 -0.3684
   39CHL1   H25 2878   3.167   0.923   8.494  0.1575 -0.0790 -0.4938
   39CHL1   C26 2879   3.190   0.724   8.580  0.0785  0.1875 -1.2526
   39CHL1  H26A 2880   3.274   0.653   8.589 -0.5222 -0.7046 -2.3504
   39CHL1  H26B 2881   3.151   0.771   8.673 -0.2694  1.0142 -1.8001
   39CHL1  H26C 2882   3.107   0.667   8.533 -0.8793  0.8294 -0.3897
   39CHL1   C27 2883   3.376   0.890   8.534  0.1297  0.3261  0.0643
   39CHL1  H27A 2884   3.375   0.930   8.638 -1.0553 -0.1524  0.2470
   39CHL1  H27B 2885   3.441   0.800   8.541  1.4560  1.3612  2.7813
   39CHL1  H27C 2886   3.417   0.967   8.465  1.3232 -0.8946 -0.6242
   40CHL1    C3 2887   2.445   5.334   7.001 -0.3900  0.0202  0.7023
   40CHL1    H3 2888   2.498   5.412   7.060  0.5392  1.5189 -1.9378
   40CHL1    O3 2889   2.469   5.357   6.868 -0.5504  0.5355  0.1927
   40CHL1   H3' 2890   2.425   5.286   6.822 -1.0674  0.9347  0.0716
   40CHL1    C4 2891   2.507   5.197   7.041 -0.6210 -0.4491 -0.0581
   40CHL1   H4A 2892   2.476   5.122   6.965 -0.7750  1.2383 -1.7220
   40CHL1   H4B 2893   2.618   5.198   7.031 -0.3830  1.3488  2.0585
   40CHL1    C5 2894   2.474   5.165   7.191 -0.0368  0.1994 -0.0671
   40CHL1    C6 2895   2.573   5.151   7.285  0.1200 -0.3072 -0.7527
   40CHL1    H6 2896   2.680   5.144   7.258  0.7862  0.9847  1.2852
   40CHL1    C7 2897   2.544   5.095   7.420 -0.7109  0.1816  0.2710
   40CHL1   H7A 2898   2.605   5.005   7.445 -1.4581 -0.0230  1.4206
   40CHL1   H7B 2899   2.569   5.167   7.500 -0.0465  0.7963 -0.4743
   40CHL1    C8 2900   2.396   5.048   7.441  0.2008  0.7135 -0.0892
   40CHL1    H8 2901   2.385   4.943   7.407 -0.6554 -0.4211  3.2893
   40CHL1   C14 2902   2.368   5.048   7.591 -0.5631  0.2537  0.4414
   40CHL1   H14 2903   2.372   5.155   7.622 -1.9214  0.6805 -0.7708
   40CHL1   C15 2904   2.462   4.976   7.689  0.4224  0.1096 -0.0707
   40CHL1  H15A 2905   2.467   4.870   7.656  0.9499 -0.1961  0.9527
   40CHL1  H15B 2906   2.565   5.018   7.698  0.7659 -1.0465  1.9449
   40CHL1   C16 2907   2.380   4.983   7.818  0.2374  0.4479 -0.1844
   40CHL1  H16A 2908   2.365   4.880   7.858  0.6198 -0.0766 -1.3484
   40CHL1  H16B 2909   2.421   5.041   7.903 -0.4013  0.8960 -0.1747
   40CHL1   C17 2910   2.242   5.048   7.784 -0.2527  0.3273 -0.2030
   40CHL1   H17 2911   2.256   5.157   7.805  3.0125 -0.3307  1.7675
   40CHL1   C13 2912   2.223   5.016   7.634 -0.5754 -1.1304 -0.4608
   40CHL1   C18 2913   2.192   4.863   7.609  0.1248  0.2300  0.2512
   40CHL1  H18A 2914   2.268   4.802   7.664  1.7553  0.6758 -1.4060
   40CHL1  H18B 2915   2.092   4.853   7.655  0.8203  1.4221  2.1591
   40CHL1  H18C 2916   2.192   4.832   7.503 -0.4395 -0.9615  0.5794
   40CHL1   C12 2917   2.126   5.103   7.561 -0.5109  0.1251 -0.8958
   40CHL1  H12A 2918   2.024   5.063   7.579 -0.4872 -0.9340 -2.8535
   40CHL1  H12B 2919   2.145   5.207   7.594 -1.9916  0.5496 -1.3333
   40CHL1   C11 2920   2.150   5.102   7.407 -0.1153 -0.4914  0.5101
   40CHL1  H11A 2921   2.136   4.993   7.389  0.3884 -0.7697  1.6757
   40CHL1  H11B 2922   2.077   5.161   7.348  0.1390  0.3603  1.0307
   40CHL1    C9 2923   2.299   5.138   7.373  0.5839  0.8722  0.3799
   40CHL1    H9 2924   2.324   5.230   7.429  0.3123 -0.2280  2.4060
   40CHL1   C10 2925   2.321   5.152   7.219 -0.0510  0.3243  0.0820
   40CHL1   C19 2926   2.259   5.033   7.148 -0.2632  1.3719 -0.0209
   40CHL1  H19A 2927   2.272   5.046   7.039 -1.7505  1.0852 -0.2551
   40CHL1  H19B 2928   2.299   4.932   7.170 -0.2473  1.1661 -0.9762
   40CHL1  H19C 2929   2.149   5.027   7.166 -0.1247 -0.5217  0.4054
   40CHL1    C1 2930   2.267   5.292   7.178  0.2287 -0.0141  0.3028
   40CHL1   H1A 2931   2.159   5.280   7.200  0.5687 -4.9620  0.3496
   40CHL1   H1B 2932   2.313   5.369   7.244  0.7683 -0.6119  0.6373
   40CHL1    C2 2933   2.294   5.327   7.030 -0.2762  0.1420 -0.6985
   40CHL1   H2A 2934   2.248   5.426   7.011  0.7358  0.3534 -2.1151
   40CHL1   H2B 2935   2.252   5.254   6.957  0.0080 -0.7896  0.0320
   40CHL1   C20 2936   2.138   4.983   7.886 -0.0820 -0.0230  0.1791
   40CHL1   H20 2937   2.138   4.874   7.867  1.2560 -0.4642  2.3555
   40CHL1   C21 2938   2.004   5.048   7.868 -0.4723  0.3855 -0.5405
   40CHL1  H21A 2939   2.004   5.159   7.861 -0.4434  0.2585 -3.6426
   40CHL1  H21B 2940   1.947   5.012   7.957  0.5199  0.9987  0.3604
   40CHL1  H21C 2941   1.963   5.013   7.771 -0.1081  2.6867 -1.5788
   40CHL1   C22 2942   2.188   4.989   8.033 -0.1972  0.0253  0.2110
   40CHL1  H22A 2943   2.112   4.936   8.094 -0.5033  1.5948  1.2501
   40CHL1  H22B 2944   2.280   4.927   8.030 -0.9257 -1.0492 -0.5127
   40CHL1   C23 2945   2.202   5.132   8.088 -0.0962  0.7628  0.3469
   40CHL1  H23A 2946   2.267   5.190   8.019 -0.2077  0.8165  0.2853
   40CHL1  H23B 2947   2.098   5.173   8.091 -1.4530 -2.3722 -0.4391
   40CHL1   C24 2948   2.271   5.130   8.226 -0.1069  0.1540  0.5155
   40CHL1  H24A 2949   2.225   5.045   8.282  0.6428  0.3275  1.4396
   40CHL1  H24B 2950   2.376   5.109   8.199 -0.0030  1.1287  0.1280
   40CHL1   C25 2951   2.269   5.267   8.308 -0.3706 -0.1606 -0.1007
   40CHL1   H25 2952   2.288   5.354   8.242 -2.0283  0.3265  0.0303
   40CHL1   C26 2953   2.132   5.301   8.372  0.1715 -0.1591  0.8924
   40CHL1  H26A 2954   2.099   5.214   8.433 -0.1729  0.2104  1.2415
   40CHL1  H26B 2955   2.139   5.393   8.433 -1.2630  2.7885 -2.9820
   40CHL1  H26C 2956   2.062   5.320   8.288  0.4437 -0.4877  0.5891
   40CHL1   C27 2957   2.374   5.266   8.417 -0.3595  0.7082 -0.0616
   40CHL1  H27A 2958   2.354   5.357   8.478  0.9374  1.1324 -0.2357
   40CHL1  H27B 2959   2.377   5.178   8.483 -1.4775  1.2039  0.6804
   40CHL1  H27C 2960   2.478   5.273   8.378  0.5979 -2.2242  1.7004
   41CHL1    C3 2961   5.755   1.561   7.058 -0.7642 -0.3157 -0.0098
   41CHL1    H3 2962   5.702   1.491   7.126  0.1512 -0.4678  0.5714
   41CHL1    O3 2963   5.771   1.511   6.925  0.4203 -0.1553  0.1461
   41CHL1   H3' 2964   5.846   1.563   6.896  3.3155 -2.1583  3.2624
   41CHL1    C4 2965   5.672   1.694   7.058 -0.2596  0.7295 -0.1661
   41CHL1   H4A 2966   5.725   1.768   6.995  2.2451  0.1701  1.1710
   41CHL1   H4B 2967   5.573   1.667   7.014  0.8933 -2.5611 -1.0430
   41CHL1    C5 2968   5.658   1.743   7.205  0.4796  0.1172  1.3081
   41CHL1    C6 2969   5.530   1.762   7.250  0.0474 -0.2232 -0.4513
   41CHL1    H6 2970   5.449   1.743   7.178  0.7034 -0.7061 -1.0764
   41CHL1    C7 2971   5.492   1.813   7.385  0.5304  0.2986  0.4483
   41CHL1   H7A 2972   5.416   1.893   7.372  1.3531  1.1984  0.9990
   41CHL1   H7B 2973   5.448   1.730   7.444  0.5150  0.6047  0.8738
   41CHL1    C8 2974   5.617   1.880   7.449 -0.1869  0.2889 -0.5624
   41CHL1    H8 2975   5.632   1.976   7.395 -2.1033 -0.2935 -2.3012
   41CHL1   C14 2976   5.589   1.882   7.602  0.4112 -0.6200 -0.4658
   41CHL1   H14 2977   5.591   1.778   7.641 -0.5522  0.3973  2.5768
   41CHL1   C15 2978   5.463   1.944   7.664  0.2895 -0.6250  1.1897
   41CHL1  H15A 2979   5.444   2.041   7.612  0.8320 -0.5315  1.1661
   41CHL1  H15B 2980   5.373   1.879   7.661 -0.4438  0.2932  2.3713
   41CHL1   C16 2981   5.495   1.970   7.809 -0.0141 -0.8693 -0.3567
   41CHL1  H16A 2982   5.464   2.073   7.835  0.0884 -1.7330  3.7462
   41CHL1  H16B 2983   5.439   1.895   7.868  1.1244  0.2496  2.2784
   41CHL1   C17 2984   5.645   1.943   7.829  0.3491  0.2355  1.1718
   41CHL1   H17 2985   5.654   1.836   7.859 -0.9226 -0.0567  0.5955
   41CHL1   C13 2986   5.704   1.940   7.687 -0.1723  0.6488 -0.0257
   41CHL1   C18 2987   5.732   2.087   7.655  0.5234 -0.2400  0.0956
   41CHL1  H18A 2988   5.814   2.120   7.722 -0.3544 -0.1664  1.1603
   41CHL1  H18B 2989   5.771   2.102   7.552 -0.7560  0.3258 -0.3275
   41CHL1  H18C 2990   5.649   2.160   7.671 -0.9612 -1.8387 -0.0332
   41CHL1   C12 2991   5.840   1.856   7.673  0.2871  0.3632  0.2697
   41CHL1  H12A 2992   5.936   1.902   7.706  0.5668 -1.3157  1.9723
   41CHL1  H12B 2993   5.827   1.756   7.718  0.8513  0.2735  0.2457
   41CHL1   C11 2994   5.866   1.854   7.520  0.5189  0.0767 -0.2980
   41CHL1  H11A 2995   5.917   1.946   7.484  2.5923 -0.3325  1.4168
   41CHL1  H11B 2996   5.934   1.768   7.503 -2.4973 -2.4254 -0.6535
   41CHL1    C9 2997   5.745   1.797   7.437  0.1547 -0.3986  0.6344
   41CHL1    H9 2998   5.710   1.698   7.476 -1.5210  0.0113  0.2618
   41CHL1   C10 2999   5.784   1.767   7.285 -0.0554  0.7027 -0.4665
   41CHL1   C19 3000   5.868   1.875   7.217 -0.0459 -0.0217 -0.1053
   41CHL1  H19A 3001   5.970   1.886   7.260  2.3595  0.1455 -5.0626
   41CHL1  H19B 3002   5.888   1.843   7.112  1.0688 -2.0780  0.6722
   41CHL1  H19C 3003   5.829   1.979   7.229  2.2479  0.8397  0.5078
   41CHL1    C1 3004   5.869   1.629   7.273  0.6349 -0.7062 -0.6853
   41CHL1   H1A 3005   5.969   1.647   7.317 -0.0662 -1.5060  1.3239
   41CHL1   H1B 3006   5.811   1.551   7.326  0.8363  0.2289  1.0004
   41CHL1    C2 3007   5.886   1.587   7.121  0.2528  0.9400  0.6345
   41CHL1   H2A 3008   5.951   1.497   7.118 -0.6794  0.2321  1.2121
   41CHL1   H2B 3009   5.953   1.658   7.067  0.0154  1.1468  0.6095
   41CHL1   C20 3010   5.704   2.031   7.941  0.2459 -0.0460  0.3704
   41CHL1   H20 3011   5.716   2.134   7.900  0.0865 -0.9097 -1.9387
   41CHL1   C21 3012   5.838   1.969   7.990 -0.0921 -0.2257 -0.5374
   41CHL1  H21A 3013   5.804   1.875   8.039  0.4137 -1.2387 -2.0570
   41CHL1  H21B 3014   5.888   2.038   8.062  2.2111 -1.0051 -1.2959
   41CHL1  H21C 3015   5.915   1.959   7.911 -0.1211  0.4830 -0.6564
   41CHL1   C22 3016   5.612   2.038   8.063 -0.3611 -0.8050 -0.4284
   41CHL1  H22A 3017   5.527   1.968   8.046  0.2228 -1.6525  0.0303
   41CHL1  H22B 3018   5.652   1.996   8.158 -2.3025 -0.5654  0.5543
   41CHL1   C23 3019   5.568   2.180   8.107 -0.4775 -0.6139 -0.4754
   41CHL1  H23A 3020   5.655   2.248   8.093 -1.1047 -0.0141 -1.6581
   41CHL1  H23B 3021   5.494   2.217   8.033 -2.5172  2.0867  2.6292
   41CHL1   C24 3022   5.507   2.189   8.244 -0.1599  0.6349 -0.3806
   41CHL1  H24A 3023   5.447   2.095   8.238 -0.7095  0.8876  0.8409
   41CHL1  H24B 3024   5.581   2.172   8.325 -1.4149 -3.5455  0.1607
   41CHL1   C25 3025   5.412   2.308   8.267 -0.0628  0.4671  1.3360
   41CHL1   H25 3026   5.461   2.404   8.243  0.7942 -0.2085  0.3420
   41CHL1   C26 3027   5.288   2.299   8.180  0.7256  0.3791 -0.3103
   41CHL1  H26A 3028   5.213   2.367   8.225  0.4752 -0.7156  1.0163
   41CHL1  H26B 3029   5.305   2.325   8.073  2.0070  0.9000  0.0133
   41CHL1  H26C 3030   5.246   2.196   8.186 -1.6380  1.2055 -1.2486
   41CHL1   C27 3031   5.375   2.318   8.412  0.1034  0.0742 -0.4005
   41CHL1  H27A 3032   5.335   2.223   8.454  1.3077 -0.6511 -0.8793
   41CHL1  H27B 3033   5.462   2.346   8.474 -0.2613  2.7055 -0.9622
   41CHL1  H27C 3034   5.297   2.396   8.426 -1.7658 -2.0556  2.1749
   42CHL1    C3 3035   4.222   5.165   6.921  0.1421  0.5257  0.3835
   42CHL1    H3 3036   4.123   5.216   6.915  0.4072  1.1599  1.2715
   42CHL1    O3 3037   4.276   5.151   6.789 -0.0525 -0.6231 -0.3499
   42CHL1   H3' 3038   4.347   5.086   6.797  1.0380  0.1425 -2.6474
   42CHL1    C4 3039   4.316   5.268   6.995  0.2354 -0.1345  0.0438
   42CHL1   H4A 3040   4.422   5.254   6.968 -0.4910  0.4260 -3.6507
   42CHL1   H4B 3041   4.290   5.364   6.946 -1.4163  0.4525  1.9343
   42CHL1    C5 3042   4.291   5.273   7.143 -0.0648  0.5277 -0.1225
   42CHL1    C6 3043   4.281   5.392   7.211  1.2169  0.1030  0.5651
   42CHL1    H6 3044   4.305   5.488   7.163  2.2350 -1.3401 -2.0391
   42CHL1    C7 3045   4.236   5.401   7.352 -0.2225 -0.5814 -0.4124
   42CHL1   H7A 3046   4.290   5.484   7.402  0.0821 -0.8095 -0.3562
   42CHL1   H7B 3047   4.128   5.424   7.360  0.0132  0.4426 -0.0321
   42CHL1    C8 3048   4.269   5.267   7.434 -0.2423 -0.1237  0.1711
   42CHL1    H8 3049   4.376   5.260   7.461 -0.7904  2.4817  3.7540
   42CHL1   C14 3050   4.205   5.285   7.572 -0.2938  0.7847 -0.0318
   42CHL1   H14 3051   4.098   5.292   7.545  0.4272  2.5617 -2.8841
   42CHL1   C15 3052   4.228   5.412   7.654  0.2866  0.5714  0.4309
   42CHL1  H15A 3053   4.337   5.432   7.655  0.3405  0.3029  0.1479
   42CHL1  H15B 3054   4.171   5.502   7.622  0.0202  0.4111  0.4468
   42CHL1   C16 3055   4.177   5.363   7.793  0.1952  0.0767  0.5489
   42CHL1  H16A 3056   4.270   5.376   7.853  0.4709  2.2530 -0.2285
   42CHL1  H16B 3057   4.093   5.427   7.826  2.0095  1.9960  1.7273
   42CHL1   C17 3058   4.145   5.210   7.786 -0.0199 -0.3745  0.1119
   42CHL1   H17 3059   4.039   5.194   7.758 -0.3616  1.6032  0.0818
   42CHL1   C13 3060   4.222   5.159   7.658  0.2414 -0.4861  0.5971
   42CHL1   C18 3061   4.370   5.146   7.696  0.0726 -0.7316  0.1645
   42CHL1  H18A 3062   4.424   5.077   7.627 -1.7696 -1.6849 -0.3904
   42CHL1  H18B 3063   4.422   5.244   7.699  1.3763 -1.3272 -1.4516
   42CHL1  H18C 3064   4.371   5.116   7.803 -1.6795  2.0230  1.0731
   42CHL1   C12 3065   4.162   5.029   7.582 -0.4313 -0.0800 -0.2942
   42CHL1  H12A 3066   4.184   4.937   7.640  0.0956  0.1795 -0.0702
   42CHL1  H12B 3067   4.056   5.055   7.565  0.3914  3.8899 -0.3350
   42CHL1   C11 3068   4.233   5.012   7.444 -0.7023 -0.7288 -0.5514
   42CHL1  H11A 3069   4.341   4.993   7.465 -0.6813  0.6230  0.7280
   42CHL1  H11B 3070   4.191   4.922   7.393  0.1038 -1.1469 -0.4973
   42CHL1    C9 3071   4.218   5.146   7.360  0.0882  0.4281 -0.8925
   42CHL1    H9 3072   4.108   5.159   7.367  0.0692 -0.4584  1.7747
   42CHL1   C10 3073   4.272   5.133   7.217 -0.5985 -0.9482 -0.2082
   42CHL1   C19 3074   4.418   5.077   7.219  0.4530  0.1633  0.4031
   42CHL1  H19A 3075   4.487   5.140   7.279 -0.6970  0.5989  1.3086
   42CHL1  H19B 3076   4.410   4.978   7.269 -0.8967  0.1256  0.1398
   42CHL1  H19C 3077   4.455   5.060   7.116 -0.1636 -0.5917  0.3028
   42CHL1    C1 3078   4.179   5.041   7.139  0.0489  0.7562  0.5657
   42CHL1   H1A 3079   4.184   4.937   7.177  2.2355  0.9849  1.0544
   42CHL1   H1B 3080   4.075   5.080   7.147  0.3310  1.1093  4.3180
   42CHL1    C2 3081   4.211   5.029   6.990 -0.2975  0.4058  0.6549
   42CHL1   H2A 3082   4.143   4.952   6.947  1.9382 -0.4360 -1.6195
   42CHL1   H2B 3083   4.315   4.989   6.987 -0.3864  0.1108  1.3465
   42CHL1   C20 3084   4.156   5.136   7.925 -0.1494  0.3230 -0.3846
   42CHL1   H20 3085   4.262   5.142   7.958  0.2251 -0.2113 -1.4727
   42CHL1   C21 3086   4.117   4.990   7.911  0.2854  0.0892  1.0461
   42CHL1  H21A 3087   4.188   4.937   7.843 -1.4910 -1.4343  0.2801
   42CHL1  H21B 3088   4.013   4.985   7.872  0.1752  0.6748  1.2490
   42CHL1  H21C 3089   4.112   4.947   8.013  2.1322  2.2892  2.1677
   42CHL1   C22 3090   4.069   5.200   8.032  0.7653 -0.5833 -0.3272
   42CHL1  H22A 3091   4.083   5.311   8.037 -3.1641 -0.0132  2.9657
   42CHL1  H22B 3092   3.964   5.182   8.002  0.5229 -0.3450  0.3498
   42CHL1   C23 3093   4.077   5.157   8.176 -0.0883 -0.2937  0.6575
   42CHL1  H23A 3094   4.012   5.067   8.185 -1.2430  0.3267 -0.9619
   42CHL1  H23B 3095   4.179   5.124   8.202  1.6314  2.1667 -2.3108
   42CHL1   C24 3096   4.033   5.270   8.278 -0.5014  0.0744  0.4315
   42CHL1  H24A 3097   4.065   5.235   8.378  0.2503  0.6982  0.4194
   42CHL1  H24B 3098   4.092   5.360   8.249 -1.5109  0.2680 -1.1751
   42CHL1   C25 3099   3.882   5.319   8.282 -0.1513 -0.8868  0.3355
   42CHL1   H25 3100   3.870   5.366   8.182 -0.3185  1.2635  1.3182
   42CHL1   C26 3101   3.780   5.207   8.284  0.2972  0.3847 -0.9371
   42CHL1  H26A 3102   3.811   5.126   8.215  0.3011 -1.3079  0.9561
   42CHL1  H26B 3103   3.774   5.160   8.385 -1.7358 -0.9895 -1.6459
   42CHL1  H26C 3104   3.676   5.241   8.266 -0.0618  0.9203  1.6555
   42CHL1   C27 3105   3.861   5.418   8.392 -0.0093  0.6368  1.3739
   42CHL1  H27A 3106   3.761   5.466   8.390  0.1642  1.0656  2.2616
   42CHL1  H27B 3107   3.934   5.501   8.388 -1.1871  1.7610  2.3688
   42CHL1  H27C 3108   3.868   5.382   8.497 -1.2966 -0.1748  1.2035
   43CHL1    C3 3109   6.325   3.019   6.841 -0.0320 -0.5812  0.1666
   43CHL1    H3 3110   6.372   2.919   6.831  3.2028  0.6957  1.2482
   43CHL1    O3 3111   6.271   3.067   6.717 -0.0884  0.2118  0.1290
   43CHL1   H3' 3112   6.185   3.026   6.708  1.7326 -3.6166 -2.8135
   43CHL1    C4 3113   6.212   3.022   6.937  0.1573  0.0494  0.1341
   43CHL1   H4A 3114   6.160   3.118   6.918  0.0188 -0.6346 -3.7073
   43CHL1   H4B 3115   6.141   2.947   6.896  0.3646  0.5900 -1.2495
   43CHL1    C5 3116   6.242   2.996   7.085  0.2336  0.3244 -0.1427
   43CHL1    C6 3117   6.185   2.900   7.154  0.6716  0.4503  0.3311
   43CHL1    H6 3118   6.112   2.831   7.109 -1.0482  2.3919  0.0203
   43CHL1    C7 3119   6.206   2.873   7.298 -0.0056  0.3235 -0.1489
   43CHL1   H7A 3120   6.117   2.836   7.353  1.3571 -5.1599 -1.0604
   43CHL1   H7B 3121   6.278   2.790   7.311 -0.4942 -0.2343 -0.8570
   43CHL1    C8 3122   6.269   3.005   7.363 -0.0378  0.2372 -0.1943
   43CHL1    H8 3123   6.182   3.074   7.364 -0.2243  0.0191  1.4490
   43CHL1   C14 3124   6.296   2.988   7.515 -0.0511 -0.9625 -0.4707
   43CHL1   H14 3125   6.384   2.921   7.522  1.3102  0.7008 -0.8654
   43CHL1   C15 3126   6.194   2.922   7.608 -0.0723 -0.5383 -0.5257
   43CHL1  H15A 3127   6.095   2.962   7.580 -0.7904 -1.6904  0.2703
   43CHL1  H15B 3128   6.202   2.811   7.611  1.5947 -0.4387  1.3584
   43CHL1   C16 3129   6.240   2.957   7.756 -0.4408 -0.2994  0.1652
   43CHL1  H16A 3130   6.155   2.996   7.817 -0.3312 -0.0933  0.1843
   43CHL1  H16B 3131   6.283   2.865   7.801 -1.3868 -1.7641 -1.7839
   43CHL1   C17 3132   6.360   3.061   7.736  0.2247 -0.1092 -0.5140
   43CHL1   H17 3133   6.451   2.996   7.737 -0.5170 -1.2366  2.1244
   43CHL1   C13 3134   6.348   3.111   7.584 -0.3170  0.5276  0.0455
   43CHL1   C18 3135   6.237   3.221   7.571  0.1742 -0.3116 -0.5004
   43CHL1  H18A 3136   6.196   3.226   7.467  2.3322  0.0321 -1.3875
   43CHL1  H18B 3137   6.158   3.185   7.640  1.0401 -0.5103  0.3929
   43CHL1  H18C 3138   6.269   3.321   7.609 -1.6264  0.6921 -1.4501
   43CHL1   C12 3139   6.483   3.150   7.516 -0.6435 -0.8227  0.0288
   43CHL1  H12A 3140   6.512   3.246   7.566 -0.7890 -0.2783 -0.9106
   43CHL1  H12B 3141   6.566   3.078   7.529 -1.3320 -1.9770 -1.6612
   43CHL1   C11 3142   6.453   3.179   7.365  0.2100 -0.7338 -0.2499
   43CHL1  H11A 3143   6.391   3.271   7.369  1.7645  0.2903  1.6419
   43CHL1  H11B 3144   6.547   3.206   7.313  0.5002 -1.6196 -0.2159
   43CHL1    C9 3145   6.386   3.070   7.288  1.3829  0.3848 -0.6101
   43CHL1    H9 3146   6.458   2.986   7.291  2.3225  1.1991  1.2798
   43CHL1   C10 3147   6.342   3.100   7.141 -0.2844 -0.3285  0.3504
   43CHL1   C19 3148   6.272   3.239   7.134  0.3451 -0.3929  0.3099
   43CHL1  H19A 3149   6.251   3.264   7.028  0.1776  1.1922  0.6952
   43CHL1  H19B 3150   6.186   3.248   7.203  1.3168 -1.2985  1.7038
   43CHL1  H19C 3151   6.350   3.314   7.160 -0.0039 -0.3965  1.4416
   43CHL1    C1 3152   6.464   3.105   7.042 -0.1856  0.0242 -0.0013
   43CHL1   H1A 3153   6.533   3.183   7.080  0.7564  0.0585 -1.7180
   43CHL1   H1B 3154   6.519   3.008   7.048 -0.4677 -0.3404 -2.2605
   43CHL1    C2 3155   6.437   3.117   6.894  0.2382 -0.3020  0.0162
   43CHL1   H2A 3156   6.531   3.101   6.836  1.2337  0.9010  1.2411
   43CHL1   H2B 3157   6.392   3.217   6.881  1.0045  0.5187  2.8844
   43CHL1   C20 3158   6.364   3.158   7.855  0.1165 -0.1315  0.4898
   43CHL1   H20 3159   6.267   3.213   7.844 -1.1723 -2.7659 -3.8540
   43CHL1   C21 3160   6.477   3.264   7.832  0.3918  0.2758  0.6321
   43CHL1  H21A 3161   6.423   3.333   7.763 -0.2077  0.2294  1.0498
   43CHL1  H21B 3162   6.570   3.210   7.803  1.8695  0.9591  3.6804
   43CHL1  H21C 3163   6.498   3.317   7.927 -0.5975  0.8876  0.5283
   43CHL1   C22 3164   6.369   3.094   7.998  0.2771  0.0783 -0.0091
   43CHL1  H22A 3165   6.359   3.171   8.078 -0.1036 -0.2768  0.2864
   43CHL1  H22B 3166   6.283   3.027   8.017  1.8831 -2.6787 -1.8175
   43CHL1   C23 3167   6.482   2.992   8.023 -0.1085 -0.7892  0.4225
   43CHL1  H23A 3168   6.462   2.916   7.943 -0.4390  1.6105 -1.9175
   43CHL1  H23B 3169   6.573   3.038   7.980 -0.8981  1.2612  0.8586
   43CHL1   C24 3170   6.494   2.938   8.164 -0.3688 -0.3828  0.4693
   43CHL1  H24A 3171   6.390   2.913   8.195  0.3708 -1.6258  2.1242
   43CHL1  H24B 3172   6.563   2.851   8.168  1.6730  1.1354 -0.0303
   43CHL1   C25 3173   6.562   3.039   8.259  0.6752 -0.4857  1.3590
   43CHL1   H25 3174   6.529   3.143   8.236  4.2126  0.6596  0.9054
   43CHL1   C26 3175   6.521   3.010   8.397 -0.2237 -0.3362 -0.1811
   43CHL1  H26A 3176   6.575   3.065   8.477 -1.0960 -2.0596  1.6725
   43CHL1  H26B 3177   6.412   3.019   8.417 -0.0972 -1.4715  1.1759
   43CHL1  H26C 3178   6.545   2.904   8.417 -0.9397 -0.2670  1.2381
   43CHL1   C27 3179   6.722   3.039   8.247  0.5954  0.5013 -0.0085
   43CHL1  H27A 3180   6.766   2.937   8.254  0.0220  0.2490 -0.0503
   43CHL1  H27B 3181   6.755   3.086   8.151  2.2767  0.4676  0.5124
   43CHL1  H27C 3182   6.761   3.094   8.335  2.2747 -1.6004  0.6300
   44CHL1    C3 3183   6.499   1.584   6.812 -0.2977  0.1961 -0.1962
   44CHL1    H3 3184   6.416   1.511   6.801 -1.3758  1.2240  0.8911
   44CHL1    O3 3185   6.545   1.638   6.690 -0.3732  0.0290  0.9374
   44CHL1   H3' 3186   6.457   1.651   6.653 -2.3572 -0.9995  4.7354
   44CHL1    C4 3187   6.452   1.698   6.905  0.6124  0.5358  0.0048
   44CHL1   H4A 3188   6.529   1.778   6.907  1.3489  0.0173 -3.0921
   44CHL1   H4B 3189   6.363   1.750   6.863  0.5282  2.8636  2.7236
   44CHL1    C5 3190   6.425   1.647   7.043  0.3283 -0.2820 -0.4599
   44CHL1    C6 3191   6.306   1.662   7.102  0.2222 -0.1556 -0.1460
   44CHL1    H6 3192   6.224   1.716   7.052  1.6810  1.5881 -0.7687
   44CHL1    C7 3193   6.274   1.626   7.243  0.3469 -0.6102  0.1049
   44CHL1   H7A 3194   6.213   1.705   7.291  2.2886  1.8677 -1.2601
   44CHL1   H7B 3195   6.218   1.530   7.243 -0.5264 -0.1167 -0.7563
   44CHL1    C8 3196   6.398   1.602   7.329 -0.6684 -0.5855  0.5970
   44CHL1    H8 3197   6.450   1.697   7.356  0.7426 -1.0947 -0.2279
   44CHL1   C14 3198   6.348   1.531   7.456 -0.6905 -0.7659  0.3410
   44CHL1   H14 3199   6.295   1.437   7.428  0.4494 -1.5972  0.8951
   44CHL1   C15 3200   6.244   1.607   7.540 -0.2285  0.4061  0.0167
   44CHL1  H15A 3201   6.244   1.718   7.549 -1.0557  0.5909 -1.6991
   44CHL1  H15B 3202   6.145   1.580   7.496 -0.8312  0.1342  1.4932
   44CHL1   C16 3203   6.261   1.549   7.679 -0.2905 -0.4103 -0.8394
   44CHL1  H16A 3204   6.310   1.621   7.748  0.0467 -0.6473 -0.8288
   44CHL1  H16B 3205   6.175   1.502   7.732  2.0604 -2.6156  1.3193
   44CHL1   C17 3206   6.365   1.428   7.663  0.4840  0.4778  0.0345
   44CHL1   H17 3207   6.312   1.336   7.629  2.6449 -0.1833 -1.8187
   44CHL1   C13 3208   6.454   1.482   7.548  0.5845  0.4922  0.1816
   44CHL1   C18 3209   6.542   1.593   7.596 -0.8972 -0.1669 -0.4967
   44CHL1  H18A 3210   6.595   1.652   7.518  0.5215  2.7419  2.4450
   44CHL1  H18B 3211   6.488   1.667   7.658 -1.0318 -0.7429  0.0836
   44CHL1  H18C 3212   6.617   1.538   7.657  1.1274 -0.4097 -3.0450
   44CHL1   C12 3213   6.538   1.382   7.463  0.3270 -0.3242 -0.2879
   44CHL1  H12A 3214   6.627   1.353   7.523  0.9778  1.7042 -0.1964
   44CHL1  H12B 3215   6.476   1.290   7.454 -3.7584  2.0437  1.1009
   44CHL1   C11 3216   6.603   1.444   7.332 -0.2060  0.4642  0.1248
   44CHL1  H11A 3217   6.679   1.517   7.368  0.9369 -0.7607  0.2567
   44CHL1  H11B 3218   6.648   1.355   7.283 -2.9282 -1.2941  0.5887
   44CHL1    C9 3219   6.493   1.513   7.243 -0.6357 -0.4697 -0.5090
   44CHL1    H9 3220   6.428   1.428   7.215 -0.1339 -1.1339  0.2873
   44CHL1   C10 3221   6.544   1.585   7.115  0.5563  0.5083  0.1364
   44CHL1   C19 3222   6.658   1.683   7.145 -0.9466  0.3999  0.8987
   44CHL1  H19A 3223   6.719   1.709   7.056 -0.2869 -0.8322  0.9620
   44CHL1  H19B 3224   6.619   1.779   7.185  1.8079  1.3233  1.5234
   44CHL1  H19C 3225   6.737   1.632   7.204 -1.8329 -1.5458  0.4960
   44CHL1    C1 3226   6.599   1.472   7.020 -0.1997 -0.4013 -0.3273
   44CHL1   H1A 3227   6.699   1.439   7.058  0.3616 -0.6122 -1.9269
   44CHL1   H1B 3228   6.535   1.382   7.021  0.4251 -0.9075 -2.3308
   44CHL1    C2 3229   6.623   1.514   6.874 -0.4370  0.2541  0.0161
   44CHL1   H2A 3230   6.628   1.427   6.805 -1.7855  0.5729 -0.5111
   44CHL1   H2B 3231   6.707   1.586   6.872 -0.0948 -0.1413 -1.9073
   44CHL1   C20 3232   6.429   1.391   7.795 -0.1411 -0.6757 -0.3281
   44CHL1   H20 3233   6.496   1.473   7.829 -0.3566 -0.2378 -0.9392
   44CHL1   C21 3234   6.499   1.254   7.778 -0.6465  0.0266 -0.4195
   44CHL1  H21A 3235   6.577   1.248   7.699 -0.3387 -1.3579 -0.0334
   44CHL1  H21B 3236   6.436   1.168   7.750  0.4672 -0.4051 -1.7080
   44CHL1  H21C 3237   6.551   1.242   7.876  1.1679  2.1337 -1.0272
   44CHL1   C22 3238   6.325   1.364   7.905  0.0788 -0.0220  0.7264
   44CHL1  H22A 3239   6.279   1.465   7.913  3.2517  1.5770  0.7992
   44CHL1  H22B 3240   6.257   1.282   7.876 -0.4631  0.9850 -0.9783
   44CHL1   C23 3241   6.377   1.325   8.042  0.6642  0.2223 -0.1959
   44CHL1  H23A 3242   6.399   1.217   8.055 -1.0310 -0.1897 -0.5256
   44CHL1  H23B 3243   6.470   1.379   8.067 -0.0309  1.5519 -0.4011
   44CHL1   C24 3244   6.269   1.359   8.152 -1.0822  0.2413  0.2425
   44CHL1  H24A 3245   6.219   1.458   8.146  0.2351  0.8881 -0.4336
   44CHL1  H24B 3246   6.188   1.284   8.145 -0.9281  0.0554  0.4576
   44CHL1   C25 3247   6.319   1.324   8.292 -0.1273 -0.6621 -0.9927
   44CHL1   H25 3248   6.372   1.227   8.282  0.0550 -0.5619 -1.0110
   44CHL1   C26 3249   6.419   1.421   8.346 -0.5950 -0.5379 -0.4468
   44CHL1  H26A 3250   6.503   1.425   8.273  1.3489 -1.3134  1.6258
   44CHL1  H26B 3251   6.362   1.514   8.363  0.8474  0.6825 -1.9158
   44CHL1  H26C 3252   6.461   1.382   8.441 -1.1757  2.2475  1.0518
   44CHL1   C27 3253   6.204   1.300   8.386 -0.0460  0.5496 -0.1334
   44CHL1  H27A 3254   6.177   1.402   8.420  0.2243  0.9913 -1.2269
   44CHL1  H27B 3255   6.123   1.242   8.336 -0.7894 -0.4328  2.0614
   44CHL1  H27C 3256   6.247   1.239   8.469  0.1499  1.3084  0.3266
   45CHL1    C3 3257   0.548   4.225   6.792  0.3850  0.5231  1.1675
   45CHL1    H3 3258   0.647   4.186   6.825  0.3271 -2.6154 -1.7460
   45CHL1    O3 3259   0.541   4.191   6.655  0.4676 -0.3341  0.2756
   45CHL1   H3' 3260   0.451   4.158   6.641 -1.3569  3.5180  1.4454
   45CHL1    C4 3261   0.428   4.165   6.870 -0.2113  0.7073  1.0341
   45CHL1   H4A 3262   0.336   4.197   6.817  0.0384  0.9447  0.7362
   45CHL1   H4B 3263   0.431   4.057   6.846 -1.8747  0.6094  1.1857
   45CHL1    C5 3264   0.433   4.203   7.013 -0.3830  0.5279 -0.6652
   45CHL1    C6 3265   0.432   4.106   7.101 -0.2644 -0.3150 -0.6340
   45CHL1    H6 3266   0.438   4.002   7.063 -0.2285 -0.1867 -0.9836
   45CHL1    C7 3267   0.420   4.129   7.246 -0.6934 -0.3334 -0.9265
   45CHL1   H7A 3268   0.341   4.073   7.301 -0.1866  0.6102  0.8449
   45CHL1   H7B 3269   0.511   4.095   7.299 -0.4994 -1.0790 -1.7278
   45CHL1    C8 3270   0.405   4.281   7.289  0.2293 -0.3821 -0.1897
   45CHL1    H8 3271   0.296   4.306   7.286  0.8138  2.4498 -0.9090
   45CHL1   C14 3272   0.446   4.311   7.428 -0.7121 -0.2171 -0.2278
   45CHL1   H14 3273   0.556   4.296   7.429 -0.5298  0.8431 -1.8605
   45CHL1   C15 3274   0.400   4.213   7.538  0.7294 -0.6603 -0.2307
   45CHL1  H15A 3275   0.297   4.180   7.514 -0.8865  1.6325  2.8764
   45CHL1  H15B 3276   0.476   4.132   7.548  1.3937 -0.1854 -1.3031
   45CHL1   C16 3277   0.405   4.304   7.668 -0.1721  0.2349  0.0800
   45CHL1  H16A 3278   0.302   4.307   7.710  0.0760 -1.6384  0.9393
   45CHL1  H16B 3279   0.469   4.255   7.745  1.5161  1.5352 -0.4493
   45CHL1   C17 3280   0.462   4.442   7.630  0.8096  0.3649  0.1929
   45CHL1   H17 3281   0.573   4.437   7.639  0.7721 -0.6297  0.2632
   45CHL1   C13 3282   0.425   4.448   7.478 -0.6462 -0.8639 -0.4923
   45CHL1   C18 3283   0.272   4.502   7.466  0.6166 -0.4723  0.1733
   45CHL1  H18A 3284   0.261   4.607   7.499 -0.2512 -1.1628  2.2557
   45CHL1  H18B 3285   0.246   4.487   7.359  0.9955 -0.7549  0.1198
   45CHL1  H18C 3286   0.222   4.426   7.531 -0.0557 -0.7421 -0.6440
   45CHL1   C12 3287   0.520   4.532   7.389  0.2921 -0.3425  0.0930
   45CHL1  H12A 3288   0.512   4.638   7.422 -0.0071 -0.7279  1.3117
   45CHL1  H12B 3289   0.619   4.489   7.412 -0.6225 -1.6558  1.8246
   45CHL1   C11 3290   0.489   4.512   7.236 -0.4541 -0.4737 -0.1664
   45CHL1  H11A 3291   0.388   4.554   7.218  0.3583  1.0960 -1.3779
   45CHL1  H11B 3292   0.567   4.579   7.192 -0.0518  0.1298  1.4026
   45CHL1    C9 3293   0.489   4.365   7.191 -0.2675  0.3915  0.0571
   45CHL1    H9 3294   0.588   4.316   7.206 -1.3089 -1.6526  0.6251
   45CHL1   C10 3295   0.441   4.350   7.046 -0.2753 -0.0792 -0.2719
   45CHL1   C19 3296   0.302   4.423   7.028  0.2490  0.0492  0.3158
   45CHL1  H19A 3297   0.249   4.391   6.936  0.0359 -2.3883  1.2048
   45CHL1  H19B 3298   0.237   4.386   7.110  2.2175 -1.0079  1.4805
   45CHL1  H19C 3299   0.309   4.534   7.036  0.8007 -0.0842  2.2182
   45CHL1    C1 3300   0.548   4.423   6.960 -0.3387  0.1055 -0.3411
   45CHL1   H1A 3301   0.542   4.534   6.960  2.2383  0.2964  0.4129
   45CHL1   H1B 3302   0.651   4.405   6.996 -0.7963 -1.0532  0.4549
   45CHL1    C2 3303   0.540   4.378   6.814 -0.2249  0.0983 -0.3501
   45CHL1   H2A 3304   0.622   4.430   6.761 -0.0548 -0.4211 -0.5984
   45CHL1   H2B 3305   0.437   4.406   6.783 -2.0230 -5.1318 -0.0419
   45CHL1   C20 3306   0.426   4.554   7.733  0.3500  0.1436  0.1445
   45CHL1   H20 3307   0.317   4.575   7.735  0.9144  3.7804  0.3151
   45CHL1   C21 3308   0.494   4.689   7.694 -0.2769  0.9700 -0.5994
   45CHL1  H21A 3309   0.433   4.749   7.622  0.2866  1.0709 -1.0017
   45CHL1  H21B 3310   0.597   4.677   7.655 -0.1106 -1.3933  0.3946
   45CHL1  H21C 3311   0.500   4.743   7.790 -0.8881 -0.5419  0.3218
   45CHL1   C22 3312   0.462   4.527   7.881 -0.1066  0.1125 -0.2310
   45CHL1  H22A 3313   0.422   4.424   7.894 -1.6210  1.0095  2.9795
   45CHL1  H22B 3314   0.573   4.530   7.888  0.1072  1.9700 -2.8675
   45CHL1   C23 3315   0.379   4.613   7.981  0.6175 -0.3907 -0.3275
   45CHL1  H23A 3316   0.427   4.707   8.013 -0.4443 -0.5932  2.0321
   45CHL1  H23B 3317   0.275   4.629   7.945  0.3694 -0.5422  0.3215
   45CHL1   C24 3318   0.369   4.538   8.113  0.4793 -0.2847 -0.3931
   45CHL1  H24A 3319   0.331   4.434   8.101  0.5993 -0.2544 -1.0806
   45CHL1  H24B 3320   0.475   4.524   8.141 -0.1628 -2.3799  1.2424
   45CHL1   C25 3321   0.291   4.604   8.227  0.3299 -0.1635  0.5779
   45CHL1   H25 3322   0.184   4.590   8.203 -0.4843  2.2209  2.4158
   45CHL1   C26 3323   0.321   4.532   8.355 -1.0477  0.3585 -0.2151
   45CHL1  H26A 3324   0.254   4.565   8.437  0.5583  1.3139  0.7755
   45CHL1  H26B 3325   0.312   4.422   8.341  1.4893  0.2223 -1.3777
   45CHL1  H26C 3326   0.427   4.550   8.385 -0.2728 -2.0675 -1.2134
   45CHL1   C27 3327   0.318   4.752   8.242 -0.3100 -0.8081 -0.1242
   45CHL1  H27A 3328   0.427   4.764   8.260 -0.2741 -0.9831 -0.2252
   45CHL1  H27B 3329   0.291   4.811   8.151  1.0463  0.5396  0.3069
   45CHL1  H27C 3330   0.272   4.792   8.335  3.9636  1.1525  1.4164
   46CHL1    C3 3331   1.306   0.449   6.971 -0.0629 -0.8774 -0.4731
   46CHL1    H3 3332   1.339   0.348   7.006  0.2305 -1.0363 -1.1971
   46CHL1    O3 3333   1.341   0.448   6.836  0.4989 -0.5927 -0.4101
   46CHL1   H3' 3334   1.272   0.397   6.792  0.1394  0.0608 -0.6159
   46CHL1    C4 3335   1.150   0.464   6.985 -0.4938 -0.3202  0.5082
   46CHL1   H4A 3336   1.123   0.562   6.938 -0.9448 -1.3597 -1.5254
   46CHL1   H4B 3337   1.103   0.387   6.920 -1.0732  0.8129 -0.4865
   46CHL1    C5 3338   1.102   0.464   7.125  1.4067  0.5860  0.1513
   46CHL1    C6 3339   0.999   0.377   7.157 -0.9228 -0.5336  0.9860
   46CHL1    H6 3340   0.953   0.307   7.087  0.0154  0.4408 -0.6567
   46CHL1    C7 3341   0.934   0.386   7.288 -0.2330 -0.0747 -0.7176
   46CHL1   H7A 3342   0.824   0.372   7.285 -0.4779  1.3534  0.4798
   46CHL1   H7B 3343   0.970   0.294   7.339  0.5486 -0.2454 -1.5566
   46CHL1    C8 3344   0.977   0.512   7.375 -0.3840 -0.6245 -0.4324
   46CHL1    H8 3345   0.928   0.604   7.338  1.5142  0.4529 -0.3709
   46CHL1   C14 3346   0.937   0.487   7.521  0.2642  0.8426 -0.0407
   46CHL1   H14 3347   1.000   0.404   7.558 -1.8844 -1.0642 -0.4613
   46CHL1   C15 3348   0.790   0.443   7.557  0.2627  0.5943  0.3951
   46CHL1  H15A 3349   0.722   0.493   7.486  1.0704 -2.9032 -3.2445
   46CHL1  H15B 3350   0.772   0.339   7.523  0.7209  0.4151  0.6713
   46CHL1   C16 3351   0.770   0.471   7.705  0.2171 -0.5688 -0.1245
   46CHL1  H16A 3352   0.694   0.552   7.709  0.7131 -0.0871 -0.3412
   46CHL1  H16B 3353   0.749   0.382   7.768  0.9514  0.5387  1.7683
   46CHL1   C17 3354   0.900   0.541   7.750 -0.7640 -0.0741  0.0066
   46CHL1   H17 3355   0.966   0.460   7.788 -0.9867  0.7954  2.4451
   46CHL1   C13 3356   0.960   0.595   7.621 -0.0716 -0.0666  0.5441
   46CHL1   C18 3357   0.887   0.727   7.583 -0.1130  0.2830  0.0052
   46CHL1  H18A 3358   0.779   0.735   7.608  0.1572  0.2342  1.2888
   46CHL1  H18B 3359   0.938   0.814   7.630  1.9046  0.3251 -2.1351
   46CHL1  H18C 3360   0.896   0.748   7.475 -1.2011 -0.2803 -0.2065
   46CHL1   C12 3361   1.122   0.619   7.606 -0.2341  0.1675 -0.6516
   46CHL1  H12A 3362   1.145   0.706   7.671 -2.2945  0.6872 -0.5374
   46CHL1  H12B 3363   1.174   0.523   7.627 -0.7690  0.0777  0.3454
   46CHL1   C11 3364   1.163   0.662   7.462 -0.1823  0.8565 -0.8366
   46CHL1  H11A 3365   1.119   0.756   7.425 -1.7049  1.0995  1.3768
   46CHL1  H11B 3366   1.270   0.691   7.472  0.0616 -0.0557 -0.7083
   46CHL1    C9 3367   1.128   0.548   7.364  0.4992 -0.3551  0.2482
   46CHL1    H9 3368   1.179   0.454   7.391  2.8839  0.8983  0.3768
   46CHL1   C10 3369   1.169   0.574   7.212  0.3904 -0.2750 -0.5809
   46CHL1   C19 3370   1.125   0.719   7.178 -0.2485  0.2035 -0.8363
   46CHL1  H19A 3371   1.182   0.793   7.238  1.6574 -0.6391 -1.5123
   46CHL1  H19B 3372   1.129   0.736   7.068 -0.1465 -0.9162 -1.0200
   46CHL1  H19C 3373   1.019   0.726   7.209  0.0161 -2.9186  1.1825
   46CHL1    C1 3374   1.323   0.565   7.199 -0.6659 -0.4112 -0.3711
   46CHL1   H1A 3375   1.365   0.643   7.266 -0.2271 -0.3718 -0.6898
   46CHL1   H1B 3376   1.353   0.465   7.237  2.1392 -0.3962 -2.2361
   46CHL1    C2 3377   1.367   0.565   7.050 -0.6625  0.6433 -0.3808
   46CHL1   H2A 3378   1.476   0.546   7.050 -0.8304 -0.7525  2.2018
   46CHL1   H2B 3379   1.336   0.657   6.997  0.2480  0.0977 -1.9015
   46CHL1   C20 3380   0.883   0.628   7.877 -0.6393 -0.3416 -0.6918
   46CHL1   H20 3381   0.838   0.723   7.843 -1.9993 -1.0982 -1.0831
   46CHL1   C21 3382   1.019   0.653   7.948  0.1575  0.0885  0.7519
   46CHL1  H21A 3383   1.066   0.562   7.990  2.3168 -0.2177 -2.1275
   46CHL1  H21B 3384   1.010   0.742   8.015  2.6905  0.6280  0.4506
   46CHL1  H21C 3385   1.092   0.687   7.872 -1.6114 -1.2565 -1.6835
   46CHL1   C22 3386   0.786   0.578   7.986  0.1333 -0.0132  0.1967
   46CHL1  H22A 3387   0.688   0.551   7.942  0.5995 -3.1208  0.7886
   46CHL1  H22B 3388   0.837   0.489   8.030  2.9488  0.8817 -1.0488
   46CHL1   C23 3389   0.756   0.676   8.101 -0.2781  0.4384 -0.0088
   46CHL1  H23A 3390   0.852   0.678   8.158  1.2451 -0.9636 -2.3676
   46CHL1  H23B 3391   0.755   0.783   8.072  0.6594  1.0303  1.9521
   46CHL1   C24 3392   0.642   0.611   8.184 -0.3529 -0.1388  0.1736
   46CHL1  H24A 3393   0.540   0.637   8.149 -1.1117  0.8706  2.8213
   46CHL1  H24B 3394   0.659   0.502   8.193  1.1424 -0.1024 -1.6919
   46CHL1   C25 3395   0.637   0.652   8.330  0.1794 -0.3076 -0.0765
   46CHL1   H25 3396   0.735   0.625   8.373  0.0881  2.7693  2.4294
   46CHL1   C26 3397   0.638   0.798   8.356  0.1775 -0.3753 -0.0160
   46CHL1  H26A 3398   0.564   0.842   8.286 -0.5699 -1.4640  0.0683
   46CHL1  H26B 3399   0.616   0.822   8.463  0.2291  0.6995 -0.2312
   46CHL1  H26C 3400   0.742   0.832   8.336  1.1543 -2.2555  1.4976
   46CHL1   C27 3401   0.528   0.576   8.411  0.2364 -0.1522  0.2111
   46CHL1  H27A 3402   0.545   0.466   8.404  1.7814  0.1328 -1.2618
   46CHL1  H27B 3403   0.532   0.615   8.515  1.2070 -1.7515  0.8119
   46CHL1  H27C 3404   0.427   0.597   8.370  0.7596  1.7668 -0.1851
   47CHL1    C3 3405   5.534   0.010   6.538  0.0074  0.9165 -0.0514
   47CHL1    H3 3406   5.488   0.111   6.538  0.8419  1.3156  0.4434
   47CHL1    O3 3407   5.545  -0.034   6.405  0.8089  0.1277  0.4146
   47CHL1   H3' 3408   5.456  -0.019   6.372  1.3513  0.3048 -1.0346
   47CHL1    C4 3409   5.677   0.028   6.601  0.3528  0.0368  0.2384
   47CHL1   H4A 3410   5.726  -0.070   6.584  0.9231  0.4362 -0.5159
   47CHL1   H4B 3411   5.724   0.106   6.537 -3.8029  0.6020 -2.4950
   47CHL1    C5 3412   5.692   0.057   6.748  0.1381  0.2450 -0.8355
   47CHL1    C6 3413   5.775   0.150   6.803  1.1668 -0.5778  1.1024
   47CHL1    H6 3414   5.832   0.211   6.732  0.0568 -1.3665 -0.5364
   47CHL1    C7 3415   5.778   0.179   6.950 -0.1279  0.0868  0.0177
   47CHL1   H7A 3416   5.879   0.211   6.984 -1.7167  1.9986  3.5128
   47CHL1   H7B 3417   5.722   0.274   6.963  0.7841  0.6306  0.1382
   47CHL1    C8 3418   5.709   0.072   7.036  0.6799  0.0057 -0.2973
   47CHL1    H8 3419   5.782  -0.009   7.054  1.3374  0.4095 -1.0741
   47CHL1   C14 3420   5.683   0.125   7.183 -0.4685  0.1139  0.2694
   47CHL1   H14 3421   5.613   0.211   7.171  0.7687  0.9981 -0.9029
   47CHL1   C15 3422   5.810   0.175   7.258  0.2387 -0.2506  0.8039
   47CHL1  H15A 3423   5.899   0.114   7.232 -1.1388 -2.3812  0.7848
   47CHL1  H15B 3424   5.845   0.278   7.236  2.8915 -0.8648  1.7494
   47CHL1   C16 3425   5.773   0.159   7.404 -0.5120 -0.2833 -0.3806
   47CHL1  H16A 3426   5.852   0.107   7.462  1.2407  0.4875 -2.0017
   47CHL1  H16B 3427   5.755   0.257   7.455 -1.4056  0.4530 -2.0236
   47CHL1   C17 3428   5.642   0.074   7.411  0.0258 -0.0063  0.3068
   47CHL1   H17 3429   5.559   0.147   7.412 -0.0552 -0.0081 -1.6217
   47CHL1   C13 3430   5.627   0.013   7.268  0.1071  0.7316 -0.3857
   47CHL1   C18 3431   5.706  -0.123   7.258  0.2279 -0.7145  0.5843
   47CHL1  H18A 3432   5.669  -0.203   7.325 -1.1718 -1.3739 -0.9032
   47CHL1  H18B 3433   5.700  -0.166   7.155 -5.0674 -1.3570  0.8916
   47CHL1  H18C 3434   5.813  -0.105   7.284 -0.2706  1.0714  1.4878
   47CHL1   C12 3435   5.484  -0.009   7.217 -0.3361 -0.1051 -0.0867
   47CHL1  H12A 3436   5.455  -0.105   7.265  0.4620 -0.7290 -0.8198
   47CHL1  H12B 3437   5.415   0.076   7.235  1.2161  0.9059  1.3143
   47CHL1   C11 3438   5.478  -0.049   7.065  0.3674 -0.1838  0.0726
   47CHL1  H11A 3439   5.514  -0.155   7.066  1.1917  0.0855  0.9326
   47CHL1  H11B 3440   5.372  -0.047   7.033  0.4338 -0.2502 -0.1588
   47CHL1    C9 3441   5.577   0.029   6.977 -0.0761 -0.5870 -0.5085
   47CHL1    H9 3442   5.525   0.124   6.950  0.7462  0.1224  0.3276
   47CHL1   C10 3443   5.600  -0.030   6.839  0.1337  0.1979 -0.7624
   47CHL1   C19 3444   5.668  -0.171   6.845 -0.4600  0.2587  0.7268
   47CHL1  H19A 3445   5.659  -0.220   6.746 -0.6466 -0.2443  0.9874
   47CHL1  H19B 3446   5.772  -0.160   6.881  0.1890 -1.8275 -0.3280
   47CHL1  H19C 3447   5.618  -0.243   6.913  0.9852  0.8887  2.5513
   47CHL1    C1 3448   5.452  -0.043   6.777 -0.1243 -0.0659 -0.4059
   47CHL1   H1A 3449   5.383  -0.116   6.824 -1.2264  0.0635 -1.7632
   47CHL1   H1B 3450   5.403   0.056   6.777 -0.6738 -0.3137  1.3392
   47CHL1    C2 3451   5.449  -0.083   6.625 -0.1285 -0.0800  0.0759
   47CHL1   H2A 3452   5.342  -0.094   6.595 -0.2835 -0.4967  0.7524
   47CHL1   H2B 3453   5.491  -0.185   6.616 -0.0513  0.0378 -0.9842
   47CHL1   C20 3454   5.631  -0.018   7.540  0.1150  0.3322  0.9600
   47CHL1   H20 3455   5.712  -0.095   7.544  0.7193  1.0124  3.4998
   47CHL1   C21 3456   5.494  -0.090   7.536 -0.6061 -0.5611 -0.1990
   47CHL1  H21A 3457   5.493  -0.177   7.467 -1.1458  0.3865 -1.4310
   47CHL1  H21B 3458   5.422  -0.016   7.495  2.5956  1.6752 -2.2099
   47CHL1  H21C 3459   5.466  -0.128   7.637  0.5034 -2.2334 -0.4715
   47CHL1   C22 3460   5.653   0.065   7.674  0.2924  0.3959  0.2177
   47CHL1  H22A 3461   5.751   0.116   7.671  0.2676  0.4792  0.7569
   47CHL1  H22B 3462   5.594   0.158   7.687 -0.1564  0.5048 -2.1792
   47CHL1   C23 3463   5.640  -0.009   7.804 -0.2576 -0.0727 -0.1832
   47CHL1  H23A 3464   5.540  -0.002   7.852  1.2731  1.0195  3.1991
   47CHL1  H23B 3465   5.656  -0.115   7.775 -2.2626 -1.0905  2.0443
   47CHL1   C24 3466   5.733   0.051   7.912  0.0607 -0.0785  0.5783
   47CHL1  H24A 3467   5.841   0.032   7.891 -0.0791 -0.3104  0.0266
   47CHL1  H24B 3468   5.717   0.160   7.916 -1.4228 -0.2988  1.0808
   47CHL1   C25 3469   5.715  -0.009   8.053 -0.5732 -0.1698 -0.0133
   47CHL1   H25 3470   5.606   0.010   8.059 -0.9057 -1.8644 -0.2708
   47CHL1   C26 3471   5.749  -0.155   8.058 -0.1456  0.2618  0.0624
   47CHL1  H26A 3472   5.854  -0.171   8.025 -0.7689 -0.4006 -1.7612
   47CHL1  H26B 3473   5.725  -0.193   8.159 -0.8844 -0.2606 -0.2969
   47CHL1  H26C 3474   5.677  -0.202   7.987 -1.7799 -0.5934  2.1886
   47CHL1   C27 3475   5.789   0.078   8.151  0.0989  0.0129 -1.0177
   47CHL1  H27A 3476   5.898   0.089   8.128  0.5988  2.3314  1.7209
   47CHL1  H27B 3477   5.748   0.181   8.140  1.1182  0.3721 -1.5795
   47CHL1  H27C 3478   5.768   0.035   8.251  0.8133 -0.1703 -0.9419
   48CHL1    C3 3479   3.606   1.714   6.649 -0.3706  0.3016 -0.2970
   48CHL1    H3 3480   3.498   1.719   6.677 -0.4025 -1.4637 -0.0164
   48CHL1    O3 3481   3.621   1.699   6.508  0.8236  0.5702 -0.7196
   48CHL1   H3' 3482   3.714   1.720   6.497  0.4044  2.0000 -1.9456
   48CHL1    C4 3483   3.682   1.843   6.693 -0.0301 -1.3005 -0.1620
   48CHL1   H4A 3484   3.786   1.841   6.652  0.0769 -1.1456  0.1015
   48CHL1   H4B 3485   3.630   1.922   6.635  0.6270 -0.3120  0.5819
   48CHL1    C5 3486   3.682   1.859   6.844 -0.2261  0.2936  0.0272
   48CHL1    C6 3487   3.646   1.974   6.908 -0.1541  0.2021  0.7535
   48CHL1    H6 3488   3.615   2.063   6.851 -2.4709 -1.1092 -0.1909
   48CHL1    C7 3489   3.650   2.000   7.055 -0.4588 -0.3153 -0.4106
   48CHL1   H7A 3490   3.708   2.091   7.080  0.4710 -1.4865  2.0352
   48CHL1   H7B 3491   3.550   2.024   7.097 -0.0630  0.8404 -0.1033
   48CHL1    C8 3492   3.721   1.887   7.132  0.0188  0.6450 -0.2481
   48CHL1    H8 3493   3.827   1.918   7.124  0.1992  0.5606  1.4159
   48CHL1   C14 3494   3.689   1.896   7.284 -0.8418 -0.1708 -0.2139
   48CHL1   H14 3495   3.580   1.877   7.288 -1.3550  2.5237  2.1831
   48CHL1   C15 3496   3.710   2.025   7.369  0.5795 -0.5835  0.1723
   48CHL1  H15A 3497   3.805   2.076   7.342  0.7318 -1.0005 -0.0877
   48CHL1  H15B 3498   3.626   2.091   7.339  0.8277 -0.9959 -1.5073
   48CHL1   C16 3499   3.689   1.976   7.510  0.4510 -0.2834  0.4585
   48CHL1  H16A 3500   3.781   2.006   7.565  1.9176 -2.3319 -0.7325
   48CHL1  H16B 3501   3.596   2.021   7.552 -0.7964 -1.8920 -0.4850
   48CHL1   C17 3502   3.697   1.822   7.513 -0.3846 -0.1967  0.0515
   48CHL1   H17 3503   3.593   1.783   7.513 -1.4463  2.1624  3.5417
   48CHL1   C13 3504   3.755   1.786   7.373  0.5055  1.1661 -0.0234
   48CHL1   C18 3505   3.910   1.784   7.394  0.2853 -0.0041 -0.6800
   48CHL1  H18A 3506   3.930   1.684   7.438 -3.7486 -1.2508 -1.2929
   48CHL1  H18B 3507   3.966   1.794   7.298 -0.5693 -1.7012 -1.3922
   48CHL1  H18C 3508   3.932   1.872   7.458  2.4205 -0.2146 -1.0396
   48CHL1   C12 3509   3.713   1.651   7.311  0.0270  0.0532  0.0003
   48CHL1  H12A 3510   3.760   1.576   7.377  0.3090  0.9043  0.7860
   48CHL1  H12B 3511   3.603   1.634   7.315  0.0266 -0.2332 -0.8600
   48CHL1   C11 3512   3.756   1.637   7.168  0.6747 -0.0164 -0.5453
   48CHL1  H11A 3513   3.865   1.639   7.153  0.6314 -0.3174 -0.9089
   48CHL1  H11B 3514   3.727   1.540   7.122  0.1136  0.3054 -0.8793
   48CHL1    C9 3515   3.695   1.746   7.072 -0.0963  0.1572  0.0663
   48CHL1    H9 3516   3.585   1.727   7.078 -0.0229  0.0047  1.2823
   48CHL1   C10 3517   3.725   1.731   6.923 -0.0550  0.0571  0.6506
   48CHL1   C19 3518   3.879   1.702   6.894 -0.1501 -0.0145  0.9836
   48CHL1  H19A 3519   3.917   1.709   6.790  3.1173  3.0287  2.1812
   48CHL1  H19B 3520   3.949   1.761   6.956 -1.6025  2.3708  0.4479
   48CHL1  H19C 3521   3.896   1.600   6.936 -0.5093 -0.0383  1.0754
   48CHL1    C1 3522   3.635   1.607   6.873  0.1231  0.3047 -0.3665
   48CHL1   H1A 3523   3.661   1.519   6.936  1.8875  1.2422  0.2709
   48CHL1   H1B 3524   3.526   1.615   6.893 -0.3995 -1.8825 -2.0023
   48CHL1    C2 3525   3.654   1.582   6.723 -0.6893 -0.7427  0.4674
   48CHL1   H2A 3526   3.589   1.497   6.692  1.5212 -1.9218 -1.2490
   48CHL1   H2B 3527   3.758   1.555   6.695 -1.6820 -2.5844 -1.7628
   48CHL1   C20 3528   3.758   1.768   7.642  0.0411  1.0010 -0.3823
   48CHL1   H20 3529   3.869   1.773   7.644  0.3277 -2.7011  1.8258
   48CHL1   C21 3530   3.722   1.611   7.661 -0.0890 -0.0598 -0.2434
   48CHL1  H21A 3531   3.773   1.543   7.590  0.3973 -0.4378  0.4526
   48CHL1  H21B 3532   3.612   1.600   7.649 -0.4508  1.8392  0.8840
   48CHL1  H21C 3533   3.739   1.573   7.764 -2.8489 -1.3699 -0.1720
   48CHL1   C22 3534   3.702   1.846   7.771 -0.1878 -0.2322  0.4404
   48CHL1  H22A 3535   3.613   1.905   7.741  0.3222  0.6727  0.6502
   48CHL1  H22B 3536   3.663   1.777   7.848 -3.0824 -0.6906 -1.3167
   48CHL1   C23 3537   3.812   1.926   7.839 -0.7872 -0.9234  0.6339
   48CHL1  H23A 3538   3.891   1.850   7.854  0.2497  0.2132  1.1238
   48CHL1  H23B 3539   3.847   2.010   7.776 -0.2387 -0.9002  0.9685
   48CHL1   C24 3540   3.773   1.994   7.972  0.0230 -0.0334  0.0165
   48CHL1  H24A 3541   3.782   1.921   8.055  1.2830  1.3557  1.1542
   48CHL1  H24B 3542   3.861   2.057   7.999 -1.0360  1.7075 -0.4405
   48CHL1   C25 3543   3.640   2.072   7.966 -0.1775 -0.0153  0.8676
   48CHL1   H25 3544   3.551   2.009   7.943  0.4895 -1.4949  2.1955
   48CHL1   C26 3545   3.625   2.123   8.106 -0.3292  0.2174 -0.0921
   48CHL1  H26A 3546   3.632   2.029   8.166 -0.4108 -1.3592 -2.4122
   48CHL1  H26B 3547   3.703   2.198   8.130  0.1653  0.2000 -1.5828
   48CHL1  H26C 3548   3.533   2.183   8.123 -1.7979 -1.6071 -1.0927
   48CHL1   C27 3549   3.640   2.189   7.866 -0.1324 -0.3386  0.4150
   48CHL1  H27A 3550   3.541   2.238   7.866 -0.3416 -0.7560 -0.2720
   48CHL1  H27B 3551   3.725   2.261   7.872  0.2097 -0.8448  2.8511
   48CHL1  H27C 3552   3.644   2.139   7.767 -1.8458 -1.0449  0.6628
   49CHL1    C3 3553   2.802   2.917   6.904  0.6991 -0.2619 -0.5847
   49CHL1    H3 3554   2.825   2.808   6.915 -1.7719 -0.7062  0.7157
   49CHL1    O3 3555   2.794   2.940   6.767 -0.4884 -0.1324 -0.5766
   49CHL1   H3' 3556   2.773   3.034   6.763  0.2372 -0.0002 -1.4284
   49CHL1    C4 3557   2.670   2.941   6.977  0.6334  0.8173  0.1788
   49CHL1   H4A 3558   2.630   3.041   6.947  0.1781  0.2441 -1.1644
   49CHL1   H4B 3559   2.595   2.869   6.938 -1.0556  1.9748  1.1253
   49CHL1    C5 3560   2.687   2.932   7.128  0.1248  0.7398  0.0163
   49CHL1    C6 3561   2.611   2.854   7.207  0.5510 -0.3584  0.8014
   49CHL1    H6 3562   2.532   2.794   7.159  1.5084 -0.9664 -0.0606
   49CHL1    C7 3563   2.610   2.872   7.357  0.4422  0.0421 -0.2053
   49CHL1   H7A 3564   2.505   2.869   7.393 -0.1710 -0.3584 -1.8952
   49CHL1   H7B 3565   2.668   2.801   7.419 -0.9469  1.7266  3.2771
   49CHL1    C8 3566   2.673   2.998   7.410 -0.0743 -0.1090  0.7749
   49CHL1    H8 3567   2.606   3.084   7.391  0.7679  0.6253  1.0956
   49CHL1   C14 3568   2.693   2.993   7.565 -0.5328  0.3374 -0.7390
   49CHL1   H14 3569   2.769   2.915   7.585 -0.5504  0.1836 -1.2547
   49CHL1   C15 3570   2.582   2.944   7.665 -0.1677 -0.0900  0.2771
   49CHL1  H15A 3571   2.486   2.987   7.631 -1.0019 -0.5616  1.9253
   49CHL1  H15B 3572   2.549   2.838   7.663  1.8043 -0.7409 -0.4793
   49CHL1   C16 3573   2.612   3.010   7.799  0.0083  0.2376  0.5570
   49CHL1  H16A 3574   2.532   3.080   7.833  0.1242  0.4099  0.4728
   49CHL1  H16B 3575   2.619   2.936   7.882 -0.6667 -0.9936 -0.4562
   49CHL1   C17 3576   2.754   3.076   7.773  0.0506 -0.2785  0.4462
   49CHL1   H17 3577   2.828   2.995   7.788  0.9520 -0.3305 -3.2689
   49CHL1   C13 3578   2.755   3.113   7.622  0.2338  0.1785 -0.3800
   49CHL1   C18 3579   2.680   3.247   7.601  0.0755  1.3819 -0.0096
   49CHL1  H18A 3580   2.667   3.275   7.494  0.1312 -1.1807 -0.7454
   49CHL1  H18B 3581   2.583   3.219   7.649  0.5033 -3.5776 -1.4884
   49CHL1  H18C 3582   2.740   3.325   7.654  3.5939 -0.8897 -0.3320
   49CHL1   C12 3583   2.893   3.127   7.556 -0.0446 -0.0315 -0.1896
   49CHL1  H12A 3584   2.937   3.215   7.608  1.6482 -1.3868  0.8053
   49CHL1  H12B 3585   2.951   3.034   7.579 -1.1041 -1.4396 -2.7913
   49CHL1   C11 3586   2.894   3.134   7.407  0.0175 -0.2848  0.0303
   49CHL1  H11A 3587   2.846   3.233   7.389 -1.0066 -0.3165  2.2692
   49CHL1  H11B 3588   3.000   3.138   7.373  0.3764  0.9887  1.1743
   49CHL1    C9 3589   2.810   3.022   7.336  0.2646  0.2686 -0.9715
   49CHL1    H9 3590   2.866   2.928   7.356 -0.7018  0.1003  1.1806
   49CHL1   C10 3591   2.795   3.031   7.183 -0.2287 -0.6275 -0.0332
   49CHL1   C19 3592   2.748   3.170   7.156 -0.4846 -0.0416 -0.0061
   49CHL1  H19A 3593   2.716   3.187   7.051 -0.6397 -1.1299 -0.1498
   49CHL1  H19B 3594   2.668   3.210   7.222  0.3379  1.6285  0.0446
   49CHL1  H19C 3595   2.838   3.232   7.174  1.7382 -3.2025  0.5453
   49CHL1    C1 3596   2.930   3.007   7.112  1.1816 -0.1386 -0.0038
   49CHL1   H1A 3597   3.013   3.075   7.138  2.2489  0.0391 -3.4050
   49CHL1   H1B 3598   2.960   2.904   7.141  0.9516 -0.1487  0.2082
   49CHL1    C2 3599   2.925   3.002   6.955  0.4827 -0.2901  0.2526
   49CHL1   H2A 3600   3.017   2.971   6.900  0.4833 -0.1603  0.1797
   49CHL1   H2B 3601   2.913   3.107   6.921 -1.7052 -0.0995  1.4404
   49CHL1   C20 3602   2.785   3.182   7.882  0.1445  0.9308  0.4438
   49CHL1   H20 3603   2.727   3.276   7.866  0.8693  1.7685  2.4465
   49CHL1   C21 3604   2.937   3.225   7.874 -0.5471  0.7998 -0.8569
   49CHL1  H21A 3605   2.959   3.266   7.975  0.2141  0.4645 -0.8791
   49CHL1  H21B 3606   2.949   3.312   7.806  0.6798 -0.4731 -2.3432
   49CHL1  H21C 3607   3.014   3.151   7.843 -0.1693  0.7935  0.0760
   49CHL1   C22 3608   2.753   3.130   8.029 -0.4150 -0.0770  0.2821
   49CHL1  H22A 3609   2.778   3.208   8.104  1.4411 -0.1846 -0.1863
   49CHL1  H22B 3610   2.644   3.115   8.047 -0.5941 -1.0267 -1.3906
   49CHL1   C23 3611   2.835   3.011   8.077 -0.2340  0.1396  0.6160
   49CHL1  H23A 3612   2.800   2.925   8.015 -0.8348  0.8391 -0.0423
   49CHL1  H23B 3613   2.945   3.022   8.063 -0.1130  0.2468  1.6078
   49CHL1   C24 3614   2.788   2.971   8.220 -0.2222  0.1577 -0.2702
   49CHL1  H24A 3615   2.820   3.033   8.306  1.1364 -3.4489  2.0483
   49CHL1  H24B 3616   2.677   2.979   8.218 -0.5100 -2.6912 -1.4185
   49CHL1   C25 3617   2.825   2.826   8.262  0.1615 -0.1627 -0.1486
   49CHL1   H25 3618   2.753   2.760   8.210  0.3862 -0.8636  0.4212
   49CHL1   C26 3619   2.970   2.785   8.220 -0.0525 -0.0511 -0.3617
   49CHL1  H26A 3620   3.036   2.869   8.252  1.2692 -0.8111 -1.0053
   49CHL1  H26B 3621   3.006   2.694   8.272  3.7582  1.6158  0.3112
   49CHL1  H26C 3622   2.989   2.777   8.111  3.7515  0.4667  0.1176
   49CHL1   C27 3623   2.796   2.809   8.417  0.0836 -0.0627 -0.1286
   49CHL1  H27A 3624   2.856   2.876   8.482 -0.3721  1.0230 -0.7996
   49CHL1  H27B 3625   2.687   2.823   8.438 -0.0810 -1.3244 -0.0613
   49CHL1  H27C 3626   2.813   2.701   8.435  1.9250 -0.1060 -1.8350
   50CHL1    C3 3627   5.150   5.239   6.953  0.2779  0.7681 -0.1854
   50CHL1    H3 3628   5.235   5.174   6.923 -0.1263 -0.4935  1.3382
   50CHL1    O3 3629   5.072   5.279   6.844  0.2571  0.6261  0.2783
   50CHL1   H3' 3630   5.025   5.198   6.824  0.2086  0.6363  0.3479
   50CHL1    C4 3631   5.060   5.154   7.039 -0.1650  0.0291 -0.0794
   50CHL1   H4A 3632   4.967   5.214   7.053 -0.1228 -0.0143  0.4071
   50CHL1   H4B 3633   5.019   5.066   6.985 -1.5109  0.2997  0.4550
   50CHL1    C5 3634   5.127   5.104   7.169  0.4548 -0.5445  0.4361
   50CHL1    C6 3635   5.135   4.974   7.197 -0.3846  0.5025  0.1772
   50CHL1    H6 3636   5.096   4.910   7.116  2.1549  0.3948 -1.0865
   50CHL1    C7 3637   5.208   4.915   7.312 -0.1579 -0.0837  0.4398
   50CHL1   H7A 3638   5.144   4.829   7.339  1.2261 -0.4750  2.7080
   50CHL1   H7B 3639   5.309   4.874   7.287 -0.2748  0.1115 -0.3643
   50CHL1    C8 3640   5.249   5.020   7.422 -0.2490  0.1792  0.4988
   50CHL1    H8 3641   5.158   5.045   7.481 -1.0256  0.0626 -0.6069
   50CHL1   C14 3642   5.359   4.967   7.507 -0.1927  0.8573 -0.0861
   50CHL1   H14 3643   5.442   4.954   7.434  1.9732 -1.1667  2.5331
   50CHL1   C15 3644   5.334   4.832   7.566 -0.4644  0.0351  1.2510
   50CHL1  H15A 3645   5.227   4.836   7.597 -0.4045  2.2016  1.3051
   50CHL1  H15B 3646   5.357   4.748   7.496  0.5616  0.4793  1.0431
   50CHL1   C16 3647   5.425   4.831   7.686  0.1183 -0.1181 -0.5619
   50CHL1  H16A 3648   5.358   4.835   7.774  1.7327  2.3787  0.6961
   50CHL1  H16B 3649   5.495   4.745   7.690 -0.6126 -0.8534 -2.3714
   50CHL1   C17 3650   5.507   4.963   7.679  0.9846  0.2931 -0.3381
   50CHL1   H17 3651   5.592   4.947   7.609  0.7503 -2.1394 -0.1615
   50CHL1   C13 3652   5.409   5.062   7.617 -0.3581  0.5395 -0.2413
   50CHL1   C18 3653   5.293   5.095   7.725 -0.2816  0.1187  0.0968
   50CHL1  H18A 3654   5.241   5.004   7.762 -0.2669 -0.0513 -0.2941
   50CHL1  H18B 3655   5.335   5.168   7.798 -1.2891  2.1418 -1.2475
   50CHL1  H18C 3656   5.210   5.156   7.684 -0.7921 -0.8182 -0.2726
   50CHL1   C12 3657   5.449   5.194   7.551  0.0465 -0.6990  0.6116
   50CHL1  H12A 3658   5.471   5.264   7.634 -2.0597  0.9037 -0.0884
   50CHL1  H12B 3659   5.542   5.160   7.501  0.2969 -1.2583  1.4268
   50CHL1   C11 3660   5.351   5.255   7.457 -0.7195 -0.1756  0.3474
   50CHL1  H11A 3661   5.279   5.310   7.520 -1.7098 -0.8504 -0.1674
   50CHL1  H11B 3662   5.397   5.338   7.399 -0.3037  0.6346  1.8104
   50CHL1    C9 3663   5.291   5.158   7.357 -0.4981 -0.4017 -0.7437
   50CHL1    H9 3664   5.384   5.129   7.303  0.6972  0.1422  0.9364
   50CHL1   C10 3665   5.196   5.216   7.248  0.0806  0.2380  0.3902
   50CHL1   C19 3666   5.078   5.295   7.315  0.8956 -0.1856  0.3165
   50CHL1  H19A 3667   5.122   5.391   7.350 -0.0695  0.5860 -0.5317
   50CHL1  H19B 3668   5.004   5.323   7.236  0.6631  1.6985  1.1504
   50CHL1  H19C 3669   5.021   5.240   7.392 -0.3292 -0.5226 -0.7798
   50CHL1    C1 3670   5.278   5.313   7.154  0.1940 -0.3077  0.4844
   50CHL1   H1A 3671   5.325   5.396   7.211 -0.3965  0.6253 -0.3578
   50CHL1   H1B 3672   5.362   5.255   7.109  0.2371  0.3284 -0.2859
   50CHL1    C2 3673   5.196   5.366   7.032  0.3132  0.2059 -0.6370
   50CHL1   H2A 3674   5.265   5.430   6.973  1.3942  0.8639  1.2400
   50CHL1   H2B 3675   5.111   5.428   7.067 -0.4705 -1.6439  0.9333
   50CHL1   C20 3676   5.570   5.013   7.809 -0.2016 -0.6044 -0.2124
   50CHL1   H20 3677   5.485   5.067   7.856 -1.0806 -0.6943 -1.6515
   50CHL1   C21 3678   5.697   5.099   7.786 -0.3588 -0.6056  0.7393
   50CHL1  H21A 3679   5.723   5.164   7.872  1.4244  2.2673 -1.7370
   50CHL1  H21B 3680   5.699   5.161   7.694  0.1213 -0.0950  1.0832
   50CHL1  H21C 3681   5.778   5.027   7.763  0.8947  1.1272 -0.5636
   50CHL1   C22 3682   5.603   4.903   7.906  0.8084  0.3699  0.0073
   50CHL1  H22A 3683   5.508   4.856   7.938  1.1700  1.0491  2.2802
   50CHL1  H22B 3684   5.651   4.819   7.853 -0.0452 -0.2685  0.2312
   50CHL1   C23 3685   5.676   4.922   8.040 -0.6529 -0.0073 -0.5588
   50CHL1  H23A 3686   5.767   4.985   8.031 -2.7677  3.6444  1.1658
   50CHL1  H23B 3687   5.619   4.982   8.115  0.1998  0.1798 -0.0540
   50CHL1   C24 3688   5.713   4.785   8.113  0.3951 -0.5852 -0.0084
   50CHL1  H24A 3689   5.617   4.729   8.114  0.2822 -0.4311 -1.2979
   50CHL1  H24B 3690   5.783   4.724   8.053  0.6769 -0.4405  0.1705
   50CHL1   C25 3691   5.759   4.799   8.264  0.8903 -0.2078 -0.9255
   50CHL1   H25 3692   5.803   4.703   8.299  2.1780  0.8887  0.6251
   50CHL1   C26 3693   5.880   4.895   8.291  0.2971 -0.4470 -0.0565
   50CHL1  H26A 3694   5.859   5.001   8.267  4.0792  0.1696 -1.3275
   50CHL1  H26B 3695   5.926   4.871   8.390  0.2667 -1.6210 -0.3063
   50CHL1  H26C 3696   5.960   4.859   8.222 -0.2171 -0.6446 -0.5598
   50CHL1   C27 3697   5.641   4.833   8.360  0.7326 -0.0228  0.0288
   50CHL1  H27A 3698   5.677   4.847   8.464 -1.1345  0.8819  0.5988
   50CHL1  H27B 3699   5.585   4.922   8.325  2.0054  1.1375  0.8605
   50CHL1  H27C 3700   5.571   4.747   8.368 -0.0783  0.4482 -1.6677
   51CHL1    C3 3701   3.193   3.908   7.041  0.3234 -0.1419 -0.0074
   51CHL1    H3 3702   3.149   3.809   7.067 -2.9136  0.9078 -0.9256
   51CHL1    O3 3703   3.169   3.930   6.902  0.4075 -0.4521 -0.6814
   51CHL1   H3' 3704   3.232   3.884   6.846 -0.6079  0.4436 -2.7041
   51CHL1    C4 3705   3.128   4.021   7.125 -0.9230  0.0481 -0.4246
   51CHL1   H4A 3706   3.169   4.116   7.083 -1.6364  0.7134  0.3528
   51CHL1   H4B 3707   3.021   4.034   7.096 -0.6264  0.2149 -1.4901
   51CHL1    C5 3708   3.138   4.016   7.278  0.3742  0.4931 -0.0376
   51CHL1    C6 3709   3.038   4.004   7.362 -0.1985 -0.3951  0.2850
   51CHL1    H6 3710   2.939   4.024   7.320  0.0284  0.8778  0.3268
   51CHL1    C7 3711   3.047   3.981   7.508 -0.3536 -0.2696 -0.3855
   51CHL1   H7A 3712   2.967   4.040   7.557 -0.3607 -2.5038  2.5498
   51CHL1   H7B 3713   3.031   3.877   7.542 -1.5436  0.6121  1.9567
   51CHL1    C8 3714   3.193   4.012   7.555  0.2698 -0.0110  0.1362
   51CHL1    H8 3715   3.202   4.122   7.548  0.6491 -0.1308 -2.3806
   51CHL1   C14 3716   3.203   3.962   7.698 -0.5714  0.1760  0.4681
   51CHL1   H14 3717   3.191   3.851   7.696  1.5343 -0.1074 -2.0598
   51CHL1   C15 3718   3.102   4.016   7.801  0.7081  0.2852 -0.6085
   51CHL1  H15A 3719   3.091   4.126   7.792  1.1811  0.2585 -1.7268
   51CHL1  H15B 3720   3.009   3.956   7.795  0.2262  0.6930  1.8133
   51CHL1   C16 3721   3.171   3.995   7.939 -0.1185 -0.2706  0.0130
   51CHL1  H16A 3722   3.167   4.091   7.996 -3.4017 -0.4813  0.3107
   51CHL1  H16B 3723   3.115   3.914   7.991 -0.6550 -0.7921 -1.3249
   51CHL1   C17 3724   3.320   3.947   7.905  0.8301 -0.4708 -0.1099
   51CHL1   H17 3725   3.295   3.840   7.889 -1.4549  0.1727 -1.3109
   51CHL1   C13 3726   3.340   3.985   7.756 -0.0947  0.5026 -0.6512
   51CHL1   C18 3727   3.373   4.138   7.755  0.2705 -0.0325 -0.5764
   51CHL1  H18A 3728   3.306   4.193   7.825  2.6353  3.1039 -0.5464
   51CHL1  H18B 3729   3.475   4.159   7.795  0.3435 -0.2941 -0.6233
   51CHL1  H18C 3730   3.357   4.182   7.654 -0.2025 -1.3697 -1.1080
   51CHL1   C12 3731   3.447   3.906   7.674 -0.8842 -0.1630 -0.1156
   51CHL1  H12A 3732   3.550   3.910   7.715 -1.5276  0.3483  1.5287
   51CHL1  H12B 3733   3.432   3.796   7.678 -0.6647 -0.1584  2.0698
   51CHL1   C11 3734   3.439   3.954   7.526 -0.2308  0.1294  0.1940
   51CHL1  H11A 3735   3.472   4.060   7.527  1.3460 -0.2175  4.1717
   51CHL1  H11B 3736   3.515   3.906   7.461 -0.0547  1.2720 -0.4660
   51CHL1    C9 3737   3.296   3.947   7.464  0.9791 -0.6406 -0.0467
   51CHL1    H9 3738   3.267   3.840   7.455  0.3763 -0.4392 -0.5349
   51CHL1   C10 3739   3.290   3.997   7.319  0.2538 -0.3163 -0.3739
   51CHL1   C19 3740   3.350   4.139   7.295  0.4152  0.1658 -0.4585
   51CHL1  H19A 3741   3.319   4.212   7.372 -0.8382 -1.5807  0.7877
   51CHL1  H19B 3742   3.461   4.128   7.303  0.3423  0.5648  1.5807
   51CHL1  H19C 3743   3.314   4.182   7.199  0.4221  1.7810  0.2367
   51CHL1    C1 3744   3.367   3.897   7.229  0.6740 -0.3259  0.3821
   51CHL1   H1A 3745   3.477   3.908   7.235  0.3723  2.9416  2.4931
   51CHL1   H1B 3746   3.343   3.794   7.262 -0.9203 -0.6308 -1.5700
   51CHL1    C2 3747   3.342   3.919   7.078  0.9298  0.3602  0.2734
   51CHL1   H2A 3748   3.395   3.838   7.023  0.4217 -0.4764  0.9783
   51CHL1   H2B 3749   3.403   4.004   7.041  0.0603  0.2653 -1.4923
   51CHL1   C20 3750   3.427   3.966   8.012 -0.1545 -0.3444 -0.0635
   51CHL1   H20 3751   3.529   3.966   7.968  1.5008  1.8816  3.3251
   51CHL1   C21 3752   3.405   3.850   8.114 -0.3040 -0.1809  0.6600
   51CHL1  H21A 3753   3.425   3.753   8.064 -0.9601 -0.3113  0.6399
   51CHL1  H21B 3754   3.305   3.860   8.163  0.0063 -0.5222  1.3799
   51CHL1  H21C 3755   3.478   3.861   8.197 -0.5762 -1.7466  1.1459
   51CHL1   C22 3756   3.418   4.103   8.087  0.1234  0.6553  0.2297
   51CHL1  H22A 3757   3.427   4.182   8.009  0.6181  0.3124 -0.0657
   51CHL1  H22B 3758   3.325   4.109   8.148  1.1176  0.4950  1.8216
   51CHL1   C23 3759   3.524   4.134   8.191 -0.6934  0.0331 -0.0328
   51CHL1  H23A 3760   3.543   4.056   8.267  0.1742  2.4358  2.3650
   51CHL1  H23B 3761   3.619   4.151   8.136 -1.2094 -0.1489 -1.0089
   51CHL1   C24 3762   3.492   4.265   8.275  0.1204 -0.1641 -0.2565
   51CHL1  H24A 3763   3.472   4.351   8.208 -1.5870 -0.7815 -0.5929
   51CHL1  H24B 3764   3.401   4.238   8.334 -0.6897 -2.4649 -2.3980
   51CHL1   C25 3765   3.601   4.292   8.374 -0.0762  0.7059 -0.0508
   51CHL1   H25 3766   3.611   4.198   8.431  0.3727  0.1879 -0.9678
   51CHL1   C26 3767   3.735   4.332   8.298  0.3821  0.1517 -0.2041
   51CHL1  H26A 3768   3.806   4.380   8.370 -0.9539  2.1066 -0.1035
   51CHL1  H26B 3769   3.782   4.243   8.251  0.0319 -0.0122 -0.2411
   51CHL1  H26C 3770   3.701   4.404   8.220  1.7943  1.3827  0.2610
   51CHL1   C27 3771   3.556   4.405   8.464  0.0537  0.2784 -0.0993
   51CHL1  H27A 3772   3.638   4.470   8.500 -0.6340  1.8246 -1.1805
   51CHL1  H27B 3773   3.498   4.476   8.401  0.1611  0.3599 -0.1046
   51CHL1  H27C 3774   3.483   4.381   8.545  1.6577 -1.3344  0.9479
   52CHL1    C3 3775   4.661   4.674   7.023 -0.0373 -0.3053  0.0760
   52CHL1    H3 3776   4.589   4.755   6.997  0.1218 -0.6962 -1.6909
   52CHL1    O3 3777   4.690   4.601   6.902 -0.0801  0.0522 -0.0650
   52CHL1   H3' 3778   4.605   4.580   6.861 -0.7637  0.5196  1.0568
   52CHL1    C4 3779   4.793   4.736   7.072 -0.7136  0.1678  0.7100
   52CHL1   H4A 3780   4.875   4.662   7.064 -0.7595  0.2392 -0.7839
   52CHL1   H4B 3781   4.819   4.815   6.998 -2.6611  0.9316  0.7870
   52CHL1    C5 3782   4.793   4.783   7.212 -0.1858 -0.5596  0.3562
   52CHL1    C6 3783   4.833   4.911   7.238  0.2833 -0.0912  0.1057
   52CHL1    H6 3784   4.863   4.978   7.156 -1.4599 -0.1187 -0.6139
   52CHL1    C7 3785   4.838   4.966   7.380  0.4103 -0.1606  0.5698
   52CHL1   H7A 3786   4.938   5.011   7.397  1.2579 -1.0279 -1.7122
   52CHL1   H7B 3787   4.758   5.042   7.394  1.5688  1.4929 -1.2958
   52CHL1    C8 3788   4.801   4.866   7.492 -0.9377  0.0155  0.6258
   52CHL1    H8 3789   4.896   4.810   7.510  0.1227  2.0872  1.9051
   52CHL1   C14 3790   4.754   4.938   7.618  0.5158  0.4159  0.3688
   52CHL1   H14 3791   4.650   4.970   7.594  0.1372 -1.7932 -1.2636
   52CHL1   C15 3792   4.842   5.058   7.665 -0.3003 -0.0940 -0.2357
   52CHL1  H15A 3793   4.948   5.033   7.646 -0.6421 -2.1920  0.3463
   52CHL1  H15B 3794   4.811   5.150   7.610  0.1497 -1.0871 -2.2331
   52CHL1   C16 3795   4.807   5.073   7.812  0.1952 -0.4390 -0.0267
   52CHL1  H16A 3796   4.901   5.078   7.871  0.5037  1.3554 -0.6186
   52CHL1  H16B 3797   4.738   5.161   7.811 -0.2119 -0.7379 -1.5891
   52CHL1   C17 3798   4.706   4.956   7.844 -0.1456 -0.5509 -0.0325
   52CHL1   H17 3799   4.604   4.997   7.826 -0.3429 -0.7872  0.5217
   52CHL1   C13 3800   4.734   4.848   7.736 -0.1755 -0.1972 -0.3139
   52CHL1   C18 3801   4.861   4.781   7.774  0.2016  0.8729 -0.1895
   52CHL1  H18A 3802   4.946   4.851   7.791  0.1106  1.1533 -0.8614
   52CHL1  H18B 3803   4.840   4.724   7.867 -0.1558  1.5984  0.1832
   52CHL1  H18C 3804   4.886   4.705   7.697 -0.9744 -1.1653  1.3648
   52CHL1   C12 3805   4.613   4.757   7.692  0.3018  0.3629  0.2375
   52CHL1  H12A 3806   4.592   4.692   7.780  1.1466 -1.2494 -0.7154
   52CHL1  H12B 3807   4.520   4.817   7.679 -0.3617 -0.8657 -0.9155
   52CHL1   C11 3808   4.648   4.673   7.570 -0.1729  0.1383  0.0621
   52CHL1  H11A 3809   4.722   4.596   7.603 -0.8837 -0.6522 -0.1539
   52CHL1  H11B 3810   4.556   4.616   7.545 -0.1112 -0.3864  0.9702
   52CHL1    C9 3811   4.697   4.766   7.452  0.4701 -0.5904 -0.4882
   52CHL1    H9 3812   4.606   4.826   7.431 -0.9973 -2.6222 -0.2353
   52CHL1   C10 3813   4.723   4.695   7.318 -0.4713  0.1726 -0.3901
   52CHL1   C19 3814   4.833   4.586   7.339 -0.0866 -0.4646  0.3896
   52CHL1  H19A 3815   4.869   4.539   7.246 -0.1493 -0.1732  0.2153
   52CHL1  H19B 3816   4.922   4.633   7.387 -0.7919 -0.0378  1.3166
   52CHL1  H19C 3817   4.787   4.514   7.410 -1.2459 -1.7789 -1.5957
   52CHL1    C1 3818   4.589   4.632   7.276 -0.0187  0.5732  0.0015
   52CHL1   H1A 3819   4.560   4.554   7.350 -1.1710  2.6050  1.7958
   52CHL1   H1B 3820   4.521   4.719   7.277  1.0447  1.4721 -1.6282
   52CHL1    C2 3821   4.600   4.573   7.129 -0.1975  0.1029  0.9443
   52CHL1   H2A 3822   4.499   4.542   7.094 -0.4262  2.7610 -1.0785
   52CHL1   H2B 3823   4.664   4.483   7.118  1.3235  1.4264 -1.9823
   52CHL1   C20 3824   4.711   4.911   7.993  0.2566 -0.3425 -0.4615
   52CHL1   H20 3825   4.808   4.859   8.008 -0.0668 -1.2558 -1.4187
   52CHL1   C21 3826   4.600   4.811   8.022  0.4038  0.3066 -0.7717
   52CHL1  H21A 3827   4.613   4.711   7.974  0.6262  0.8092 -1.7985
   52CHL1  H21B 3828   4.496   4.843   7.998  0.5308  0.1744 -1.5304
   52CHL1  H21C 3829   4.606   4.795   8.132  0.0046  3.4979 -0.2065
   52CHL1   C22 3830   4.717   5.034   8.094  0.1152 -0.5915 -0.0819
   52CHL1  H22A 3831   4.742   4.971   8.182  0.4154  0.4349  0.5810
   52CHL1  H22B 3832   4.799   5.102   8.063 -0.5735 -1.6091 -5.1603
   52CHL1   C23 3833   4.588   5.120   8.113  0.5443  0.2788  0.7384
   52CHL1  H23A 3834   4.560   5.158   8.012 -0.2239 -1.0983  0.4117
   52CHL1  H23B 3835   4.498   5.059   8.134  1.1825 -0.3151  1.8860
   52CHL1   C24 3836   4.596   5.231   8.215 -0.4864  0.5102  0.0586
   52CHL1  H24A 3837   4.614   5.197   8.319 -1.6934 -0.7889 -0.1144
   52CHL1  H24B 3838   4.680   5.299   8.191 -0.8469  1.0387  0.2646
   52CHL1   C25 3839   4.463   5.298   8.222 -0.2398 -0.5854 -0.2525
   52CHL1   H25 3840   4.383   5.221   8.227 -3.7541  2.6509 -1.5184
   52CHL1   C26 3841   4.438   5.375   8.358  0.0961 -0.2779 -0.1578
   52CHL1  H26A 3842   4.448   5.314   8.450 -0.5534 -1.4878 -0.8590
   52CHL1  H26B 3843   4.511   5.457   8.374  1.7545 -1.3918 -1.6073
   52CHL1  H26C 3844   4.334   5.413   8.358  0.9371  2.2758 -1.4502
   52CHL1   C27 3845   4.431   5.386   8.093  0.4287 -0.8088 -0.5597
   52CHL1  H27A 3846   4.485   5.482   8.109 -1.7047  0.3481  0.0505
   52CHL1  H27B 3847   4.464   5.338   7.999  1.8436 -0.7297 -0.1314
   52CHL1  H27C 3848   4.323   5.409   8.089  0.4116 -0.0015  2.2493
   53CHL1    C3 3849   0.556   2.200   7.035 -0.5577 -0.8137 -0.0660
   53CHL1    H3 3850   0.474   2.129   7.060 -1.0847 -0.4537 -0.7147
   53CHL1    O3 3851   0.529   2.259   6.909  0.1525 -0.4018  0.7515
   53CHL1   H3' 3852   0.617   2.282   6.881  0.9905 -0.9238  2.7835
   53CHL1    C4 3853   0.565   2.318   7.145  0.0718 -0.0660  0.4045
   53CHL1   H4A 3854   0.644   2.388   7.112  0.2355 -0.6002 -0.3462
   53CHL1   H4B 3855   0.464   2.363   7.156 -0.4169 -1.2734  1.1407
   53CHL1    C5 3856   0.601   2.269   7.279 -0.0307 -0.0486 -0.0333
   53CHL1    C6 3857   0.522   2.288   7.389 -0.0663  0.4233  0.5339
   53CHL1    H6 3858   0.433   2.353   7.377 -0.5209 -0.0796  1.1006
   53CHL1    C7 3859   0.550   2.239   7.530 -0.8040  0.6715 -0.5220
   53CHL1   H7A 3860   0.504   2.305   7.606 -0.5258  2.7171 -2.0300
   53CHL1   H7B 3861   0.509   2.136   7.544  1.6333 -0.6188 -2.0547
   53CHL1    C8 3862   0.705   2.214   7.546 -0.2549  0.4210 -0.2286
   53CHL1    H8 3863   0.775   2.300   7.539 -0.0598  0.6175  2.6244
   53CHL1   C14 3864   0.731   2.143   7.682 -0.4816  0.2104  0.0103
   53CHL1   H14 3865   0.676   2.048   7.695 -1.4499  1.0327  2.5587
   53CHL1   C15 3866   0.689   2.220   7.809 -0.1873  0.0979  0.4625
   53CHL1  H15A 3867   0.733   2.321   7.795 -0.5235 -0.0413 -2.1808
   53CHL1  H15B 3868   0.579   2.230   7.821 -0.2466  1.1566 -0.7307
   53CHL1   C16 3869   0.759   2.142   7.922  0.2091 -0.7774 -0.3060
   53CHL1  H16A 3870   0.802   2.208   8.001  0.5046 -2.3641  0.9035
   53CHL1  H16B 3871   0.685   2.065   7.953 -0.5331  0.1971  0.4233
   53CHL1   C17 3872   0.872   2.052   7.856  0.5163 -0.6891  0.0190
   53CHL1   H17 3873   0.834   1.949   7.841 -2.3505  0.5576 -2.2190
   53CHL1   C13 3874   0.878   2.107   7.707  0.5845 -0.3211  0.2954
   53CHL1   C18 3875   0.962   2.233   7.715  0.4952 -0.4160 -0.3363
   53CHL1  H18A 3876   1.068   2.212   7.743  1.1190  1.1148 -1.3648
   53CHL1  H18B 3877   0.972   2.268   7.610 -2.1087  1.0775 -0.1526
   53CHL1  H18C 3878   0.925   2.313   7.782 -1.0852 -0.9625 -0.5174
   53CHL1   C12 3879   0.918   2.010   7.595 -0.4730  0.7943 -0.7536
   53CHL1  H12A 3880   1.025   1.981   7.602 -0.7506  0.1853  2.4918
   53CHL1  H12B 3881   0.862   1.914   7.606 -0.9041  1.0373 -0.8163
   53CHL1   C11 3882   0.887   2.056   7.452 -0.1964  0.5698  0.3131
   53CHL1  H11A 3883   0.967   2.133   7.451 -0.4818  1.2247  4.8999
   53CHL1  H11B 3884   0.912   1.981   7.374  0.9044  2.0783 -0.8566
   53CHL1    C9 3885   0.743   2.123   7.433  0.9480  0.6271  0.7315
   53CHL1    H9 3886   0.666   2.043   7.439  0.5522  1.1025  2.7901
   53CHL1   C10 3887   0.730   2.189   7.294  0.3618 -0.2556  0.8227
   53CHL1   C19 3888   0.846   2.280   7.266  0.1453 -0.2444  0.1635
   53CHL1  H19A 3889   0.832   2.340   7.174  1.3147 -1.1068 -0.5978
   53CHL1  H19B 3890   0.866   2.348   7.352  0.3021 -0.2472  0.1293
   53CHL1  H19C 3891   0.938   2.230   7.228  0.4799  1.1456 -0.9309
   53CHL1    C1 3892   0.720   2.075   7.184  0.5277  0.0819  0.2603
   53CHL1   H1A 3893   0.811   2.012   7.181  0.0081 -0.8641  2.2936
   53CHL1   H1B 3894   0.639   2.005   7.214  1.0557 -0.2507  0.9524
   53CHL1    C2 3895   0.686   2.123   7.041  0.0419 -0.0317  0.1686
   53CHL1   H2A 3896   0.682   2.027   6.985  1.1973  0.1053 -0.1801
   53CHL1   H2B 3897   0.775   2.181   7.009 -0.4453  1.4682  1.4032
   53CHL1   C20 3898   0.998   2.042   7.941  0.5963  0.0923 -0.5703
   53CHL1   H20 3899   1.032   2.147   7.948  0.5265  0.0103  2.5387
   53CHL1   C21 3900   1.107   1.961   7.877  0.6025  0.2657  0.2269
   53CHL1  H21A 3901   1.076   1.855   7.870 -0.5719  0.6756 -1.2844
   53CHL1  H21B 3902   1.195   1.984   7.941 -0.4299  1.2403  1.3630
   53CHL1  H21C 3903   1.128   1.997   7.774 -0.9873  1.7138  0.3620
   53CHL1   C22 3904   0.960   1.983   8.087 -1.0010 -1.3055 -0.5635
   53CHL1  H22A 3905   0.892   2.058   8.131  0.9272  1.0646 -1.3897
   53CHL1  H22B 3906   0.925   1.878   8.080  0.5021 -1.7621 -1.9385
   53CHL1   C23 3907   1.086   1.985   8.176  0.6791  0.2545  0.1200
   53CHL1  H23A 3908   1.161   1.919   8.126  0.1265  0.4224 -0.9787
   53CHL1  H23B 3909   1.140   2.081   8.183  0.4586  0.3475  0.6102
   53CHL1   C24 3910   1.052   1.936   8.317 -0.0198 -0.1380 -1.0292
   53CHL1  H24A 3911   0.990   2.012   8.370  0.8256  0.2969 -0.6443
   53CHL1  H24B 3912   0.985   1.848   8.326 -1.8535  1.3141  0.5529
   53CHL1   C25 3913   1.183   1.897   8.399  0.2494 -0.5496  0.5577
   53CHL1   H25 3914   1.197   1.791   8.368  1.9061 -0.9802  2.5374
   53CHL1   C26 3915   1.309   1.984   8.361  0.0599  0.6153 -0.5072
   53CHL1  H26A 3916   1.326   1.983   8.251 -2.0939  0.4434 -0.8912
   53CHL1  H26B 3917   1.293   2.089   8.393  4.6290  1.6431 -0.9113
   53CHL1  H26C 3918   1.399   1.951   8.418  0.2075 -1.5383 -1.8620
   53CHL1   C27 3919   1.162   1.888   8.550  0.4037 -0.1575 -0.1785
   53CHL1  H27A 3920   1.070   1.831   8.575  0.2602 -0.0518 -0.4670
   53CHL1  H27B 3921   1.252   1.842   8.597 -0.9658  0.7482  3.6723
   53CHL1  H27C 3922   1.139   1.989   8.589 -1.6877 -1.2185  1.5145
   54CHL1    C3 3923   2.259   2.840   6.834 -0.7003  0.6511  0.6499
   54CHL1    H3 3924   2.369   2.832   6.844 -0.6878  0.2042  0.2099
   54CHL1    O3 3925   2.229   2.854   6.692  0.1332 -0.0808 -0.2905
   54CHL1   H3' 3926   2.137   2.879   6.690 -0.3352 -1.0027  3.0526
   54CHL1    C4 3927   2.203   2.702   6.879  0.4097 -0.2579  0.0898
   54CHL1   H4A 3928   2.097   2.705   6.846  0.0979 -2.0283  0.8211
   54CHL1   H4B 3929   2.258   2.623   6.824 -0.6306 -0.4256 -0.7282
   54CHL1    C5 3930   2.209   2.689   7.025 -0.0693 -1.1730  0.8643
   54CHL1    C6 3931   2.265   2.580   7.077  0.1331 -0.1762  0.2310
   54CHL1    H6 3932   2.293   2.501   7.005  1.6513  1.1877 -0.7343
   54CHL1    C7 3933   2.287   2.554   7.227 -0.3803  0.3174  0.0627
   54CHL1   H7A 3934   2.260   2.449   7.251 -0.7609  0.4041  0.0310
   54CHL1   H7B 3935   2.393   2.578   7.250 -0.5164  0.3670  0.6626
   54CHL1    C8 3936   2.192   2.642   7.317 -0.5518 -0.0269 -0.2496
   54CHL1    H8 3937   2.096   2.593   7.288  0.0511 -0.6752 -1.2451
   54CHL1   C14 3938   2.231   2.635   7.467 -0.4589 -0.4619  0.4767
   54CHL1   H14 3939   2.330   2.685   7.475 -0.5592 -0.3954  1.4212
   54CHL1   C15 3940   2.262   2.498   7.532  0.6309  0.5890  0.3854
   54CHL1  H15A 3941   2.185   2.428   7.493  1.9129 -1.7973  1.8627
   54CHL1  H15B 3942   2.361   2.455   7.505 -0.4649 -1.2156 -1.0376
   54CHL1   C16 3943   2.245   2.526   7.684 -0.4368  0.5228  0.1236
   54CHL1  H16A 3944   2.167   2.454   7.715 -1.8861  2.8466  2.2039
   54CHL1  H16B 3945   2.345   2.503   7.728 -0.7894 -1.0535  0.1532
   54CHL1   C17 3946   2.207   2.678   7.700  0.5746 -0.1105 -0.5647
   54CHL1   H17 3947   2.307   2.726   7.701  1.6722 -2.1932  2.2885
   54CHL1   C13 3948   2.153   2.718   7.559  0.5391  0.1119 -0.6417
   54CHL1   C18 3949   2.011   2.663   7.543 -0.3685  0.0294  0.0397
   54CHL1  H18A 3950   1.958   2.690   7.449  1.0978  0.4246 -0.7054
   54CHL1  H18B 3951   2.011   2.553   7.550  0.7337  0.0477  0.3632
   54CHL1  H18C 3952   1.938   2.696   7.620 -0.3916  0.1189 -0.0194
   54CHL1   C12 3953   2.164   2.866   7.511 -0.3600 -0.5038 -0.2254
   54CHL1  H12A 3954   2.090   2.927   7.567 -0.4983 -1.4823  0.6887
   54CHL1  H12B 3955   2.263   2.912   7.529  0.2285 -1.4449 -0.9755
   54CHL1   C11 3956   2.129   2.884   7.363  0.4901  0.1626 -0.1517
   54CHL1  H11A 3957   2.019   2.876   7.357  0.4257  0.7924  0.1737
   54CHL1  H11B 3958   2.161   2.988   7.340 -1.1330  0.9150  0.8582
   54CHL1    C9 3959   2.201   2.785   7.269 -0.6594 -0.0104  0.5818
   54CHL1    H9 3960   2.310   2.808   7.276 -0.8294  0.6849  0.9660
   54CHL1   C10 3961   2.168   2.808   7.116  0.0959  0.5286 -0.1643
   54CHL1   C19 3962   2.018   2.816   7.110 -0.3690 -0.2545 -0.0459
   54CHL1  H19A 3963   1.972   2.805   7.009 -2.1872  0.3959  0.6681
   54CHL1  H19B 3964   1.981   2.735   7.177  0.8032 -1.7038 -1.0889
   54CHL1  H19C 3965   1.977   2.912   7.147 -0.6449 -0.6099  0.5889
   54CHL1    C1 3966   2.216   2.934   7.061 -0.4831 -0.4067 -0.1308
   54CHL1   H1A 3967   2.183   3.025   7.116  3.9512  0.9304  0.7315
   54CHL1   H1B 3968   2.326   2.930   7.072 -0.6694 -1.5216  2.1703
   54CHL1    C2 3969   2.201   2.960   6.910  0.4665 -0.5084 -0.0692
   54CHL1   H2A 3970   2.245   3.059   6.888 -0.1781 -0.5000 -1.4221
   54CHL1   H2B 3971   2.094   2.975   6.887 -0.0998 -1.0545  2.0316
   54CHL1   C20 3972   2.130   2.709   7.826 -0.4476  0.2898 -0.1640
   54CHL1   H20 3973   2.041   2.642   7.832  0.4027 -1.0814 -1.9011
   54CHL1   C21 3974   2.085   2.852   7.833 -0.5519  0.2517  0.5679
   54CHL1  H21A 3975   2.006   2.867   7.757 -1.4620 -1.2298  1.1625
   54CHL1  H21B 3976   2.175   2.915   7.819  0.0390 -0.5218  0.8085
   54CHL1  H21C 3977   2.054   2.863   7.939 -0.4990 -2.8276  1.0088
   54CHL1   C22 3978   2.212   2.671   7.960 -0.5862  0.6807  0.5018
   54CHL1  H22A 3979   2.145   2.715   8.037 -0.0784 -0.2039  1.4666
   54CHL1  H22B 3980   2.205   2.562   7.982 -0.3324  0.9725  2.1064
   54CHL1   C23 3981   2.358   2.711   7.962 -0.6474  0.8084 -0.1065
   54CHL1  H23A 3982   2.410   2.677   7.869 -0.4764  2.2506 -0.5636
   54CHL1  H23B 3983   2.367   2.822   7.958 -0.2306  0.9417  2.5400
   54CHL1   C24 3984   2.430   2.664   8.094  0.6620  0.2593 -0.2653
   54CHL1  H24A 3985   2.445   2.554   8.087 -0.1940  0.1795 -0.9515
   54CHL1  H24B 3986   2.526   2.719   8.083  1.2901 -0.8810 -0.5934
   54CHL1   C25 3987   2.369   2.693   8.235 -0.0744 -0.2662  0.2189
   54CHL1   H25 3988   2.267   2.651   8.242 -0.0080 -1.0003 -2.2331
   54CHL1   C26 3989   2.433   2.626   8.352 -0.4375  0.1885 -0.0953
   54CHL1  H26A 3990   2.375   2.659   8.440  1.9755  1.5540  1.0744
   54CHL1  H26B 3991   2.429   2.517   8.330  1.5070  0.2250 -0.8713
   54CHL1  H26C 3992   2.538   2.655   8.375 -0.8266  1.1371  0.5044
   54CHL1   C27 3993   2.377   2.848   8.256 -0.6364 -0.4006  0.4233
   54CHL1  H27A 3994   2.342   2.859   8.361 -2.4062  1.5365 -0.3006
   54CHL1  H27B 3995   2.479   2.890   8.253 -0.1554 -1.4375  1.2681
   54CHL1  H27C 3996   2.312   2.904   8.185 -0.0296  1.9724  1.6518
   55CHL1    C3 3997   1.097   3.200   6.933 -0.2712 -0.3434  0.3289
   55CHL1    H3 3998   1.176   3.277   6.938  1.0711 -1.7235  1.3367
   55CHL1    O3 3999   1.055   3.160   6.802 -0.1085 -0.2920  0.0967
   55CHL1   H3' 4000   0.993   3.092   6.829 -0.1144  0.0741  1.0783
   55CHL1    C4 4001   1.156   3.082   7.009  0.0240  0.3069 -0.0217
   55CHL1   H4A 4002   1.098   2.988   7.001  1.9694 -0.8307 -1.6762
   55CHL1   H4B 4003   1.254   3.058   6.963 -1.1361  0.2373 -2.6508
   55CHL1    C5 4004   1.172   3.106   7.156  0.3861  0.0387 -0.3201
   55CHL1    C6 4005   1.286   3.084   7.219  0.5869  0.2429 -1.4379
   55CHL1    H6 4006   1.377   3.052   7.165  2.1031  2.4859 -0.4081
   55CHL1    C7 4007   1.295   3.102   7.368  0.9492  0.6724  0.2251
   55CHL1   H7A 4008   1.343   3.013   7.413  0.9589  0.7296  0.3263
   55CHL1   H7B 4009   1.367   3.184   7.391 -0.4336  1.5968  1.4593
   55CHL1    C8 4010   1.164   3.122   7.451 -0.4601  0.2159  0.4301
   55CHL1    H8 4011   1.111   3.025   7.447  0.9433 -0.7060  2.5595
   55CHL1   C14 4012   1.182   3.154   7.595 -0.1351 -0.5571  0.3773
   55CHL1   H14 4013   1.241   3.248   7.599 -0.6164 -0.2942  2.1928
   55CHL1   C15 4014   1.274   3.072   7.688  0.3556  0.1665 -0.3726
   55CHL1  H15A 4015   1.254   2.964   7.708  0.8607  0.2602  0.7141
   55CHL1  H15B 4016   1.380   3.076   7.656  0.0818  2.0241 -1.1268
   55CHL1   C16 4017   1.251   3.135   7.822 -0.3312 -0.1223 -0.2273
   55CHL1  H16A 4018   1.257   3.059   7.903  0.9808  1.7437  1.5291
   55CHL1  H16B 4019   1.334   3.202   7.856 -1.1421  1.0303 -0.4624
   55CHL1   C17 4020   1.116   3.214   7.814  0.1382 -0.3259 -0.0810
   55CHL1   H17 4021   1.147   3.321   7.807  0.7041 -0.5884 -1.9013
   55CHL1   C13 4022   1.050   3.177   7.670 -0.5317  0.0792 -0.6619
   55CHL1   C18 4023   0.961   3.044   7.685 -0.1459  1.4674 -0.0478
   55CHL1  H18A 4024   1.018   2.967   7.741 -0.9539 -0.8266 -2.1686
   55CHL1  H18B 4025   0.868   3.070   7.740  0.6924  0.3011  2.0361
   55CHL1  H18C 4026   0.932   2.997   7.588 -1.4446  0.2495  0.8780
   55CHL1   C12 4027   0.977   3.289   7.600 -0.1918  0.1526  0.3278
   55CHL1  H12A 4028   0.878   3.320   7.639 -1.3983 -1.4927 -1.2525
   55CHL1  H12B 4029   1.040   3.380   7.614 -0.0088  0.0328  0.2847
   55CHL1   C11 4030   0.950   3.262   7.450 -0.0796 -0.3906 -0.0458
   55CHL1  H11A 4031   0.872   3.183   7.450 -2.1782  1.5921  1.3229
   55CHL1  H11B 4032   0.905   3.353   7.406 -0.3916 -1.6888 -2.6349
   55CHL1    C9 4033   1.076   3.215   7.374  0.1672 -0.3454  0.1591
   55CHL1    H9 4034   1.136   3.308   7.363 -0.9432  0.4472  0.6444
   55CHL1   C10 4035   1.045   3.158   7.233  0.3960 -0.2208 -0.2239
   55CHL1   C19 4036   0.935   3.051   7.243 -0.1940  1.2099 -0.2128
   55CHL1  H19A 4037   0.943   2.990   7.151 -1.5554 -0.1032  0.4795
   55CHL1  H19B 4038   0.955   2.968   7.314  0.0841  1.2626 -0.2293
   55CHL1  H19C 4039   0.830   3.088   7.247 -0.9612 -0.8083  0.0588
   55CHL1    C1 4040   1.000   3.289   7.147  0.3918  0.0451  0.1218
   55CHL1   H1A 4041   0.910   3.335   7.191  2.2310  3.3329  0.7885
   55CHL1   H1B 4042   1.080   3.365   7.130  2.2508 -1.8041  0.1451
   55CHL1    C2 4043   0.969   3.253   7.003  0.4883  0.1604 -0.5120
   55CHL1   H2A 4044   0.940   3.343   6.944  1.8191 -0.2914 -1.9369
   55CHL1   H2B 4045   0.889   3.178   6.988  0.7756 -0.0815 -0.8837
   55CHL1   C20 4046   1.025   3.204   7.936  0.7875  0.1617  0.3532
   55CHL1   H20 4047   0.976   3.104   7.941  1.1446  0.0250  1.3755
   55CHL1   C21 4048   0.912   3.311   7.926 -0.3937 -0.1580 -0.2638
   55CHL1  H21A 4049   0.964   3.406   7.902  0.2070 -0.8599 -1.9282
   55CHL1  H21B 4050   0.842   3.313   8.012  0.5132  1.7941  0.4834
   55CHL1  H21C 4051   0.842   3.303   7.840 -0.7456  0.3611 -0.0331
   55CHL1   C22 4052   1.116   3.233   8.059 -0.2146  0.2084  0.0783
   55CHL1  H22A 4053   1.203   3.164   8.065 -0.4726 -0.0541  1.0530
   55CHL1  H22B 4054   1.156   3.336   8.048 -1.4703  0.7685  0.5844
   55CHL1   C23 4055   1.037   3.211   8.189  0.1788 -0.8436  0.0324
   55CHL1  H23A 4056   0.960   3.290   8.202  1.1453  0.0656  0.4055
   55CHL1  H23B 4057   0.992   3.110   8.192 -0.7664 -0.4202  1.0654
   55CHL1   C24 4058   1.139   3.237   8.299 -0.2814  0.6330  0.1923
   55CHL1  H24A 4059   1.203   3.148   8.286 -1.5152 -0.3654  0.7473
   55CHL1  H24B 4060   1.205   3.326   8.289  2.4243 -1.2040  0.5389
   55CHL1   C25 4061   1.079   3.243   8.436 -0.4745 -0.2439 -0.8859
   55CHL1   H25 4062   1.033   3.344   8.439  0.6231  0.2786 -1.2069
   55CHL1   C26 4063   0.977   3.134   8.468  0.7610  0.9988 -0.2853
   55CHL1  H26A 4064   0.930   3.146   8.568  0.6130  1.3222 -0.3905
   55CHL1  H26B 4065   0.892   3.137   8.397 -0.7810 -0.4577  1.4249
   55CHL1  H26C 4066   1.023   3.033   8.467  0.4978  0.8771 -0.1593
   55CHL1   C27 4067   1.188   3.234   8.540  0.1293  0.1083 -0.4622
   55CHL1  H27A 4068   1.146   3.258   8.640 -0.2326 -0.7349 -0.4063
   55CHL1  H27B 4069   1.224   3.130   8.551  3.3628  1.2980  1.6928
   55CHL1  H27C 4070   1.273   3.300   8.510  0.3321  0.8158  1.4975
   56CHL1    C3 4071   1.660   1.935   6.966  0.3270  0.0921  0.3579
   56CHL1    H3 4072   1.701   2.035   6.940  0.6620  0.1165  0.9569
   56CHL1    O3 4073   1.559   1.925   6.862  0.1376  0.1688  0.1303
   56CHL1   H3' 4074   1.515   1.841   6.874 -0.1322  0.0489 -1.5305
   56CHL1    C4 4075   1.768   1.834   6.938  0.0216  0.0345  0.6905
   56CHL1   H4A 4076   1.727   1.732   6.921  1.1598 -0.5740  1.4842
   56CHL1   H4B 4077   1.812   1.861   6.840  2.0196  0.3985  1.6296
   56CHL1    C5 4078   1.874   1.816   7.043 -0.5567  0.9076 -0.4800
   56CHL1    C6 4079   2.008   1.806   7.034  0.0498  0.3791  0.3873
   56CHL1    H6 4080   2.052   1.804   6.934 -0.5685  0.6196  0.1028
   56CHL1    C7 4081   2.105   1.780   7.145 -0.0939 -0.1109 -0.0640
   56CHL1   H7A 4082   2.183   1.713   7.103  2.0441  1.5695  1.0706
   56CHL1   H7B 4083   2.155   1.878   7.157 -0.3444 -0.0309  0.3370
   56CHL1    C8 4084   2.047   1.733   7.278 -0.2667 -0.6809  0.2244
   56CHL1    H8 4085   2.022   1.625   7.270  0.3630 -0.7577 -0.8973
   56CHL1   C14 4086   2.144   1.768   7.388 -0.5878  0.0068  0.5247
   56CHL1   H14 4087   2.172   1.875   7.388 -0.9049  0.0927  0.6517
   56CHL1   C15 4088   2.284   1.697   7.384  0.4877  0.5947  0.2213
   56CHL1  H15A 4089   2.267   1.591   7.356 -0.4697  0.5846  0.8055
   56CHL1  H15B 4090   2.341   1.754   7.308 -0.1003 -0.4682 -1.0577
   56CHL1   C16 4091   2.341   1.712   7.526 -0.6974 -0.1034  0.3643
   56CHL1  H16A 4092   2.392   1.620   7.560  2.2014  0.7959 -1.2202
   56CHL1  H16B 4093   2.420   1.790   7.517  1.1862 -1.7994  1.4777
   56CHL1   C17 4094   2.218   1.765   7.616  0.3639  0.5713  0.6113
   56CHL1   H17 4095   2.227   1.875   7.631 -0.6479  0.3634  3.1863
   56CHL1   C13 4096   2.090   1.740   7.529 -0.7614 -1.2468  0.1874
   56CHL1   C18 4097   2.056   1.586   7.537 -0.0757 -0.0720  0.3836
   56CHL1  H18A 4098   1.998   1.560   7.628 -0.7322  2.6942  0.8317
   56CHL1  H18B 4099   1.972   1.556   7.469 -0.2881  0.7167  0.2875
   56CHL1  H18C 4100   2.140   1.517   7.514  1.1794  2.3880 -3.3252
   56CHL1   C12 4101   1.969   1.823   7.559  0.1030 -0.5234 -0.2131
   56CHL1  H12A 4102   1.927   1.799   7.659  2.1354  0.1002  0.8442
   56CHL1  H12B 4103   2.005   1.927   7.565 -0.2212 -0.3086 -1.6506
   56CHL1   C11 4104   1.866   1.806   7.446 -0.4695 -1.0577 -0.4463
   56CHL1  H11A 4105   1.826   1.702   7.447  1.9190 -2.1274 -2.6628
   56CHL1  H11B 4106   1.779   1.874   7.462  0.4230  0.0293 -0.0685
   56CHL1    C9 4107   1.924   1.824   7.302  0.5710 -0.0212 -0.8015
   56CHL1    H9 4108   1.960   1.929   7.311  0.5563 -0.2078  2.4545
   56CHL1   C10 4109   1.813   1.814   7.196 -0.1275  0.0632  0.3486
   56CHL1   C19 4110   1.743   1.676   7.207 -0.0921  0.4982 -0.0747
   56CHL1  H19A 4111   1.674   1.667   7.294 -0.8403 -0.4929 -0.7489
   56CHL1  H19B 4112   1.682   1.642   7.120 -0.4001  0.9634 -0.0475
   56CHL1  H19C 4113   1.813   1.592   7.220  2.0024  2.3486  1.3985
   56CHL1    C1 4114   1.714   1.938   7.206 -0.0420  0.6141 -0.3531
   56CHL1   H1A 4115   1.665   1.941   7.305  1.0698  0.6196  0.2025
   56CHL1   H1B 4116   1.776   2.030   7.196 -1.3015  1.9149  2.6135
   56CHL1    C2 4117   1.598   1.939   7.103 -0.1800 -0.1926  0.3450
   56CHL1   H2A 4118   1.557   2.042   7.112 -3.1827 -1.1800 -0.9735
   56CHL1   H2B 4119   1.527   1.855   7.121 -0.0427 -0.2507  0.6330
   56CHL1   C20 4120   2.221   1.703   7.763  0.0047 -0.4089 -0.5227
   56CHL1   H20 4121   2.202   1.593   7.768 -2.5714  0.0110  2.3805
   56CHL1   C21 4122   2.103   1.768   7.847 -1.3208 -0.0760  0.1115
   56CHL1  H21A 4123   2.140   1.770   7.952  2.0801 -1.7322 -0.8775
   56CHL1  H21B 4124   2.007   1.714   7.833 -0.9225 -1.1045  1.0876
   56CHL1  H21C 4125   2.090   1.876   7.825 -1.2222  0.5737  2.8891
   56CHL1   C22 4126   2.354   1.719   7.838 -0.3983  0.2477 -0.1821
   56CHL1  H22A 4127   2.440   1.712   7.768 -0.9519  0.0110 -0.8528
   56CHL1  H22B 4128   2.366   1.814   7.894  0.9144 -0.6399  1.0960
   56CHL1   C23 4129   2.372   1.604   7.936  0.1903  0.4988 -0.1596
   56CHL1  H23A 4130   2.279   1.591   7.996 -0.4193  2.1818 -0.6837
   56CHL1  H23B 4131   2.386   1.511   7.876 -0.7900  0.4017 -0.2669
   56CHL1   C24 4132   2.476   1.625   8.046 -0.1716 -0.5394  0.1759
   56CHL1  H24A 4133   2.579   1.649   8.010 -0.0195 -1.2928  0.1026
   56CHL1  H24B 4134   2.446   1.708   8.113 -2.6818 -1.0670 -0.2216
   56CHL1   C25 4135   2.497   1.513   8.144  0.7912  0.0106 -0.3843
   56CHL1   H25 4136   2.397   1.479   8.179 -0.2171 -0.4761 -3.4103
   56CHL1   C26 4137   2.551   1.402   8.062  0.1362 -0.0537 -0.4362
   56CHL1  H26A 4138   2.474   1.336   8.016  0.6149 -0.7074 -0.3075
   56CHL1  H26B 4139   2.605   1.331   8.128 -3.4582 -2.3962  0.2206
   56CHL1  H26C 4140   2.614   1.433   7.975  0.9628 -0.8638 -0.1481
   56CHL1   C27 4141   2.587   1.531   8.263 -0.2032 -0.6159 -0.4885
   56CHL1  H27A 4142   2.630   1.439   8.307  2.4112  1.5825  1.9855
   56CHL1  H27B 4143   2.672   1.599   8.241  0.6947 -1.2628  0.9120
   56CHL1  H27C 4144   2.527   1.577   8.344 -2.9463 -1.8887 -1.6493
   57SAPC     N 4145   5.922   5.592  11.077  0.4480 -0.0938 -0.1529
   57SAPC   C12 4146   5.858   5.610  10.942  0.0902 -0.6309 -0.3884
   57SAPC  H12A 4147   5.902   5.700  10.901  2.8809 -2.0799 -0.8380
   57SAPC  H12B 4148   5.755   5.635  10.959  1.0768  2.8127  1.6748
   57SAPC   C13 4149   6.063   5.567  11.059  0.7222  0.2147 -0.0968
   57SAPC  H13A 4150   6.096   5.470  11.025  2.1364  0.1825  1.2401
   57SAPC  H13B 4151   6.106   5.642  10.994  0.5238  2.6945  2.4254
   57SAPC  H13C 4152   6.127   5.581  11.145  1.1410  2.6854 -0.7229
   57SAPC   C14 4153   5.907   5.713  11.165  0.7970 -0.3629 -0.1393
   57SAPC  H14A 4154   5.932   5.686  11.266  1.5164 -1.6782 -0.6394
   57SAPC  H14B 4155   5.970   5.796  11.133 -2.2749  2.5111  0.6750
   57SAPC  H14C 4156   5.806   5.750  11.162  1.4237  1.3954 -1.1995
   57SAPC   C15 4157   5.855   5.481  11.144  0.7765  0.0534 -0.3435
   57SAPC  H15A 4158   5.846   5.403  11.069  2.4730  0.9868 -1.5787
   57SAPC  H15B 4159   5.897   5.433  11.231 -2.1650 -2.1166  0.0408
   57SAPC  H15C 4160   5.751   5.507  11.155  0.3979 -1.7716  0.8293
   57SAPC   C11 4161   5.866   5.503  10.839  0.4446 -0.1907 -0.0541
   57SAPC  H11A 4162   5.973   5.480  10.819  0.8707  1.0193  0.6933
   57SAPC  H11B 4163   5.814   5.540  10.747 -1.3557  1.2393  1.4446
   57SAPC     P 4164   5.804   5.241  10.836 -0.2996 -0.1575 -0.0840
   57SAPC   O13 4165   5.865   5.162  10.946 -0.2770 -0.0093  0.5183
   57SAPC   O14 4166   5.669   5.195  10.792 -0.4792 -0.8040  0.0721
   57SAPC   O12 4167   5.796   5.387  10.879  0.4608 -0.3468 -0.4072
   57SAPC   O11 4168   5.899   5.234  10.723  0.0005 -0.0117  0.0586
   57SAPC    C1 4169   5.876   5.282  10.589 -0.2612  0.0894  0.3071
   57SAPC    HA 4170   5.841   5.204  10.518 -0.8341 -0.6003  1.3170
   57SAPC    HB 4171   5.809   5.371  10.594  1.3807  1.3117  1.9425
   57SAPC    C2 4172   6.009   5.344  10.531  0.8130 -0.0534  0.3210
   57SAPC    HS 4173   5.985   5.450  10.510  0.6909 -0.2488 -0.5858
   57SAPC   O21 4174   6.043   5.272  10.406  0.0443  0.2043  0.8163
   57SAPC   C21 4175   5.998   5.333  10.292 -0.6517 -0.8903 -0.5888
   57SAPC   O22 4176   5.946   5.443  10.290 -0.2983  0.0628  0.8995
   57SAPC   C22 4177   6.023   5.245  10.173  0.0610 -0.3695  0.1637
   57SAPC   H2R 4178   6.124   5.201  10.187 -0.3504 -0.4159  4.0545
   57SAPC   H2S 4179   5.944   5.167  10.171  0.5071 -0.9242  1.9610
   57SAPC    C3 4180   6.128   5.339  10.631 -0.6463 -0.1345  0.0831
   57SAPC    HX 4181   6.147   5.236  10.668 -1.1344 -0.8142 -1.5106
   57SAPC    HY 4182   6.125   5.397  10.726  0.6528  1.1318 -0.6000
   57SAPC   O31 4183   6.243   5.374  10.550 -0.1307  0.1183  0.0125
   57SAPC   C31 4184   6.284   5.504  10.558  0.4207 -0.2331  0.0114
   57SAPC   O32 4185   6.231   5.587  10.633 -0.1314  0.0016  0.0278
   57SAPC   C32 4186   6.406   5.535  10.476  0.2426  0.3123  0.7536
   57SAPC   H2X 4187   6.486   5.467  10.510 -0.8552  0.4079  3.8505
   57SAPC   H2Y 4188   6.438   5.641  10.486  0.0839  0.4202  0.1157
   57SAPC   C23 4189   6.020   5.313  10.035 -0.3650  0.4271  0.0374
   57SAPC   H3R 4190   6.084   5.404  10.031 -0.1606  0.3101 -4.9425
   57SAPC   H3S 4191   5.917   5.344  10.005 -1.5434 -2.4852  0.7613
   57SAPC   C24 4192   6.080   5.228   9.917  0.3498  0.7720 -0.0089
   57SAPC   H4R 4193   6.029   5.264   9.825  2.6534 -0.0448 -1.6973
   57SAPC   H4S 4194   6.042   5.123   9.921  1.7792  0.2252 -0.1014
   57SAPC   C25 4195   6.228   5.225   9.902 -0.3778 -0.0454  0.5392
   57SAPC   H5R 4196   6.285   5.192   9.990  3.0842  2.5751 -0.5055
   57SAPC   C26 4197   6.297   5.266   9.794 -0.1142  0.1103  0.3173
   57SAPC   H6R 4198   6.407   5.264   9.793 -0.0883  0.3490 -2.1260
   57SAPC   C27 4199   6.235   5.319   9.670 -0.8057  0.0882 -0.2159
   57SAPC   H7R 4200   6.312   5.377   9.615 -2.4988  2.2834 -0.4146
   57SAPC   H7S 4201   6.159   5.394   9.699 -1.5935 -0.7475 -0.0820
   57SAPC   C28 4202   6.174   5.211   9.591  0.2736  0.0153 -0.1823
   57SAPC   H8R 4203   6.128   5.132   9.652  2.4101 -1.3095 -0.1433
   57SAPC   C29 4204   6.162   5.202   9.457 -0.0811  0.2724  0.5150
   57SAPC   H9R 4205   6.127   5.105   9.417  1.2088 -0.8193  1.9026
   57SAPC  C210 4206   6.215   5.301   9.352 -0.1738 -0.6831  0.5353
   57SAPC  H10R 4207   6.299   5.359   9.396  1.4753 -1.8433 -0.9314
   57SAPC  H10S 4208   6.138   5.375   9.322 -1.2829 -2.4279 -1.1502
   57SAPC  C211 4209   6.268   5.217   9.237  0.5706 -0.4116 -0.4362
   57SAPC  H11R 4210   6.349   5.151   9.271  0.3417 -0.2557  0.4156
   57SAPC  C212 4211   6.255   5.231   9.106 -0.1441 -0.5798  0.2270
   57SAPC  H12R 4212   6.303   5.163   9.033  2.2742  2.1923 -0.9645
   57SAPC  C213 4213   6.177   5.342   9.036 -0.7595 -0.2681  0.6745
   57SAPC  H13R 4214   6.155   5.417   9.115  0.0538 -2.2013  2.8678
   57SAPC  H13S 4215   6.083   5.309   8.988 -0.3602  0.5488 -0.7271
   57SAPC  C214 4216   6.273   5.402   8.938 -0.8246  0.6358  0.2554
   57SAPC  H14R 4217   6.360   5.451   8.984 -0.0333 -0.1133 -0.4009
   57SAPC  C215 4218   6.275   5.385   8.802  0.0753  0.5730 -1.0860
   57SAPC  H15R 4219   6.342   5.441   8.735  1.2904 -1.6612 -1.8428
   57SAPC  C216 4220   6.179   5.313   8.720 -0.4046 -0.0864  0.0895
   57SAPC  H16R 4221   6.150   5.368   8.628 -1.9846 -0.2847  0.4331
   57SAPC  H16S 4222   6.086   5.301   8.779  0.6285  0.5623  1.9185
   57SAPC  C217 4223   6.231   5.174   8.671  0.5078  0.1252 -0.1189
   57SAPC  H17R 4224   6.247   5.116   8.764 -0.6760 -0.8504 -0.4950
   57SAPC  H17S 4225   6.323   5.170   8.608 -1.0073 -1.6254 -2.3895
   57SAPC  C218 4226   6.115   5.106   8.598 -0.7057  0.1334 -0.2340
   57SAPC  H18R 4227   6.105   5.132   8.490 -0.6600  0.4360 -0.1673
   57SAPC  H18S 4228   6.021   5.142   8.646 -0.6094  1.0766 -0.7194
   57SAPC  C219 4229   6.120   4.955   8.608  0.4203  0.2950  0.4577
   57SAPC  H19R 4230   6.022   4.914   8.575 -0.0426 -0.4305  2.5412
   57SAPC  H19S 4231   6.134   4.909   8.708 -1.7191 -2.5631 -0.4167
   57SAPC  C220 4232   6.236   4.892   8.528  0.2234  0.4025 -0.5266
   57SAPC  H20R 4233   6.233   4.781   8.539 -2.3686  0.5879  1.8090
   57SAPC  H20S 4234   6.338   4.923   8.559 -0.7023  2.0670  1.0468
   57SAPC  H20T 4235   6.230   4.909   8.418  0.7100 -2.5180 -1.0799
   57SAPC   C33 4236   6.372   5.503  10.335  0.1676 -0.2463  0.3647
   57SAPC   H3X 4237   6.313   5.409  10.328  1.6100 -1.2641  1.1341
   57SAPC   H3Y 4238   6.470   5.485  10.286  0.0872  1.0200 -0.2915
   57SAPC   C34 4239   6.300   5.615  10.246 -0.0041  0.0008 -0.1104
   57SAPC   H4X 4240   6.332   5.719  10.263 -0.3378  0.0721  0.0945
   57SAPC   H4Y 4241   6.196   5.621  10.285  0.8706  1.2540  2.2072
   57SAPC   C35 4242   6.295   5.587  10.100 -0.2372  0.0420  0.0223
   57SAPC   H5X 4243   6.201   5.628  10.056  0.4523 -0.2923 -1.8602
   57SAPC   H5Y 4244   6.294   5.480  10.070  0.9286  0.3848 -1.3797
   57SAPC   C36 4245   6.391   5.678  10.028  0.4683 -0.6078  0.1209
   57SAPC   H6X 4246   6.490   5.650  10.069  0.5483 -0.1740  0.2201
   57SAPC   H6Y 4247   6.370   5.786  10.044  0.7017 -0.4732 -0.4562
   57SAPC   C37 4248   6.395   5.664   9.868  0.1116 -0.0214  0.2752
   57SAPC   H7X 4249   6.297   5.636   9.824  0.3040  0.1943 -0.2943
   57SAPC   H7Y 4250   6.471   5.584   9.855 -1.8079 -1.7163 -1.0127
   57SAPC   C38 4251   6.440   5.798   9.802 -0.2364  0.2737 -0.2972
   57SAPC   H8X 4252   6.532   5.839   9.849 -0.4006 -0.1958  0.4403
   57SAPC   H8Y 4253   6.364   5.875   9.826  0.0391 -0.2908  2.7645
   57SAPC   C39 4254   6.469   5.777   9.652  0.0529 -0.6060 -0.1383
   57SAPC   H9X 4255   6.444   5.872   9.601  1.2107 -0.2750 -0.1141
   57SAPC   H9Y 4256   6.394   5.704   9.616  0.2535  0.0871 -2.0418
   57SAPC  C310 4257   6.612   5.732   9.628  0.0278  0.4180  0.3084
   57SAPC  H10X 4258   6.628   5.632   9.673 -2.9122 -0.4205 -0.2852
   57SAPC  H10Y 4259   6.684   5.799   9.679 -1.0058  0.1102  2.3148
   57SAPC  C311 4260   6.639   5.708   9.485  0.0856 -0.0594 -0.5907
   57SAPC  H11X 4261   6.602   5.801   9.438 -0.1950  0.3350  0.3768
   57SAPC  H11Y 4262   6.578   5.621   9.452 -0.4245  0.8425 -2.1133
   57SAPC  C312 4263   6.787   5.679   9.449  0.3550 -0.3176  0.8575
   57SAPC  H12X 4264   6.822   5.586   9.498  0.3820  0.0599  1.5677
   57SAPC  H12Y 4265   6.857   5.763   9.471  0.4893 -0.0758 -0.4029
   57SAPC  C313 4266   6.780   5.650   9.299  0.1198 -0.3031 -0.2193
   57SAPC  H13X 4267   6.741   5.736   9.242 -0.9695  0.2692  1.3136
   57SAPC  H13Y 4268   6.711   5.563   9.287 -0.3533 -0.2710  1.8392
   57SAPC  C314 4269   6.904   5.603   9.226 -0.4400  0.4885 -0.2079
   57SAPC  H14X 4270   6.925   5.495   9.245 -1.4830  0.1266 -1.0049
   57SAPC  H14Y 4271   6.989   5.659   9.270  0.3802 -0.8395 -0.0504
   57SAPC  C315 4272   6.905   5.612   9.071 -0.5559 -0.2142 -0.3848
   57SAPC  H15X 4273   6.909   5.715   9.031 -0.0361  0.4670  1.3326
   57SAPC  H15Y 4274   6.807   5.574   9.037  0.2752 -1.6054 -1.3632
   57SAPC  C316 4275   7.018   5.532   9.000 -0.5941  0.5577 -0.1334
   57SAPC  H16X 4276   7.041   5.438   9.055 -0.2952  1.8062  1.9808
   57SAPC  H16Y 4277   7.111   5.594   8.991  1.4943 -2.1224  1.5438
   57SAPC  C317 4278   6.991   5.482   8.857 -0.3740 -0.1114 -0.0830
   57SAPC  H17X 4279   7.076   5.421   8.819 -1.0334 -1.2693  0.2442
   57SAPC  H17Y 4280   6.975   5.567   8.788  1.2141 -0.1469 -0.5355
   57SAPC  C318 4281   6.869   5.392   8.848  0.1028 -0.0994 -0.6045
   57SAPC  H18X 4282   6.851   5.342   8.750 -0.5313 -0.0874 -0.4973
   57SAPC  H18Y 4283   6.783   5.460   8.867  0.7253  0.7105 -0.6229
   57SAPC  H18Z 4284   6.857   5.316   8.927  1.4676  2.2247  2.0081
   58SAPC     N 4285   5.113   4.458  10.687  0.1122  1.2420 -0.3632
   58SAPC   C12 4286   5.001   4.549  10.640 -0.7090  0.6512 -0.1125
   58SAPC  H12A 4287   4.926   4.482  10.598  0.4394 -1.4482  1.0504
   58SAPC  H12B 4288   5.041   4.610  10.561 -1.7105  1.1877 -0.2272
   58SAPC   C13 4289   5.218   4.534  10.758 -0.2950 -0.1542  0.0730
   58SAPC  H13A 4290   5.176   4.577  10.848 -1.2366  1.8603 -1.2514
   58SAPC  H13B 4291   5.307   4.481  10.786  0.7334  1.4893  0.0063
   58SAPC  H13C 4292   5.254   4.619  10.702 -0.2299 -0.8048 -0.9050
   58SAPC   C14 4293   5.050   4.363  10.782 -0.5965  1.0584  1.0197
   58SAPC  H14A 4294   4.977   4.303  10.729 -0.7350 -0.3277  2.6920
   58SAPC  H14B 4295   5.127   4.306  10.833 -0.4018 -0.0535 -0.4600
   58SAPC  H14C 4296   4.993   4.410  10.860 -1.0870  0.6309  0.9258
   58SAPC   C15 4297   5.175   4.380  10.579  0.4172 -0.3300 -0.2587
   58SAPC  H15A 4298   5.096   4.334  10.521 -0.2011  1.8584 -1.2582
   58SAPC  H15B 4299   5.219   4.452  10.512  1.8680 -0.3999  0.5600
   58SAPC  H15C 4300   5.244   4.307  10.618  0.1042  0.4203  1.8616
   58SAPC   C11 4301   4.929   4.642  10.739  0.2621 -0.2281  0.0313
   58SAPC  H11A 4302   4.896   4.589  10.830  0.3349 -0.8897 -0.3193
   58SAPC  H11B 4303   4.834   4.673  10.690  1.1524  0.3881 -1.3738
   58SAPC     P 4304   5.011   4.883  10.665 -0.2678 -0.2871 -0.0978
   58SAPC   O13 4305   4.889   4.965  10.672 -0.2116  0.2856  0.4896
   58SAPC   O14 4306   5.138   4.954  10.698 -0.3451 -0.1513  0.1100
   58SAPC   O12 4307   5.010   4.756  10.760  0.4865 -0.4026  0.0094
   58SAPC   O11 4308   5.020   4.829  10.515  0.0694  0.2332  0.4082
   58SAPC    C1 4309   4.907   4.865  10.426 -0.3957  0.1202 -0.1281
   58SAPC    HA 4310   4.816   4.814  10.463  0.3186 -0.1263  1.3803
   58SAPC    HB 4311   4.898   4.976  10.426  2.8198  0.5090 -1.2920
   58SAPC    C2 4312   4.936   4.833  10.275 -0.5005  0.3062 -0.4664
   58SAPC    HS 4313   4.843   4.839  10.215 -0.5830 -0.0240 -0.3741
   58SAPC   O21 4314   4.984   4.700  10.264 -0.2622 -0.3505  0.4942
   58SAPC   C21 4315   4.898   4.607  10.294  0.3491  0.2866 -0.7034
   58SAPC   O22 4316   4.780   4.632  10.312  0.1603  0.3775  0.5824
   58SAPC   C22 4317   4.962   4.473  10.279  0.1267 -0.2253  0.1740
   58SAPC   H2R 4318   5.067   4.486  10.313  0.0114  5.3703 -0.6670
   58SAPC   H2S 4319   4.902   4.400  10.337 -0.0861  0.4023  0.7566
   58SAPC    C3 4320   5.041   4.931  10.216  0.2655  0.3086 -0.1398
   58SAPC    HX 4321   5.123   4.925  10.291  1.3392 -0.4901 -1.3407
   58SAPC    HY 4322   4.996   5.031  10.234 -1.3393 -0.6475  1.5638
   58SAPC   O31 4323   5.084   4.900  10.084 -0.1842 -0.4282  0.0382
   58SAPC   C31 4324   5.001   4.919   9.985  0.5843  0.0736  0.1090
   58SAPC   O32 4325   4.891   4.975   9.998 -0.4026  0.2205 -0.1314
   58SAPC   C32 4326   5.078   4.871   9.859  0.3964  0.0052  0.9717
   58SAPC   H2X 4327   5.097   4.762   9.859 -0.3605 -0.1607 -0.7290
   58SAPC   H2Y 4328   5.175   4.925   9.854  1.1076 -1.3219 -0.2558
   58SAPC   C23 4329   4.973   4.419  10.128 -0.7216 -0.3813 -1.2662
   58SAPC   H3R 4330   5.073   4.371  10.122 -0.2811  0.4637 -0.8391
   58SAPC   H3S 4331   4.988   4.504  10.058 -0.4341 -0.6141 -1.4890
   58SAPC   C24 4332   4.858   4.321  10.092  0.1121 -0.9917 -0.1915
   58SAPC   H4R 4333   4.843   4.234  10.160 -0.7936  0.6124  1.7544
   58SAPC   H4S 4334   4.885   4.283   9.991 -1.2287  1.5893 -1.5929
   58SAPC   C25 4335   4.727   4.388  10.103  0.0088  0.5547  0.1655
   58SAPC   H5R 4336   4.705   4.432  10.201 -3.4016  0.2458 -0.3457
   58SAPC   C26 4337   4.646   4.409   9.998 -0.3384  0.1585  0.5542
   58SAPC   H6R 4338   4.551   4.464  10.006  0.1150  1.1263 -0.4509
   58SAPC   C27 4339   4.681   4.366   9.858 -0.6731  0.0752 -0.2679
   58SAPC   H7R 4340   4.660   4.258   9.847  0.2335 -0.0329 -1.0515
   58SAPC   H7S 4341   4.791   4.371   9.840 -0.3185 -1.6374  1.1707
   58SAPC   C28 4342   4.614   4.447   9.752  0.6266 -0.3378  0.5959
   58SAPC   H8R 4343   4.508   4.463   9.774  0.3198  0.7004 -1.4010
   58SAPC   C29 4344   4.665   4.491   9.636  0.8850 -0.1936 -0.3186
   58SAPC   H9R 4345   4.599   4.564   9.588  0.4152 -0.5873 -0.2740
   58SAPC  C210 4346   4.805   4.458   9.594  0.3303  0.0203 -0.5805
   58SAPC  H10R 4347   4.794   4.385   9.511  1.6074 -1.4696  0.5016
   58SAPC  H10S 4348   4.873   4.405   9.664 -0.5765 -1.9975 -1.1533
   58SAPC  C211 4349   4.869   4.586   9.536 -0.1540 -0.0414 -0.2473
   58SAPC  H11R 4350   4.909   4.656   9.611  2.7830 -2.0850  0.2311
   58SAPC  C212 4351   4.882   4.614   9.404 -0.3344  0.3917 -0.3947
   58SAPC  H12R 4352   4.941   4.704   9.380  0.0265 -0.5845 -3.7270
   58SAPC  C213 4353   4.813   4.538   9.290  0.0962 -0.2812 -0.0799
   58SAPC  H13R 4354   4.718   4.489   9.321  0.6367 -1.6533 -0.5477
   58SAPC  H13S 4355   4.886   4.462   9.255  0.5497 -0.2017  0.6708
   58SAPC  C214 4356   4.780   4.640   9.187 -0.5707  0.7755 -0.1766
   58SAPC  H14R 4357   4.710   4.716   9.224 -2.0993 -0.5984 -0.1271
   58SAPC  C215 4358   4.843   4.654   9.070  0.7244 -0.2334 -0.4692
   58SAPC  H15R 4359   4.803   4.727   8.999 -1.0073 -0.4282  0.2609
   58SAPC  C216 4360   4.958   4.570   9.016  0.8129 -0.1862 -0.1069
   58SAPC  H16R 4361   5.003   4.505   9.093  2.4961  2.3475  1.2071
   58SAPC  H16S 4362   5.038   4.640   8.984  0.3761  0.7395  0.7555
   58SAPC  C217 4363   4.916   4.507   8.883 -0.4579  0.3152 -0.7887
   58SAPC  H17R 4364   4.828   4.444   8.908 -0.2502  0.3092 -0.0490
   58SAPC  H17S 4365   5.000   4.441   8.851 -0.9828 -0.2140 -1.1138
   58SAPC  C218 4366   4.872   4.597   8.761  0.5192  0.1547 -0.1324
   58SAPC  H18R 4367   4.965   4.640   8.719  0.4674  2.2586  1.7490
   58SAPC  H18S 4368   4.807   4.683   8.790  0.1209 -0.6329  1.4155
   58SAPC  C219 4369   4.805   4.522   8.652  0.0685  0.1922 -0.0150
   58SAPC  H19R 4370   4.706   4.481   8.681  1.0898 -1.9004  0.7797
   58SAPC  H19S 4371   4.864   4.431   8.628 -2.0635 -1.0780 -0.7055
   58SAPC  C220 4372   4.802   4.603   8.522 -0.2062  0.2227  0.3896
   58SAPC  H20R 4373   4.910   4.614   8.497  0.2174 -0.9712  1.5342
   58SAPC  H20S 4374   4.760   4.705   8.531  1.1461  0.9837 -1.3968
   58SAPC  H20T 4375   4.755   4.553   8.435  0.3339 -3.7204  2.0997
   58SAPC   C33 4376   5.011   4.929   9.731  0.4072  0.4379  0.2926
   58SAPC   H3X 4377   5.010   5.040   9.742  0.3590  0.3090  1.7019
   58SAPC   H3Y 4378   4.903   4.902   9.725  0.4956  0.1674 -0.1073
   58SAPC   C34 4379   5.073   4.895   9.598 -1.1607  0.2519  0.2527
   58SAPC   H4X 4380   5.065   4.786   9.576 -1.9893  0.6146 -1.4463
   58SAPC   H4Y 4381   5.180   4.923   9.602 -1.3747  1.3474 -1.0449
   58SAPC   C35 4382   5.009   4.978   9.482  0.0157  0.1852 -0.4701
   58SAPC   H5X 4383   4.998   5.082   9.518 -0.9530  0.7147 -2.1857
   58SAPC   H5Y 4384   4.906   4.949   9.453 -0.1320 -1.3570  1.4095
   58SAPC   C36 4385   5.091   4.970   9.356  0.0334  0.5111  0.6283
   58SAPC   H6X 4386   5.138   4.870   9.347 -1.6678 -0.4152  1.6303
   58SAPC   H6Y 4387   5.179   5.037   9.364 -0.1862  0.6002  2.9720
   58SAPC   C37 4388   5.007   4.994   9.231 -0.2717 -0.4410  0.7373
   58SAPC   H7X 4389   4.959   5.095   9.236  2.6146  1.0761 -0.0761
   58SAPC   H7Y 4390   4.924   4.920   9.235 -2.8299  2.0712 -1.5023
   58SAPC   C38 4391   5.091   4.975   9.100  0.3770 -0.3504 -0.1697
   58SAPC   H8X 4392   5.027   4.986   9.010 -3.6104 -1.7534  2.2380
   58SAPC   H8Y 4393   5.136   4.875   9.086  1.9768  0.1531  0.9701
   58SAPC   C39 4394   5.208   5.068   9.087  0.4842  0.4500 -0.0285
   58SAPC   H9X 4395   5.278   5.059   9.173  1.4790  1.0062 -0.7607
   58SAPC   H9Y 4396   5.164   5.170   9.095  2.2687  1.1882  0.8985
   58SAPC  C310 4397   5.297   5.053   8.963  0.0599  0.3274  0.0364
   58SAPC  H10X 4398   5.374   4.981   8.999 -1.2633 -1.0980  0.1258
   58SAPC  H10Y 4399   5.336   5.155   8.942 -0.0447  0.4366  0.3741
   58SAPC  C311 4400   5.235   4.985   8.836  0.1896  0.0430  0.2283
   58SAPC  H11X 4401   5.162   5.064   8.809 -0.1411 -0.5929 -0.8041
   58SAPC  H11Y 4402   5.171   4.899   8.863 -2.7646  2.3010  0.8863
   58SAPC  C312 4403   5.331   4.951   8.717 -0.9133  0.2924  0.1886
   58SAPC  H12X 4404   5.368   4.846   8.722 -0.2644  0.5689  2.1737
   58SAPC  H12Y 4405   5.411   5.027   8.722  0.2347 -0.8988  0.4738
   58SAPC  C313 4406   5.255   4.975   8.584 -0.2363 -0.4351 -0.1671
   58SAPC  H13X 4407   5.233   5.083   8.594 -0.1329 -0.5102  1.1187
   58SAPC  H13Y 4408   5.167   4.909   8.566  0.0050 -1.2167  1.3396
   58SAPC  C314 4409   5.354   4.970   8.474 -0.0805 -0.7019  0.9666
   58SAPC  H14X 4410   5.394   4.867   8.467 -1.6087 -1.2360 -2.3088
   58SAPC  H14Y 4411   5.436   5.039   8.502 -0.5004  0.0880  0.3040
   58SAPC  C315 4412   5.292   4.992   8.333 -0.1323 -0.7444  0.2546
   58SAPC  H15X 4413   5.368   5.023   8.258  0.0288 -1.8359 -0.0504
   58SAPC  H15Y 4414   5.209   5.066   8.332 -0.0558 -0.4946  3.4221
   58SAPC  C316 4415   5.226   4.866   8.269  0.3001 -0.8094 -0.1583
   58SAPC  H16X 4416   5.161   4.821   8.348  2.0304 -0.3354  1.6175
   58SAPC  H16Y 4417   5.305   4.789   8.259  0.3826 -1.1920  2.6439
   58SAPC  C317 4418   5.162   4.900   8.140  0.3195  0.0264 -0.0248
   58SAPC  H17X 4419   5.227   4.980   8.098  1.7336  0.0736  2.0634
   58SAPC  H17Y 4420   5.055   4.922   8.160  0.1086 -1.0951  0.1976
   58SAPC  C318 4421   5.172   4.776   8.043 -0.7352 -0.3558  0.5341
   58SAPC  H18X 4422   5.111   4.794   7.951 -2.9162 -1.2493  1.7268
   58SAPC  H18Y 4423   5.143   4.682   8.093 -0.1616  0.2295  2.0052
   58SAPC  H18Z 4424   5.281   4.768   8.027 -0.5945  0.6685  0.9123
   59SAPC     N 4425   6.521   4.949  11.159  0.7041  0.8121  0.0739
   59SAPC   C12 4426   6.633   4.903  11.071  0.0993  0.3692 -0.2162
   59SAPC  H12A 4427   6.635   4.795  11.068 -3.2492  0.2118 -0.5170
   59SAPC  H12B 4428   6.722   4.935  11.123  0.2116 -1.3522  0.7381
   59SAPC   C13 4429   6.388   4.918  11.092 -0.6428  0.2366  0.0775
   59SAPC  H13A 4430   6.368   4.814  11.075 -3.1985  0.7380 -0.3634
   59SAPC  H13B 4431   6.307   4.970  11.143  0.4711  1.4157  0.7056
   59SAPC  H13C 4432   6.392   4.971  10.998  0.3473  0.9692  0.5114
   59SAPC   C14 4433   6.543   4.893  11.288  0.2798 -0.5356 -0.2084
   59SAPC  H14A 4434   6.550   4.785  11.283 -1.9340 -0.7602  0.3692
   59SAPC  H14B 4435   6.628   4.926  11.345  1.5028 -2.2158 -0.9754
   59SAPC  H14C 4436   6.453   4.910  11.346 -0.9120 -0.1382 -2.0723
   59SAPC   C15 4437   6.523   5.100  11.179 -0.3769  0.5351  0.3659
   59SAPC  H15A 4438   6.529   5.153  11.085  3.4611 -0.7647 -0.3039
   59SAPC  H15B 4439   6.431   5.129  11.225 -0.2501 -1.2944  1.9001
   59SAPC  H15C 4440   6.603   5.139  11.241 -1.4254 -1.2801  3.0358
   59SAPC   C11 4441   6.644   4.969  10.931 -0.5357  0.2051  0.8929
   59SAPC  H11A 4442   6.549   4.958  10.874 -0.5864  1.7432  0.6266
   59SAPC  H11B 4443   6.704   4.903  10.864 -1.5265  2.1796 -2.1603
   59SAPC     P 4444   6.832   5.143  10.966 -0.3128  0.4001  0.6612
   59SAPC   O13 4445   6.830   5.265  11.047 -0.0130  0.1645 -0.1952
   59SAPC   O14 4446   6.892   5.019  11.027 -0.2280 -0.0700 -0.1473
   59SAPC   O12 4447   6.684   5.109  10.932  0.4679 -0.2262 -0.2213
   59SAPC   O11 4448   6.902   5.164  10.828 -0.4669  0.2672 -0.1136
   59SAPC    C1 4449   6.858   5.259  10.734  0.0122 -0.4371  0.3315
   59SAPC    HA 4450   6.760   5.302  10.765  0.2948  0.4900 -0.0336
   59SAPC    HB 4451   6.927   5.347  10.736 -0.5259 -0.0151  0.6635
   59SAPC    C2 4452   6.850   5.194  10.594 -0.4763 -0.3440  0.3210
   59SAPC    HS 4453   6.767   5.122  10.579 -0.0224 -0.4604 -1.9621
   59SAPC   O21 4454   6.978   5.132  10.571  0.1410  0.3264 -0.2689
   59SAPC   C21 4455   6.977   5.008  10.520  0.3150 -0.1128 -0.2387
   59SAPC   O22 4456   6.877   4.939  10.490  0.1216  0.1999 -0.2968
   59SAPC   C22 4457   7.121   4.964  10.524 -0.2037 -0.2184 -0.1224
   59SAPC   H2R 4458   7.186   5.053  10.514 -0.2024 -0.4788 -3.3927
   59SAPC   H2S 4459   7.127   4.917  10.625 -0.3694 -1.7803 -0.8087
   59SAPC    C3 4460   6.810   5.304  10.491 -0.3073 -0.6268 -0.4787
   59SAPC    HX 4461   6.909   5.353  10.480  0.2385 -1.5764  0.0252
   59SAPC    HY 4462   6.729   5.374  10.523  1.5616  1.2189  0.5138
   59SAPC   O31 4463   6.769   5.254  10.366  0.5953 -0.1461 -0.2859
   59SAPC   C31 4464   6.792   5.332  10.256 -0.1672  0.2497 -0.0074
   59SAPC   O32 4465   6.847   5.441  10.260 -0.6032  0.8603 -0.0965
   59SAPC   C32 4466   6.723   5.254  10.139 -0.5949 -0.5769 -0.7166
   59SAPC   H2X 4467   6.620   5.229  10.172 -0.6123  0.8398  0.3850
   59SAPC   H2Y 4468   6.787   5.166  10.116 -0.2396 -0.5339  0.0913
   59SAPC   C23 4469   7.153   4.858  10.415 -0.3124  0.0381 -0.1443
   59SAPC   H3R 4470   7.076   4.778  10.406  1.0134 -1.3001 -0.1151
   59SAPC   H3S 4471   7.240   4.797  10.449 -0.0938  1.1281  1.3503
   59SAPC   C24 4472   7.187   4.926  10.283  0.4129 -0.3845  0.4022
   59SAPC   H4R 4473   7.250   4.858  10.222  0.8819  0.9180 -0.6217
   59SAPC   H4S 4474   7.236   5.022  10.308  0.1345  0.5649 -2.3755
   59SAPC   C25 4475   7.070   4.959  10.202 -0.5887  0.1323 -0.1468
   59SAPC   H5R 4476   6.976   4.934  10.254 -0.4711 -1.6153 -0.7139
   59SAPC   C26 4477   7.068   5.048  10.103 -0.4486 -0.5088 -0.2458
   59SAPC   H6R 4478   6.979   5.047  10.039 -0.6341 -1.8065  0.0056
   59SAPC   C27 4479   7.182   5.122  10.040 -0.1932  0.1571  0.0486
   59SAPC   H7R 4480   7.203   5.079   9.939  1.8768 -0.1273  0.5552
   59SAPC   H7S 4481   7.277   5.093  10.091  0.1944  2.5770  0.8273
   59SAPC   C28 4482   7.164   5.270  10.034 -1.0548  0.3143 -0.2148
   59SAPC   H8R 4483   7.151   5.318  10.132  0.4712 -1.0608  0.7070
   59SAPC   C29 4484   7.158   5.350   9.920 -0.2564 -0.2452  0.1470
   59SAPC   H9R 4485   7.142   5.459   9.925  3.3091  0.4433 -0.8294
   59SAPC  C210 4486   7.167   5.308   9.773 -0.6195  0.3715  1.1129
   59SAPC  H10R 4487   7.099   5.370   9.711  0.9677  0.7007 -0.3599
   59SAPC  H10S 4488   7.128   5.204   9.773 -0.8081  0.4088  2.7059
   59SAPC  C211 4489   7.304   5.318   9.714  0.5302  0.3484  0.3157
   59SAPC  H11R 4490   7.381   5.346   9.788  2.3350 -0.7602 -1.0508
   59SAPC  C212 4491   7.338   5.300   9.581 -0.2837  0.1157 -0.4722
   59SAPC  H12R 4492   7.447   5.297   9.564  0.3468  0.4689  2.7685
   59SAPC  C213 4493   7.245   5.280   9.466 -0.7515  0.4990  0.5620
   59SAPC  H13R 4494   7.140   5.311   9.488 -1.2960 -1.0496  0.2691
   59SAPC  H13S 4495   7.241   5.172   9.441  1.3356  0.4676  0.2069
   59SAPC  C214 4496   7.291   5.362   9.340 -1.0674  0.0615 -0.5543
   59SAPC  H14R 4497   7.317   5.467   9.362  1.1251 -0.7117  0.9454
   59SAPC  C215 4498   7.298   5.317   9.211  0.0960  0.4498 -1.3151
   59SAPC  H15R 4499   7.326   5.386   9.130  3.3719  1.6149  0.6061
   59SAPC  C216 4500   7.249   5.176   9.180 -0.2430 -0.8129 -0.0482
   59SAPC  H16R 4501   7.148   5.164   9.226 -0.5909 -0.0938 -0.6039
   59SAPC  H16S 4502   7.325   5.105   9.221 -0.0582 -1.4276 -1.4010
   59SAPC  C217 4503   7.229   5.160   9.028 -0.6469  0.1059 -0.2736
   59SAPC  H17R 4504   7.172   5.250   8.998 -0.4669  0.4765  0.4954
   59SAPC  H17S 4505   7.175   5.064   9.014 -1.8541  0.3766  2.0393
   59SAPC  C218 4506   7.358   5.155   8.943 -0.9039 -0.3291 -0.6444
   59SAPC  H18R 4507   7.416   5.245   8.972  0.3837 -1.2021 -0.4394
   59SAPC  H18S 4508   7.329   5.157   8.835 -1.0052  0.9207 -0.6039
   59SAPC  C219 4509   7.453   5.042   8.975  0.1457  0.0082  0.1562
   59SAPC  H19R 4510   7.386   4.954   8.984  1.7874 -1.1582  1.7244
   59SAPC  H19S 4511   7.489   5.055   9.079  1.3990 -1.4268 -0.0601
   59SAPC  C220 4512   7.566   5.016   8.872  0.4552  0.2256 -0.1605
   59SAPC  H20R 4513   7.628   4.933   8.912 -0.9899 -0.3302  1.0207
   59SAPC  H20S 4514   7.635   5.102   8.855 -0.8709  1.4941  0.6336
   59SAPC  H20T 4515   7.516   4.980   8.780 -0.4255 -3.3176  1.5094
   59SAPC   C33 4516   6.709   5.350  10.019  0.8420 -0.0553 -0.1389
   59SAPC   H3X 4517   6.805   5.399   9.992  1.2896 -0.5177  0.5594
   59SAPC   H3Y 4518   6.637   5.430  10.047  0.2675  0.0958 -1.9236
   59SAPC   C34 4519   6.674   5.268   9.895 -0.5513  0.0127 -0.1178
   59SAPC   H4X 4520   6.573   5.223   9.903 -1.5640  2.2867  0.8630
   59SAPC   H4Y 4521   6.750   5.188   9.884 -1.7453 -1.4078  1.5159
   59SAPC   C35 4522   6.665   5.351   9.766 -0.6019 -0.8231 -0.3933
   59SAPC   H5X 4523   6.764   5.401   9.756 -1.7379  1.7150  0.2957
   59SAPC   H5Y 4524   6.597   5.436   9.781  1.1134  0.9970 -2.2473
   59SAPC   C36 4525   6.633   5.270   9.641  0.1862  0.2618 -0.3646
   59SAPC   H6X 4526   6.584   5.346   9.576  1.2809  0.0785 -1.4468
   59SAPC   H6Y 4527   6.568   5.185   9.670  0.5122  0.1892  0.1577
   59SAPC   C37 4528   6.754   5.194   9.581 -0.2172 -0.3820 -0.2091
   59SAPC   H7X 4529   6.797   5.113   9.643  1.6959  2.4601  2.5000
   59SAPC   H7Y 4530   6.840   5.264   9.587 -0.0072 -0.7631  1.8596
   59SAPC   C38 4531   6.741   5.155   9.431 -0.2977  0.5710 -0.6709
   59SAPC   H8X 4532   6.647   5.099   9.413  0.2909 -0.4148 -0.7636
   59SAPC   H8Y 4533   6.830   5.099   9.395 -1.3976 -1.2174 -0.7138
   59SAPC   C39 4534   6.722   5.282   9.340  0.2671 -0.2599 -0.2095
   59SAPC   H9X 4535   6.764   5.367   9.398 -1.4401  1.3255 -1.1824
   59SAPC   H9Y 4536   6.614   5.305   9.329  0.1738 -0.3888  0.4166
   59SAPC  C310 4537   6.788   5.277   9.205 -0.8471 -0.6586 -0.1593
   59SAPC  H10X 4538   6.896   5.293   9.223 -0.9874  3.2205 -1.7364
   59SAPC  H10Y 4539   6.761   5.355   9.131  0.6022 -0.2694 -0.2998
   59SAPC  C311 4540   6.785   5.147   9.131  0.0221 -0.0821  0.1524
   59SAPC  H11X 4541   6.804   5.060   9.197 -0.9852 -0.1530  0.3676
   59SAPC  H11Y 4542   6.867   5.150   9.056  0.0379 -0.8988  0.1241
   59SAPC  C312 4543   6.658   5.122   9.049 -0.6220  0.6860  0.1102
   59SAPC  H12X 4544   6.627   5.215   8.996 -2.8495  1.8653  3.1437
   59SAPC  H12Y 4545   6.576   5.097   9.120 -0.7313 -2.1638 -0.8949
   59SAPC  C313 4546   6.672   5.001   8.961 -0.0269 -0.3900 -0.1173
   59SAPC  H13X 4547   6.569   4.971   8.934 -0.5482  0.3954  0.9222
   59SAPC  H13Y 4548   6.733   4.918   9.005  0.5776  0.2132  0.2066
   59SAPC  C314 4549   6.747   5.025   8.836  0.6450  1.0793 -0.1194
   59SAPC  H14X 4550   6.849   4.986   8.854  0.5405  1.3243  1.0431
   59SAPC  H14Y 4551   6.759   5.135   8.826 -0.4072  1.2019 -0.1964
   59SAPC  C315 4552   6.685   4.961   8.711 -0.7656 -0.0012 -0.5579
   59SAPC  H15X 4553   6.596   5.020   8.679  0.4191  1.9506 -0.4135
   59SAPC  H15Y 4554   6.673   4.852   8.727  0.0156  0.0096  0.1383
   59SAPC  C316 4555   6.795   4.978   8.601 -0.6491 -0.4947 -0.4143
   59SAPC  H16X 4556   6.881   4.910   8.615  1.1697  1.8071  0.1069
   59SAPC  H16Y 4557   6.840   5.077   8.619  3.4276 -1.9260 -1.7304
   59SAPC  C317 4558   6.727   4.974   8.467 -0.6677 -0.5279 -0.2687
   59SAPC  H17X 4559   6.634   5.034   8.472 -0.1036  0.2766  1.1210
   59SAPC  H17Y 4560   6.688   4.874   8.437 -0.1341 -0.6586 -0.5402
   59SAPC  C318 4561   6.810   5.030   8.347  0.8128  0.0182 -0.1830
   59SAPC  H18X 4562   6.863   5.125   8.372 -0.4313  0.1703  2.1239
   59SAPC  H18Y 4563   6.752   5.032   8.252  0.3789 -0.8915  0.0567
   59SAPC  H18Z 4564   6.890   4.957   8.323  1.7404  0.3362  1.7230
   60SAPC     N 4565   0.960   4.202  10.677  0.3504 -0.2873 -0.7386
   60SAPC   C12 4566   1.078   4.162  10.765 -0.6354  0.5054 -0.3485
   60SAPC  H12A 4567   1.084   4.220  10.856 -1.6188 -1.5361  1.0969
   60SAPC  H12B 4568   1.169   4.185  10.712 -0.6275  0.8316 -0.1932
   60SAPC   C13 4569   0.838   4.205  10.755 -0.0401  0.4159  0.3890
   60SAPC  H13A 4570   0.751   4.232  10.696 -0.7729  1.4368  1.8624
   60SAPC  H13B 4571   0.819   4.110  10.803  0.8445  0.0794  0.0829
   60SAPC  H13C 4572   0.845   4.274  10.838  0.3597  0.3902  0.3739
   60SAPC   C14 4573   0.975   4.347  10.629  0.0569  0.4313 -0.3245
   60SAPC  H14A 4574   1.060   4.344  10.562  0.1149 -0.9107 -0.2285
   60SAPC  H14B 4575   0.894   4.388  10.572  1.4383 -0.1188 -2.8326
   60SAPC  H14C 4576   0.989   4.419  10.708  0.1835  1.8181 -1.5833
   60SAPC   C15 4577   0.938   4.116  10.556 -0.3468  0.5047 -0.7167
   60SAPC  H15A 4578   1.032   4.110  10.504 -0.1401 -0.5294 -0.2388
   60SAPC  H15B 4579   0.922   4.012  10.580  1.5699 -0.0903 -1.8458
   60SAPC  H15C 4580   0.859   4.155  10.494 -1.0796  1.4662  0.7365
   60SAPC   C11 4581   1.063   4.019  10.810 -0.3325  0.0797  0.2157
   60SAPC  H11A 4582   0.963   3.971  10.822 -1.7311  2.8912  0.6627
   60SAPC  H11B 4583   1.108   4.011  10.911  1.9642 -0.0870 -0.7615
   60SAPC     P 4584   1.226   3.823  10.763 -0.0105 -0.0848 -0.1629
   60SAPC   O13 4585   1.308   3.858  10.880 -0.2364 -0.3491  0.1979
   60SAPC   O14 4586   1.138   3.708  10.771 -0.3823  0.6896  0.4673
   60SAPC   O12 4587   1.143   3.947  10.722  0.1940  0.8762 -0.3373
   60SAPC   O11 4588   1.327   3.793  10.641 -0.3449 -0.4809  1.0104
   60SAPC    C1 4589   1.255   3.774  10.520 -0.9941  0.0907 -0.1383
   60SAPC    HA 4590   1.180   3.692  10.533  0.1401 -0.6121  2.9157
   60SAPC    HB 4591   1.205   3.867  10.487  1.3106  1.7640  0.8574
   60SAPC    C2 4592   1.353   3.728  10.415  0.0707 -0.0717 -0.1099
   60SAPC    HS 4593   1.422   3.644  10.442 -0.6999 -0.6885 -0.0306
   60SAPC   O21 4594   1.423   3.847  10.373  0.7038 -1.0209 -0.4206
   60SAPC   C21 4595   1.560   3.857  10.422  0.3974 -0.5748 -0.2420
   60SAPC   O22 4596   1.606   3.775  10.495  0.3433 -0.0373 -0.2287
   60SAPC   C22 4597   1.625   3.980  10.366 -0.7975 -0.1780  0.7126
   60SAPC   H2R 4598   1.553   4.034  10.301 -0.7662  0.3026  1.0692
   60SAPC   H2S 4599   1.638   4.054  10.448 -1.9580 -0.3740  1.0827
   60SAPC    C3 4600   1.286   3.668  10.285 -0.1079 -0.0900 -0.0120
   60SAPC    HX 4601   1.361   3.638  10.208  0.4148 -3.6115  1.6856
   60SAPC    HY 4602   1.215   3.741  10.241  0.1899 -0.6255 -1.4373
   60SAPC   O31 4603   1.232   3.539  10.322 -0.3101 -0.2178  0.5806
   60SAPC   C31 4604   1.100   3.523  10.319  0.3957  0.2003 -0.3465
   60SAPC   O32 4605   1.025   3.618  10.323  0.3144  0.5669  0.7392
   60SAPC   C32 4606   1.051   3.382  10.323  0.0977  0.6665 -0.6629
   60SAPC   H2X 4607   0.974   3.371  10.402  0.5314 -1.6135 -0.4721
   60SAPC   H2Y 4608   1.126   3.311  10.364 -0.6887  1.2794  2.0512
   60SAPC   C23 4609   1.756   3.943  10.295  0.0742  0.7288  0.2869
   60SAPC   H3R 4610   1.815   3.883  10.368  0.1729  1.2034  0.6026
   60SAPC   H3S 4611   1.824   4.027  10.270 -0.4059  1.4941  1.4482
   60SAPC   C24 4612   1.716   3.858  10.172 -0.4099  0.3062 -0.1546
   60SAPC   H4R 4613   1.657   3.911  10.094  2.3474  1.9046 -1.3385
   60SAPC   H4S 4614   1.645   3.776  10.190 -1.9510  2.0598  2.3741
   60SAPC   C25 4615   1.851   3.800  10.129 -0.2012  0.3768 -0.6739
   60SAPC   H5R 4616   1.882   3.714  10.190  1.1509  2.8330  2.3214
   60SAPC   C26 4617   1.920   3.833  10.018 -0.5814  0.0980 -0.4684
   60SAPC   H6R 4618   2.012   3.778   9.996  0.8986  2.4152 -0.4533
   60SAPC   C27 4619   1.893   3.935   9.914  0.5061 -0.5602 -0.3296
   60SAPC   H7R 4620   1.982   3.983   9.868  0.9922 -2.0949 -1.0439
   60SAPC   H7S 4621   1.845   4.025   9.959  2.8243  1.9483 -2.4847
   60SAPC   C28 4622   1.812   3.874   9.797 -0.3743 -0.2271 -0.2634
   60SAPC   H8R 4623   1.707   3.848   9.821 -0.4258  0.1531 -0.0718
   60SAPC   C29 4624   1.866   3.850   9.672  0.5178 -0.0307  0.0142
   60SAPC   H9R 4625   1.806   3.785   9.606  1.4130 -2.5261  1.5292
   60SAPC  C210 4626   2.004   3.877   9.625  0.3146 -0.1964  0.1572
   60SAPC  H10R 4627   2.036   3.794   9.559  1.8303  0.2705  0.2638
   60SAPC  H10S 4628   2.084   3.885   9.702  2.2257  2.0031 -1.8967
   60SAPC  C211 4629   2.006   4.007   9.543  0.7491 -0.2281 -0.0262
   60SAPC  H11R 4630   2.009   4.104   9.596  0.5565 -0.7393  0.9380
   60SAPC  C212 4631   1.987   4.024   9.412  0.0317  0.1583  0.1106
   60SAPC  H12R 4632   1.985   4.124   9.367 -1.6715 -0.2512 -0.8073
   60SAPC  C213 4633   1.970   3.907   9.316  0.7153 -0.9403  0.5235
   60SAPC  H13R 4634   2.041   3.824   9.333  0.8023 -1.2268 -1.1118
   60SAPC  H13S 4635   2.009   3.941   9.218  0.1040 -2.2665 -0.2107
   60SAPC  C214 4636   1.835   3.858   9.279  0.5120 -0.4511  0.0384
   60SAPC  H14R 4637   1.834   3.749   9.266  2.9564 -0.8442  2.4074
   60SAPC  C215 4638   1.726   3.932   9.251  0.3926 -0.0947 -0.1752
   60SAPC  H15R 4639   1.631   3.877   9.243  1.4457 -2.1775  0.8139
   60SAPC  C216 4640   1.712   4.078   9.257  0.0336 -0.5520  0.6554
   60SAPC  H16R 4641   1.807   4.131   9.234  0.4698 -2.2808 -1.9677
   60SAPC  H16S 4642   1.678   4.099   9.361 -2.2927 -1.4724  0.1393
   60SAPC  C217 4643   1.605   4.141   9.171 -0.0010  0.0470 -0.2596
   60SAPC  H17R 4644   1.596   4.248   9.200  0.5046  0.4092 -1.3596
   60SAPC  H17S 4645   1.509   4.098   9.206  0.2204  0.1900  0.5376
   60SAPC  C218 4646   1.629   4.131   9.021 -0.5553 -0.1480 -0.0075
   60SAPC  H18R 4647   1.666   4.027   9.009  0.6130 -0.0612  2.3769
   60SAPC  H18S 4648   1.704   4.211   9.003 -0.0749 -0.7662 -0.8382
   60SAPC  C219 4649   1.507   4.159   8.924  1.1080  0.7767 -0.2202
   60SAPC  H19R 4650   1.451   4.063   8.922  1.7882  0.3597 -1.7490
   60SAPC  H19S 4651   1.553   4.159   8.822 -2.3469 -1.4355 -1.9835
   60SAPC  C220 4652   1.417   4.281   8.943  0.7182  0.2528 -0.4143
   60SAPC  H20R 4653   1.339   4.283   8.863 -0.0525  2.7488  0.3032
   60SAPC  H20S 4654   1.485   4.368   8.931  2.8483 -1.5368 -2.2783
   60SAPC  H20T 4655   1.366   4.286   9.042  2.0589  0.3743  0.2944
   60SAPC   C33 4656   0.997   3.346  10.185 -0.7657  0.5699  0.3070
   60SAPC   H3X 4657   0.923   3.422  10.155 -1.7842 -1.1573 -1.8619
   60SAPC   H3Y 4658   0.933   3.256  10.201 -2.1223  1.3452 -0.5490
   60SAPC   C34 4659   1.102   3.294  10.087  0.5131 -0.2428 -0.4791
   60SAPC   H4X 4660   1.170   3.218  10.132  3.6052  0.8093 -2.9448
   60SAPC   H4Y 4661   1.173   3.375  10.059 -0.2895  0.0210 -1.8626
   60SAPC   C35 4662   1.058   3.226   9.961  0.6499 -0.0144  0.1813
   60SAPC   H5X 4663   1.006   3.307   9.906  0.6063  0.3623  0.7812
   60SAPC   H5Y 4664   0.975   3.158   9.987 -0.3047  1.6772  1.7448
   60SAPC   C36 4665   1.167   3.163   9.881  0.1191 -0.4877  0.6242
   60SAPC   H6X 4666   1.211   3.076   9.934 -0.7717 -1.4730 -0.2228
   60SAPC   H6Y 4667   1.242   3.240   9.851  1.1774 -0.9125  2.0555
   60SAPC   C37 4668   1.108   3.105   9.751 -0.2688 -0.4117 -0.5595
   60SAPC   H7X 4669   1.030   3.168   9.702  0.2165 -0.4942 -1.4695
   60SAPC   H7Y 4670   1.040   3.020   9.774 -0.8179  0.6967  2.2433
   60SAPC   C38 4671   1.227   3.057   9.668 -0.4859 -0.0089 -0.1225
   60SAPC   H8X 4672   1.287   2.977   9.717  0.5349  1.3159  0.8596
   60SAPC   H8Y 4673   1.309   3.131   9.676 -0.1322 -0.5536  2.2467
   60SAPC   C39 4674   1.199   3.025   9.525  0.4845 -0.2301  0.1513
   60SAPC   H9X 4675   1.164   3.125   9.492  0.5147 -0.2597  0.0309
   60SAPC   H9Y 4676   1.117   2.951   9.513  0.1154  0.0459  0.8980
   60SAPC  C310 4677   1.313   2.986   9.436  0.4990  0.2353  0.1213
   60SAPC  H10X 4678   1.344   2.884   9.466  0.6102  0.8331  2.2358
   60SAPC  H10Y 4679   1.393   3.059   9.464 -0.4789  1.4812 -0.2562
   60SAPC  C311 4680   1.289   2.992   9.285  0.5245 -0.2379  0.1949
   60SAPC  H11X 4681   1.276   3.096   9.248  1.6486 -1.3197 -3.6985
   60SAPC  H11Y 4682   1.201   2.928   9.265 -1.6018  2.8049 -1.0150
   60SAPC  C312 4683   1.408   2.936   9.197 -0.0463 -0.3870 -0.0977
   60SAPC  H12X 4684   1.440   2.834   9.227  0.8737 -0.0030  0.2732
   60SAPC  H12Y 4685   1.501   2.996   9.211  0.1555 -0.4247 -1.1769
   60SAPC  C313 4686   1.383   2.946   9.046  0.4800 -0.0936 -0.2095
   60SAPC  H13X 4687   1.384   3.052   9.013 -2.5133  0.9930  2.6604
   60SAPC  H13Y 4688   1.282   2.903   9.027 -0.0318  0.8674  0.2818
   60SAPC  C314 4689   1.482   2.862   8.982 -0.1160 -0.2189  0.0386
   60SAPC  H14X 4690   1.472   2.759   9.021  0.4757 -0.0369  0.6787
   60SAPC  H14Y 4691   1.588   2.890   8.998 -0.3664  0.9171 -0.1972
   60SAPC  C315 4692   1.448   2.851   8.838  0.2864  0.0077  0.0778
   60SAPC  H15X 4693   1.339   2.835   8.825 -0.1272  0.4608  2.5210
   60SAPC  H15Y 4694   1.500   2.768   8.786  1.5730  0.8672 -0.0614
   60SAPC  C316 4695   1.486   2.977   8.764 -0.0243 -0.5222  0.4063
   60SAPC  H16X 4696   1.475   3.065   8.831  0.5339 -2.8391  3.7932
   60SAPC  H16Y 4697   1.416   2.980   8.678  0.4002 -1.3307  0.0227
   60SAPC  C317 4698   1.629   2.973   8.709 -0.3646 -0.3663 -0.5148
   60SAPC  H17X 4699   1.631   2.879   8.650  1.4116  0.0500 -1.1901
   60SAPC  H17Y 4700   1.700   2.945   8.789 -1.6479 -1.5874  0.2530
   60SAPC  C318 4701   1.667   3.091   8.623 -0.4728  0.2971 -0.0730
   60SAPC  H18X 4702   1.679   3.180   8.688 -0.0540 -0.3612  0.7655
   60SAPC  H18Y 4703   1.592   3.104   8.541  1.4007 -1.6731 -2.2636
   60SAPC  H18Z 4704   1.754   3.073   8.557 -0.9948  0.1984 -0.7494
   61SAPC     N 4705   2.110   3.607  11.260 -0.1939  0.2892  0.5192
   61SAPC   C12 4706   2.143   3.664  11.121  0.4829 -0.1152  0.4106
   61SAPC  H12A 4707   2.234   3.618  11.087  0.9487 -0.4888  2.0726
   61SAPC  H12B 4708   2.153   3.770  11.135 -0.5936  0.1765 -0.8594
   61SAPC   C13 4709   2.125   3.460  11.264 -0.0432  0.6972 -0.1430
   61SAPC  H13A 4710   2.097   3.427  11.363 -0.1075  1.1423 -0.0064
   61SAPC  H13B 4711   2.056   3.426  11.189  0.2392  1.2583 -0.6693
   61SAPC  H13C 4712   2.225   3.424  11.245  0.2059  1.3782 -0.1490
   61SAPC   C14 4713   2.207   3.666  11.364  0.2930  0.8061  0.0135
   61SAPC  H14A 4714   2.303   3.617  11.363  0.9910  2.1071 -1.1995
   61SAPC  H14B 4715   2.237   3.768  11.345  1.1624  0.4867 -0.3797
   61SAPC  H14C 4716   2.162   3.672  11.461  1.5085  0.9145  0.5950
   61SAPC   C15 4717   1.975   3.660  11.301  0.6989  0.2735  0.0752
   61SAPC  H15A 4718   1.901   3.610  11.242 -0.4302  0.7390  1.0544
   61SAPC  H15B 4719   1.952   3.652  11.406  0.1455  0.3245 -0.0407
   61SAPC  H15C 4720   1.964   3.763  11.269  0.3721  0.3812  0.5245
   61SAPC   C11 4721   2.047   3.642  11.005 -0.1177  0.4997 -0.1778
   61SAPC  H11A 4722   2.021   3.535  11.001  0.6937  0.2704  0.4202
   61SAPC  H11B 4723   2.109   3.656  10.915  1.1820  2.3581  0.9283
   61SAPC     P 4724   1.928   3.863  10.955 -0.0768 -0.2147  0.2566
   61SAPC   O13 4725   1.795   3.928  10.984  0.3017  0.1180 -0.1031
   61SAPC   O14 4726   2.040   3.937  11.012  0.1796 -0.6033  0.3148
   61SAPC   O12 4727   1.926   3.715  11.006 -0.2290  0.2278  0.5036
   61SAPC   O11 4728   1.938   3.852  10.800  0.4717  0.3630  0.2683
   61SAPC    C1 4729   1.868   3.755  10.717  0.0072  0.1823  0.2055
   61SAPC    HA 4730   1.824   3.671  10.775 -1.0529  1.7422  1.7587
   61SAPC    HB 4731   1.780   3.804  10.670  1.1287 -0.0153 -2.2540
   61SAPC    C2 4732   1.965   3.699  10.612  0.2644 -0.5375 -0.2948
   61SAPC    HS 4733   2.043   3.656  10.678 -0.1459 -0.0019  0.5604
   61SAPC   O21 4734   2.010   3.803  10.523  0.0576  0.4637  0.2631
   61SAPC   C21 4735   2.130   3.791  10.479  0.3059  0.4803 -0.3311
   61SAPC   O22 4736   2.217   3.716  10.521 -0.0125  0.4189 -0.1383
   61SAPC   C22 4737   2.135   3.870  10.355 -0.2346 -0.5994  0.7203
   61SAPC   H2R 4738   2.111   3.805  10.268  0.5514  2.0228 -1.5923
   61SAPC   H2S 4739   2.067   3.957  10.353 -1.3924 -1.4712  0.6993
   61SAPC    C3 4740   1.902   3.580  10.526  0.3916 -0.3087 -0.2148
   61SAPC    HX 4741   1.807   3.626  10.493  1.6692  0.7115 -2.7609
   61SAPC    HY 4742   1.866   3.498  10.592  1.1725 -0.5138 -0.0225
   61SAPC   O31 4743   1.985   3.551  10.410 -0.1744  0.2971 -0.4265
   61SAPC   C31 4744   2.068   3.443  10.435 -0.6596 -0.3861 -1.3436
   61SAPC   O32 4745   2.085   3.388  10.543 -0.3516 -0.2945  0.0066
   61SAPC   C32 4746   2.134   3.402  10.314  0.3440 -0.9021  0.4770
   61SAPC   H2X 4747   2.227   3.348  10.343  0.5650 -0.6786  0.1919
   61SAPC   H2Y 4748   2.170   3.500  10.276 -1.9003  0.1932  1.0091
   61SAPC   C23 4749   2.278   3.911  10.320 -0.4250  0.6809  0.1375
   61SAPC   H3R 4750   2.319   3.817  10.278 -3.3901 -0.1416 -1.2293
   61SAPC   H3S 4751   2.338   3.935  10.410  0.4071  1.4967 -0.6106
   61SAPC   C24 4752   2.286   4.029  10.221 -1.0240  0.0557 -0.1163
   61SAPC   H4R 4753   2.239   4.121  10.261  2.4669  1.8751  0.1313
   61SAPC   H4S 4754   2.233   4.007  10.126 -0.1017  2.0062 -1.1346
   61SAPC   C25 4755   2.435   4.052  10.199  0.1059 -0.0253  0.3593
   61SAPC   H5R 4756   2.487   4.087  10.290  2.4251 -0.3354 -0.7664
   61SAPC   C26 4757   2.502   4.042  10.079  0.1813 -0.1794 -0.0924
   61SAPC   H6R 4758   2.612   4.051  10.083  0.4409 -2.2929 -1.0559
   61SAPC   C27 4759   2.432   4.023   9.943 -0.2643 -0.1243 -0.2536
   61SAPC   H7R 4760   2.505   4.041   9.861  0.8340  1.3506  0.9826
   61SAPC   H7S 4761   2.339   4.081   9.929  0.6767  0.9489 -2.6550
   61SAPC   C28 4762   2.368   3.883   9.931 -0.1998  0.7911  0.3921
   61SAPC   H8R 4763   2.299   3.846  10.008 -0.7780  1.3747  0.1689
   61SAPC   C29 4764   2.375   3.811   9.819  0.6000 -0.6503 -0.2982
   61SAPC   H9R 4765   2.322   3.715   9.827 -0.3951 -0.1784 -0.9656
   61SAPC  C210 4766   2.449   3.845   9.695  0.4572  0.0067 -0.0218
   61SAPC  H10R 4767   2.478   3.754   9.639  1.2445 -0.0581  0.4694
   61SAPC  H10S 4768   2.545   3.893   9.726 -0.6184  1.4409  1.2769
   61SAPC  C211 4769   2.373   3.951   9.612  0.1859  0.6513  0.1859
   61SAPC  H11R 4770   2.305   4.022   9.662 -1.3872 -0.4387 -0.3346
   61SAPC  C212 4771   2.378   3.957   9.475  0.4671 -0.5777  0.7706
   61SAPC  H12R 4772   2.317   4.032   9.422  1.2430 -1.1476 -0.9957
   61SAPC  C213 4773   2.465   3.876   9.384 -0.0714  0.2019 -0.3742
   61SAPC  H13R 4774   2.430   3.771   9.373  1.1860 -0.5602  2.1076
   61SAPC  H13S 4775   2.558   3.862   9.444 -0.6821 -2.6180  0.0641
   61SAPC  C214 4776   2.506   3.945   9.253  0.4974 -0.4189 -0.7682
   61SAPC  H14R 4777   2.613   3.969   9.242 -0.1005  2.2589 -1.1702
   61SAPC  C215 4778   2.421   3.978   9.154  0.1630 -0.0520 -0.0790
   61SAPC  H15R 4779   2.458   4.030   9.064 -1.5136  0.6542 -0.3911
   61SAPC  C216 4780   2.275   3.940   9.158  0.2840 -0.4324 -0.0380
   61SAPC  H16R 4781   2.219   4.003   9.230 -0.9060 -1.1038 -0.3451
   61SAPC  H16S 4782   2.254   3.833   9.178 -0.5802 -0.5322 -1.3368
   61SAPC  C217 4783   2.211   3.971   9.017 -0.2278 -0.3432 -0.0761
   61SAPC  H17R 4784   2.106   3.933   9.013 -0.6668  0.7790  0.4962
   61SAPC  H17S 4785   2.269   3.906   8.948  0.6570 -1.9560  2.0758
   61SAPC  C218 4786   2.209   4.121   8.977 -0.0565  0.0409 -0.1193
   61SAPC  H18R 4787   2.186   4.142   8.871 -1.6632  1.8217  0.5387
   61SAPC  H18S 4788   2.309   4.170   8.979  1.0271 -1.7072 -3.2846
   61SAPC  C219 4789   2.110   4.206   9.056  0.4173 -0.0770 -0.1444
   61SAPC  H19R 4790   2.145   4.214   9.162 -4.4375 -1.1954  1.8188
   61SAPC  H19S 4791   2.009   4.160   9.055  1.0278 -1.6189  1.9417
   61SAPC  C220 4792   2.093   4.349   9.007 -0.1230 -0.4437  0.2175
   61SAPC  H20R 4793   2.020   4.406   9.069  0.5982 -0.2432  0.8951
   61SAPC  H20S 4794   2.060   4.367   8.903  0.9023 -0.0841 -0.0483
   61SAPC  H20T 4795   2.189   4.404   9.015 -0.1322 -0.4891  0.6813
   61SAPC   C33 4796   2.045   3.331  10.202 -0.1039  0.0384 -0.7845
   61SAPC   H3X 4797   1.956   3.396  10.190 -0.0715  0.2796  0.1810
   61SAPC   H3Y 4798   2.017   3.229  10.236 -0.3426  0.1911 -0.5155
   61SAPC   C34 4799   2.118   3.302  10.072 -0.1349 -0.0817 -0.1929
   61SAPC   H4X 4800   2.048   3.268   9.993 -1.0870  1.6598 -0.1537
   61SAPC   H4Y 4801   2.188   3.217  10.087  2.2717  1.8792  0.1480
   61SAPC   C35 4802   2.213   3.414  10.015  0.5278  0.9924 -0.7091
   61SAPC   H5X 4803   2.270   3.356   9.939  0.1125 -0.6570  0.2009
   61SAPC   H5Y 4804   2.292   3.442  10.088  1.4602 -1.0065 -0.8914
   61SAPC   C36 4805   2.141   3.532   9.959  0.1423 -0.4234 -0.3389
   61SAPC   H6X 4806   2.202   3.625   9.962  0.1169 -0.3171 -2.0750
   61SAPC   H6Y 4807   2.059   3.559  10.030  0.2510 -0.0613 -0.3461
   61SAPC   C37 4808   2.078   3.517   9.825 -0.2535  0.0692  0.0934
   61SAPC   H7X 4809   1.999   3.592   9.805  0.4531  0.8059 -0.0304
   61SAPC   H7Y 4810   2.020   3.425   9.806 -0.3703  0.2504 -0.4516
   61SAPC   C38 4811   2.180   3.528   9.706 -0.2457 -0.1634  0.4457
   61SAPC   H8X 4812   2.264   3.456   9.706 -0.3751 -0.3453 -0.7256
   61SAPC   H8Y 4813   2.227   3.628   9.695  1.0513 -0.5437  2.1995
   61SAPC   C39 4814   2.122   3.491   9.561  0.5830 -0.2266 -0.1236
   61SAPC   H9X 4815   2.031   3.554   9.551  1.2879  0.5499 -2.0553
   61SAPC   H9Y 4816   2.100   3.384   9.543  2.1289 -0.8454  1.3968
   61SAPC  C310 4817   2.216   3.523   9.441 -0.2888  0.6383 -1.1638
   61SAPC  H10X 4818   2.303   3.456   9.454 -1.0959 -0.3551 -0.7941
   61SAPC  H10Y 4819   2.252   3.628   9.450  0.7245  0.4165 -2.3925
   61SAPC  C311 4820   2.139   3.505   9.312 -0.2667 -0.1612  0.3107
   61SAPC  H11X 4821   2.044   3.564   9.313  0.1555  0.6154 -1.8532
   61SAPC  H11Y 4822   2.124   3.397   9.290  0.8029  0.1172 -2.0771
   61SAPC  C312 4823   2.213   3.551   9.186  0.0589  0.3929  0.1334
   61SAPC  H12X 4824   2.321   3.554   9.214 -0.1391  0.0904  0.9734
   61SAPC  H12Y 4825   2.169   3.651   9.166 -1.9403 -0.4478  0.0929
   61SAPC  C313 4826   2.190   3.467   9.063  0.6213  0.5012  0.1573
   61SAPC  H13X 4827   2.226   3.364   9.085  1.6309  0.9053  0.4820
   61SAPC  H13Y 4828   2.253   3.496   8.976 -0.6288  2.4504 -0.1343
   61SAPC  C314 4829   2.052   3.471   8.997 -0.5708  0.5682  0.4771
   61SAPC  H14X 4830   1.974   3.482   9.075  0.5487 -1.0459  1.8781
   61SAPC  H14Y 4831   2.032   3.375   8.944 -0.1348  0.8200 -0.1520
   61SAPC  C315 4832   2.034   3.598   8.900  0.8167  0.5940  0.1763
   61SAPC  H15X 4833   2.105   3.581   8.816  2.5300  2.5874  1.1257
   61SAPC  H15Y 4834   2.056   3.694   8.951 -1.6350  1.8374 -0.9028
   61SAPC  C316 4835   1.891   3.606   8.842 -0.1086  0.0097 -0.1507
   61SAPC  H16X 4836   1.837   3.509   8.835 -0.8232  0.2048  1.9366
   61SAPC  H16Y 4837   1.889   3.642   8.737 -1.2579 -2.5207 -1.0725
   61SAPC  C317 4838   1.813   3.704   8.934 -0.1914 -0.5640  0.8283
   61SAPC  H17X 4839   1.881   3.791   8.945  0.4454 -0.8197 -0.8907
   61SAPC  H17Y 4840   1.806   3.648   9.030  3.0864 -3.0796 -0.1952
   61SAPC  C318 4841   1.672   3.753   8.884 -0.6523  0.4419 -0.1311
   61SAPC  H18X 4842   1.600   3.669   8.885 -1.0655  0.7894 -0.1447
   61SAPC  H18Y 4843   1.686   3.790   8.780  0.0396  2.6676  0.6966
   61SAPC  H18Z 4844   1.625   3.829   8.950 -0.9602  0.9397 -0.9000
   62SAPC     N 4845   0.755   1.071  10.798  0.7801 -0.6452  0.4369
   62SAPC   C12 4846   0.822   1.210  10.761  0.2230 -0.5141  0.1617
   62SAPC  H12A 4847   0.785   1.292  10.820 -2.2254  0.2060 -2.1954
   62SAPC  H12B 4848   0.787   1.247  10.666  0.1817 -0.7243  0.0922
   62SAPC   C13 4849   0.611   1.073  10.784 -0.3722 -0.8923  0.2860
   62SAPC  H13A 4850   0.590   0.967  10.786  3.2992 -1.7676  0.2212
   62SAPC  H13B 4851   0.554   1.121  10.863 -1.7344  0.8008 -1.6303
   62SAPC  H13C 4852   0.591   1.135  10.698  3.4089  1.1546  0.6445
   62SAPC   C14 4853   0.806   0.964  10.704  0.3089  1.0290 -0.1028
   62SAPC  H14A 4854   0.768   0.864  10.715 -0.6595  1.4928  1.0067
   62SAPC  H14B 4855   0.791   0.990  10.601  3.8394  0.1935 -0.9510
   62SAPC  H14C 4856   0.911   0.945  10.722 -0.0376 -1.0681 -0.1506
   62SAPC   C15 4857   0.777   1.039  10.942 -0.3834  0.5659  0.1220
   62SAPC  H15A 4858   0.883   1.053  10.961  0.0969 -0.4313 -1.5944
   62SAPC  H15B 4859   0.718   1.091  11.015 -0.9132 -2.5747  2.1111
   62SAPC  H15C 4860   0.757   0.934  10.956 -2.1517  0.6505 -1.4406
   62SAPC   C11 4861   0.979   1.212  10.744  0.2395  1.0962 -0.9998
   62SAPC  H11A 4862   0.987   1.323  10.736 -0.7821  1.5111  2.3379
   62SAPC  H11B 4863   1.006   1.164  10.647 -1.8225 -1.1863 -0.5333
   62SAPC     P 4864   1.142   1.044  10.854 -0.0611 -0.2267  0.1590
   62SAPC   O13 4865   1.274   1.101  10.848  0.3037  0.1882  0.7276
   62SAPC   O14 4866   1.107   0.966  10.977 -0.8098 -0.4814  0.9692
   62SAPC   O12 4867   1.053   1.169  10.853 -0.5031  0.5831 -0.4861
   62SAPC   O11 4868   1.109   0.964  10.723  0.1931 -0.4133  0.5325
   62SAPC    C1 4869   1.102   0.822  10.728  0.1596  0.3076  0.5219
   62SAPC    HA 4870   1.174   0.774  10.798 -0.7304  0.1921  1.3935
   62SAPC    HB 4871   1.004   0.789  10.771 -0.2627  0.3558 -0.3838
   62SAPC    C2 4872   1.113   0.766  10.581 -0.0548 -0.8311 -0.0923
   62SAPC    HS 4873   1.222   0.758  10.563 -0.2305 -3.0195 -0.4344
   62SAPC   O21 4874   1.033   0.838  10.482 -0.6218 -0.3703  0.2446
   62SAPC   C21 4875   1.095   0.930  10.434 -0.1429 -0.2257 -0.2222
   62SAPC   O22 4876   1.212   0.963  10.464 -0.3327  0.2975 -0.8577
   62SAPC   C22 4877   1.014   1.011  10.331  0.2870  0.1133  0.4762
   62SAPC   H2R 4878   0.978   0.940  10.254 -0.4452 -0.2137  1.1046
   62SAPC   H2S 4879   0.925   1.037  10.392  1.3894  1.9892  1.3946
   62SAPC    C3 4880   1.085   0.617  10.568 -0.0099 -0.0976  0.9406
   62SAPC    HX 4881   0.978   0.602  10.543  0.6147  0.3890 -2.6570
   62SAPC    HY 4882   1.096   0.560  10.662 -1.9628 -1.4044  0.4483
   62SAPC   O31 4883   1.163   0.564  10.455  0.3827 -0.8252  0.1816
   62SAPC   C31 4884   1.142   0.437  10.437  1.0140 -0.6864 -1.0374
   62SAPC   O32 4885   1.062   0.362  10.499  0.0053  0.0055  0.0916
   62SAPC   C32 4886   1.211   0.395  10.307  0.0140 -0.0369 -1.2434
   62SAPC   H2X 4887   1.318   0.424  10.310  0.6323 -2.2033 -0.7370
   62SAPC   H2Y 4888   1.155   0.450  10.228 -2.4213 -0.7440 -0.1179
   62SAPC   C23 4889   1.085   1.135  10.282 -0.4119  0.2823 -0.2279
   62SAPC   H3R 4890   1.147   1.180  10.363 -0.7227  0.1017  0.1069
   62SAPC   H3S 4891   1.010   1.211  10.252  0.1256  0.1648 -2.0215
   62SAPC   C24 4892   1.186   1.096  10.170 -0.1112 -0.0244 -0.3091
   62SAPC   H4R 4893   1.113   1.060  10.095  0.6251  1.3983 -1.7572
   62SAPC   H4S 4894   1.251   1.012  10.203 -0.7727  0.4296  2.4173
   62SAPC   C25 4895   1.262   1.220  10.129  0.7628  0.0016  0.0161
   62SAPC   H5R 4896   1.320   1.260  10.214  0.1075 -0.3977  0.6646
   62SAPC   C26 4897   1.252   1.297  10.018  0.1520  0.1902 -0.0860
   62SAPC   H6R 4898   1.320   1.383  10.007  2.7009 -1.8389 -1.2938
   62SAPC   C27 4899   1.173   1.280   9.899 -0.2252 -0.1884  0.4765
   62SAPC   H7R 4900   1.138   1.376   9.855  2.0110  0.1542 -0.6942
   62SAPC   H7S 4901   1.083   1.225   9.934  0.5151 -1.5469  0.3051
   62SAPC   C28 4902   1.254   1.189   9.809 -0.2465  0.0259  0.3458
   62SAPC   H8R 4903   1.266   1.086   9.845 -1.0421 -0.5163 -0.8880
   62SAPC   C29 4904   1.309   1.213   9.687 -0.0373  0.0955  0.5590
   62SAPC   H9R 4905   1.373   1.134   9.644 -0.6617 -1.0266  1.6260
   62SAPC  C210 4906   1.310   1.341   9.614  0.1570 -0.0747  0.6240
   62SAPC  H10R 4907   1.277   1.436   9.660  0.1727  1.5999 -2.5111
   62SAPC  H10S 4908   1.237   1.323   9.532  0.3790 -0.0709  0.4259
   62SAPC  C211 4909   1.441   1.358   9.547  0.0293 -1.3659  0.7049
   62SAPC  H11R 4910   1.522   1.375   9.620  0.7121 -0.9654 -0.1312
   62SAPC  C212 4911   1.467   1.340   9.416  0.3499  0.3909  0.0187
   62SAPC  H12R 4912   1.572   1.357   9.387  0.5000 -2.9033 -1.8528
   62SAPC  C213 4913   1.389   1.297   9.296 -0.0399  0.1933  0.9848
   62SAPC  H13R 4914   1.287   1.273   9.334  0.7142 -2.7159  1.4432
   62SAPC  H13S 4915   1.432   1.196   9.275  1.8696  1.1882 -0.2244
   62SAPC  C214 4916   1.402   1.384   9.171  0.4417  0.3902  0.3914
   62SAPC  H14R 4917   1.499   1.436   9.159 -0.0016  0.9612 -0.8251
   62SAPC  C215 4918   1.307   1.381   9.075  0.3320 -0.2463  0.6353
   62SAPC  H15R 4919   1.322   1.433   8.980 -1.9287 -0.0768  0.3174
   62SAPC  C216 4920   1.182   1.300   9.068  0.0275 -0.4050 -0.6737
   62SAPC  H16R 4921   1.098   1.348   9.122  0.5355  0.4752 -0.6319
   62SAPC  H16S 4922   1.197   1.194   9.095 -1.7904 -0.2509  1.1419
   62SAPC  C217 4923   1.140   1.298   8.920  0.2257  0.0348  0.4976
   62SAPC  H17R 4924   1.047   1.236   8.913  1.3297 -2.0485  2.8194
   62SAPC  H17S 4925   1.212   1.249   8.851 -2.0392 -0.5079 -1.6317
   62SAPC  C218 4926   1.097   1.436   8.862  0.1369 -0.1130  0.1975
   62SAPC  H18R 4927   1.175   1.514   8.854 -0.2526  0.1291 -1.7150
   62SAPC  H18S 4928   1.016   1.475   8.927 -1.7354 -2.7806 -0.3539
   62SAPC  C219 4929   1.037   1.429   8.721 -0.4631 -0.5449  0.1057
   62SAPC  H19R 4930   0.930   1.400   8.723 -0.7628  0.5414  2.1962
   62SAPC  H19S 4931   1.091   1.361   8.652  1.4356  2.0918 -1.1645
   62SAPC  C220 4932   1.057   1.560   8.647 -0.4166 -0.1875 -0.2809
   62SAPC  H20R 4933   1.165   1.586   8.640 -0.6640  0.6852 -0.9829
   62SAPC  H20S 4934   1.021   1.646   8.709  0.1023 -1.1552  1.4389
   62SAPC  H20T 4935   1.013   1.570   8.546  0.6414  0.8588 -0.6811
   62SAPC   C33 4936   1.200   0.244  10.285  0.4159  0.0834  0.1176
   62SAPC   H3X 4937   1.099   0.205  10.310  0.1062  1.0856  0.4872
   62SAPC   H3Y 4938   1.265   0.209  10.368 -1.7638  1.3657  2.4822
   62SAPC   C34 4939   1.251   0.198  10.152 -0.4958 -0.1473 -0.5502
   62SAPC   H4X 4940   1.246   0.087  10.151 -2.3527 -0.1143  0.4678
   62SAPC   H4Y 4941   1.358   0.225  10.145 -0.5883 -0.1729 -2.9050
   62SAPC   C35 4942   1.192   0.267  10.038  0.2504 -0.2618 -0.3643
   62SAPC   H5X 4943   1.208   0.377  10.033  0.9143 -0.1771  2.0334
   62SAPC   H5Y 4944   1.083   0.256  10.052  0.2059  1.4701  1.0596
   62SAPC   C36 4945   1.240   0.211   9.903 -0.4367  0.4966  0.2058
   62SAPC   H6X 4946   1.193   0.112   9.887 -0.0400  0.4233 -0.5354
   62SAPC   H6Y 4947   1.351   0.203   9.909 -0.1386  2.8674 -0.8786
   62SAPC   C37 4948   1.217   0.302   9.788  0.1531 -0.2838 -0.3293
   62SAPC   H7X 4949   1.251   0.405   9.809 -0.4633 -0.1425  0.0070
   62SAPC   H7Y 4950   1.106   0.313   9.783  0.1226 -0.1646  0.5329
   62SAPC   C38 4951   1.271   0.230   9.661  0.3730 -0.2630  0.0674
   62SAPC   H8X 4952   1.235   0.126   9.649 -1.8156  0.5599 -1.1586
   62SAPC   H8Y 4953   1.380   0.225   9.679  0.6054  0.8408 -0.9032
   62SAPC   C39 4954   1.232   0.297   9.527 -0.2743 -0.4883 -0.0279
   62SAPC   H9X 4955   1.294   0.389   9.525 -1.4460  0.3269 -0.0251
   62SAPC   H9Y 4956   1.123   0.308   9.510  0.0842 -1.2257 -3.5358
   62SAPC  C310 4957   1.268   0.204   9.406  0.4377  0.0432  0.4036
   62SAPC  H10X 4958   1.206   0.112   9.409 -0.3509  0.5501  0.0821
   62SAPC  H10Y 4959   1.374   0.172   9.402 -0.0410 -1.5875 -3.8699
   62SAPC  C311 4960   1.229   0.271   9.269 -0.1631  0.2896 -0.4149
   62SAPC  H11X 4961   1.124   0.309   9.271  0.2759  1.7252 -1.8542
   62SAPC  H11Y 4962   1.216   0.191   9.193  1.3244  0.8086 -1.2515
   62SAPC  C312 4963   1.338   0.371   9.226  0.2919 -0.0214  0.1730
   62SAPC  H12X 4964   1.432   0.329   9.184 -0.0801  0.0131 -0.7121
   62SAPC  H12Y 4965   1.368   0.431   9.314 -3.1515 -1.4984  2.5822
   62SAPC  C313 4966   1.287   0.478   9.121 -0.4635 -0.6553  0.5539
   62SAPC  H13X 4967   1.363   0.558   9.124 -0.5300 -0.5906  0.5106
   62SAPC  H13Y 4968   1.187   0.524   9.138 -1.0586 -1.4331 -0.6221
   62SAPC  C314 4969   1.305   0.430   8.969 -0.5102  0.1817 -0.3654
   62SAPC  H14X 4970   1.225   0.357   8.944 -2.9452  2.0275  1.4844
   62SAPC  H14Y 4971   1.404   0.382   8.967 -0.7170 -0.3027  0.3581
   62SAPC  C315 4972   1.310   0.538   8.858  0.1991 -0.0539 -0.1987
   62SAPC  H15X 4973   1.361   0.490   8.771 -1.3594  1.1301 -1.8421
   62SAPC  H15Y 4974   1.379   0.619   8.891 -1.4969  0.5366  2.2052
   62SAPC  C316 4975   1.171   0.598   8.817  0.2680  0.6060  0.5613
   62SAPC  H16X 4976   1.123   0.675   8.881 -1.5733  0.2444 -0.3265
   62SAPC  H16Y 4977   1.090   0.523   8.809 -0.1220  1.1510 -1.2333
   62SAPC  C317 4978   1.176   0.659   8.671 -0.2182 -0.2283 -0.3517
   62SAPC  H17X 4979   1.205   0.572   8.609  0.7059  0.2519 -0.6079
   62SAPC  H17Y 4980   1.249   0.742   8.672 -2.0502  1.4814  1.4469
   62SAPC  C318 4981   1.043   0.722   8.629  0.1841 -0.3571  0.3779
   62SAPC  H18X 4982   0.950   0.668   8.656 -0.4638 -0.6274 -2.1478
   62SAPC  H18Y 4983   1.059   0.742   8.521  0.2989 -1.1261  0.2486
   62SAPC  H18Z 4984   1.041   0.821   8.679  0.1804 -1.1162  1.9380
   63SAPC     N 4985   3.119   5.602   6.101  0.1695 -0.0555 -0.2384
   63SAPC   C12 4986   3.194   5.735   6.077 -0.0106  0.2846 -0.0192
   63SAPC  H12A 4987   3.123   5.806   6.038 -3.5111 -2.9360 -0.0945
   63SAPC  H12B 4988   3.273   5.724   6.004 -1.6505  1.2701 -2.0412
   63SAPC   C13 4989   3.017   5.618   6.215  0.2437  0.2128 -0.0309
   63SAPC  H13A 4990   2.962   5.526   6.233  0.0455  0.6650  1.8977
   63SAPC  H13B 4991   3.062   5.641   6.310 -0.2130 -0.2465  0.3055
   63SAPC  H13C 4992   2.945   5.695   6.192  0.0080 -0.0033 -0.0219
   63SAPC   C14 4993   3.031   5.587   5.978 -0.5184  0.0934  0.4447
   63SAPC  H14A 4994   2.954   5.662   5.968  0.7073  1.1959 -1.1745
   63SAPC  H14B 4995   3.090   5.579   5.888  1.1655 -1.1511  1.5875
   63SAPC  H14C 4996   2.971   5.498   5.990  0.1731 -0.2992  1.0936
   63SAPC   C15 4997   3.207   5.492   6.129  0.7554 -0.2798 -0.2261
   63SAPC  H15A 4998   3.287   5.528   6.193  0.6249 -1.7430  0.8097
   63SAPC  H15B 4999   3.158   5.414   6.185 -0.2204 -0.8222 -1.7707
   63SAPC  H15C 5000   3.240   5.449   6.036 -0.0661 -0.2980 -0.5179
   63SAPC   C11 5001   3.268   5.803   6.198  0.5667  0.0220 -0.3334
   63SAPC  H11A 5002   3.195   5.860   6.259 -1.3634 -0.8829 -1.6830
   63SAPC  H11B 5003   3.334   5.880   6.153  0.7091  1.3916  2.0518
   63SAPC     P 5004   3.419   5.749   6.415  0.3862  0.5627 -0.6890
   63SAPC   O13 5005   3.512   5.631   6.442 -0.3617 -0.1995  0.1403
   63SAPC   O14 5006   3.485   5.881   6.410 -0.5647  0.2982  0.2309
   63SAPC   O12 5007   3.348   5.713   6.281  0.0279 -0.5188  0.4431
   63SAPC   O11 5008   3.310   5.739   6.527  0.4073  0.2992 -0.1666
   63SAPC    C1 5009   3.194   5.823   6.513 -0.1327 -0.4022  0.1732
   63SAPC    HA 5010   3.224   5.919   6.466  2.2445 -1.0120  0.2995
   63SAPC    HB 5011   3.122   5.764   6.453 -0.8976  1.3398 -0.7002
   63SAPC    C2 5012   3.127   5.855   6.648  0.6698 -0.6092  0.0009
   63SAPC    HS 5013   3.054   5.937   6.628  0.4663 -1.2136 -1.9341
   63SAPC   O21 5014   3.223   5.886   6.755  0.4899  0.1018  0.7693
   63SAPC   C21 5015   3.276   6.002   6.749  0.2984 -0.0703  0.6736
   63SAPC   O22 5016   3.261   6.088   6.661  0.5443 -0.1660 -0.1726
   63SAPC   C22 5017   3.355   6.031   6.877  0.2981 -0.6531 -0.0447
   63SAPC   H2R 5018   3.380   5.933   6.924  0.1282 -0.5595  0.2433
   63SAPC   H2S 5019   3.450   6.079   6.846  1.7402 -0.5981  3.9370
   63SAPC    C3 5020   3.034   5.738   6.690  0.1619 -0.2150 -0.6700
   63SAPC    HX 5021   3.081   5.640   6.666  2.0521  0.8044 -1.3871
   63SAPC    HY 5022   2.954   5.764   6.617 -0.3142  1.7065  0.4776
   63SAPC   O31 5023   2.989   5.755   6.827  0.6808  0.1074  0.4745
   63SAPC   C31 5024   2.885   5.681   6.863  0.0923  0.6635 -0.6281
   63SAPC   O32 5025   2.815   5.618   6.782 -0.0545 -0.0262 -0.2117
   63SAPC   C32 5026   2.880   5.654   7.018 -0.3211 -0.4021 -0.3549
   63SAPC   H2X 5027   2.872   5.753   7.066  1.0551 -1.3071  1.8925
   63SAPC   H2Y 5028   2.980   5.614   7.044  0.6939  1.6594 -0.9450
   63SAPC   C23 5029   3.280   6.116   6.980 -0.0700 -0.4804  0.6130
   63SAPC   H3R 5030   3.278   6.218   6.937  1.2308 -0.7229 -0.0812
   63SAPC   H3S 5031   3.350   6.129   7.065  1.4467 -0.6329 -0.5510
   63SAPC   C24 5032   3.145   6.051   7.026 -0.2209 -0.0562  0.0873
   63SAPC   H4R 5033   3.076   6.062   6.940 -1.5599  1.4877  1.2887
   63SAPC   H4S 5034   3.103   6.114   7.107  0.5824  0.8466 -0.1818
   63SAPC   C25 5035   3.163   5.909   7.082 -0.4937 -0.2017  0.0815
   63SAPC   H5R 5036   3.109   5.831   7.025  0.6973  0.0296 -1.4320
   63SAPC   C26 5037   3.229   5.880   7.199  0.0960  0.1928  0.1309
   63SAPC   H6R 5038   3.245   5.772   7.215  1.5077  0.1612 -1.2228
   63SAPC   C27 5039   3.295   5.980   7.282  0.0250 -0.5157 -0.0434
   63SAPC   H7R 5040   3.272   5.964   7.390 -0.6767  2.0855  0.2564
   63SAPC   H7S 5041   3.269   6.087   7.270  0.0625 -0.3373  1.2642
   63SAPC   C28 5042   3.447   5.968   7.267  0.5410  0.2130  0.1255
   63SAPC   H8R 5043   3.493   6.041   7.198  0.0433  0.6051  0.2090
   63SAPC   C29 5044   3.538   5.886   7.333 -0.1759  0.3174  0.2159
   63SAPC   H9R 5045   3.645   5.876   7.311  0.1558 -0.8338  2.0911
   63SAPC  C210 5046   3.492   5.795   7.439  0.0465 -0.0300 -0.4546
   63SAPC  H10R 5047   3.413   5.836   7.506  0.5646  0.4320 -0.1300
   63SAPC  H10S 5048   3.578   5.773   7.505 -0.3928 -1.2996 -0.2671
   63SAPC  C211 5049   3.467   5.655   7.384 -0.6410 -0.4677 -0.0983
   63SAPC  H11R 5050   3.551   5.627   7.318  0.0229  0.1029  0.4814
   63SAPC  C212 5051   3.355   5.580   7.396  0.6071  0.8313 -0.0422
   63SAPC  H12R 5052   3.360   5.474   7.365  0.4006  0.4662  1.1329
   63SAPC  C213 5053   3.236   5.621   7.481 -1.2103 -0.0009  0.4164
   63SAPC  H13R 5054   3.186   5.706   7.429  0.2930  1.0169  0.5791
   63SAPC  H13S 5055   3.264   5.673   7.575 -0.9500  0.8695 -0.1276
   63SAPC  C214 5056   3.138   5.510   7.509 -0.7098  0.0824 -0.4266
   63SAPC  H14R 5057   3.079   5.472   7.425 -0.3025 -1.6830  0.0434
   63SAPC  C215 5058   3.115   5.462   7.630  0.1993  0.0995 -0.7676
   63SAPC  H15R 5059   3.027   5.396   7.642 -0.1216  0.3829 -1.5285
   63SAPC  C216 5060   3.188   5.499   7.756  0.2156 -0.0212 -0.5616
   63SAPC  H16R 5061   3.289   5.546   7.746  0.9931 -1.4153  0.3666
   63SAPC  H16S 5062   3.209   5.408   7.816 -0.1679 -0.6638 -1.3832
   63SAPC  C217 5063   3.102   5.602   7.849 -0.3982  0.2269  0.3529
   63SAPC  H17R 5064   2.995   5.573   7.857 -0.4190  0.4088  0.7570
   63SAPC  H17S 5065   3.097   5.706   7.810 -2.9167  1.0974  2.6792
   63SAPC  C218 5066   3.159   5.615   7.993  0.0480 -0.1282 -0.3541
   63SAPC  H18R 5067   3.260   5.657   7.973 -0.1543  0.5132 -0.0545
   63SAPC  H18S 5068   3.158   5.519   8.048 -2.7237 -1.3248 -2.2557
   63SAPC  C219 5069   3.087   5.712   8.080  0.2550  0.2406  0.2270
   63SAPC  H19R 5070   2.978   5.691   8.074  0.3980 -0.6183  0.4611
   63SAPC  H19S 5071   3.108   5.811   8.035  1.0749  0.3688  0.8697
   63SAPC  C220 5072   3.120   5.701   8.227 -0.0076  0.4104 -0.5372
   63SAPC  H20R 5073   3.087   5.605   8.272  4.8008 -1.3462 -0.1601
   63SAPC  H20S 5074   3.078   5.787   8.284  1.3421  0.4235  0.4927
   63SAPC  H20T 5075   3.231   5.700   8.238  0.0585  1.7153 -0.9308
   63SAPC   C33 5076   2.775   5.558   7.088 -0.3071  0.0830  0.5595
   63SAPC   H3X 5077   2.773   5.458   7.039 -1.6981  0.7026 -0.7261
   63SAPC   H3Y 5078   2.674   5.595   7.061 -0.3238 -1.3387 -1.6296
   63SAPC   C34 5079   2.802   5.557   7.239  0.0043 -0.1828  0.2931
   63SAPC   H4X 5080   2.802   5.662   7.274  1.2157 -0.3748  0.9162
   63SAPC   H4Y 5081   2.898   5.507   7.266 -1.2004 -2.3429  0.8599
   63SAPC   C35 5082   2.683   5.494   7.313 -0.3822 -0.5653 -0.0198
   63SAPC   H5X 5083   2.726   5.438   7.399 -2.0540 -0.7521  0.7343
   63SAPC   H5Y 5084   2.632   5.415   7.252 -1.4276 -0.5495  0.8060
   63SAPC   C36 5085   2.583   5.600   7.360 -0.1561  0.4711  0.4430
   63SAPC   H6X 5086   2.559   5.662   7.271  0.9181  0.7468  0.3302
   63SAPC   H6Y 5087   2.628   5.669   7.435 -0.1691  1.6835 -0.6166
   63SAPC   C37 5088   2.463   5.539   7.431  0.7033 -0.3279 -0.2131
   63SAPC   H7X 5089   2.432   5.470   7.350  1.3771 -1.3360  0.3602
   63SAPC   H7Y 5090   2.392   5.624   7.439  1.2303  0.1893 -0.9219
   63SAPC   C38 5091   2.498   5.468   7.567 -0.3747 -0.3492  0.7449
   63SAPC   H8X 5092   2.599   5.423   7.560 -1.0694 -2.1644  1.6124
   63SAPC   H8Y 5093   2.438   5.374   7.572  1.6762 -1.6557  2.9642
   63SAPC   C39 5094   2.462   5.542   7.698 -0.4985 -0.3502 -0.8445
   63SAPC   H9X 5095   2.500   5.481   7.783  1.2382 -1.5576 -2.4305
   63SAPC   H9Y 5096   2.352   5.553   7.683 -0.5844  0.0354  0.0207
   63SAPC  C310 5097   2.529   5.680   7.716 -0.2128 -0.0523 -0.0395
   63SAPC  H10X 5098   2.485   5.749   7.641 -0.4936  0.7419  0.8320
   63SAPC  H10Y 5099   2.633   5.655   7.686  0.1942  0.0815  1.1960
   63SAPC  C311 5100   2.516   5.731   7.860  0.5016 -0.1087 -0.4131
   63SAPC  H11X 5101   2.414   5.716   7.901 -0.1609  0.4115 -1.8120
   63SAPC  H11Y 5102   2.538   5.839   7.848 -2.0790  0.4680 -0.6416
   63SAPC  C312 5103   2.628   5.672   7.953  0.6081 -0.0106 -0.4634
   63SAPC  H12X 5104   2.722   5.663   7.894 -0.8164 -0.2267 -2.8758
   63SAPC  H12Y 5105   2.588   5.581   8.003 -1.2321  2.2390  2.5161
   63SAPC  C313 5106   2.647   5.766   8.088 -0.4964 -0.3715  0.7709
   63SAPC  H13X 5107   2.712   5.853   8.061 -0.1934 -0.3061  1.6792
   63SAPC  H13Y 5108   2.705   5.708   8.163  0.6184  2.0021  1.8536
   63SAPC  C314 5109   2.520   5.815   8.150 -0.0391 -0.3190  0.2007
   63SAPC  H14X 5110   2.477   5.874   8.066 -0.6950 -2.1675 -0.8261
   63SAPC  H14Y 5111   2.545   5.891   8.227 -1.8356 -0.5813  1.0836
   63SAPC  C315 5112   2.422   5.704   8.198 -0.2715  0.1051  0.0335
   63SAPC  H15X 5113   2.402   5.632   8.116 -0.6380  1.0647 -0.7540
   63SAPC  H15Y 5114   2.329   5.754   8.232  0.9280  2.0282  0.6439
   63SAPC  C316 5115   2.481   5.637   8.320  0.0348  0.2138  0.2256
   63SAPC  H16X 5116   2.586   5.602   8.307  0.0868  0.4759 -0.0741
   63SAPC  H16Y 5117   2.423   5.547   8.347  0.5066  0.2290  1.3379
   63SAPC  C317 5118   2.482   5.718   8.454  0.0327  0.6163 -0.2631
   63SAPC  H17X 5119   2.382   5.763   8.476 -0.3545 -0.7898  0.9884
   63SAPC  H17Y 5120   2.547   5.808   8.448 -1.1625  1.5229 -0.1659
   63SAPC  C318 5121   2.526   5.629   8.576 -0.0060  0.0660 -0.0156
   63SAPC  H18X 5122   2.544   5.682   8.672  1.0339 -0.1852 -0.0652
   63SAPC  H18Y 5123   2.618   5.573   8.548  0.0420 -0.2664  0.7721
   63SAPC  H18Z 5124   2.445   5.556   8.598 -2.3334  2.0940 -1.3567
   64SAPC     N 5125   5.547   5.202   6.266  0.1798  0.1884  1.1526
   64SAPC   C12 5126   5.683   5.143   6.241 -0.4568  0.4924  0.6573
   64SAPC  H12A 5127   5.754   5.220   6.266 -0.6804  0.9161 -0.0035
   64SAPC  H12B 5128   5.697   5.127   6.135 -2.8294 -2.3440  0.6443
   64SAPC   C13 5129   5.433   5.122   6.213  0.0161  0.5368  0.1637
   64SAPC  H13A 5130   5.450   5.089   6.111  0.9101 -0.7811  0.7075
   64SAPC  H13B 5131   5.419   5.028   6.265 -0.1597 -0.0309 -0.8774
   64SAPC  H13C 5132   5.335   5.167   6.205 -0.7006 -0.4332  2.5297
   64SAPC   C14 5133   5.517   5.244   6.412  0.4399 -0.5374  0.1399
   64SAPC  H14A 5134   5.587   5.320   6.444  0.4331 -0.1431 -0.7531
   64SAPC  H14B 5135   5.414   5.273   6.421  1.1057  2.2566 -0.3440
   64SAPC  H14C 5136   5.539   5.156   6.470  1.9820  0.6209  1.4010
   64SAPC   C15 5137   5.527   5.331   6.192  0.9401  0.3756 -0.1508
   64SAPC  H15A 5138   5.535   5.313   6.086  1.3408 -0.7797  0.0608
   64SAPC  H15B 5139   5.426   5.363   6.214  0.4658  1.0109 -2.9334
   64SAPC  H15C 5140   5.596   5.409   6.220  2.1253 -0.4032 -0.8116
   64SAPC   C11 5141   5.714   5.008   6.308 -0.1923  0.1475 -0.2559
   64SAPC  H11A 5142   5.722   5.032   6.416 -1.6929  0.4051 -0.1913
   64SAPC  H11B 5143   5.810   4.975   6.262 -1.6943 -0.3377 -3.2825
   64SAPC     P 5144   5.640   4.775   6.210 -0.2034  0.3553  0.2834
   64SAPC   O13 5145   5.531   4.755   6.113  0.0907 -0.1374  0.4292
   64SAPC   O14 5146   5.781   4.764   6.159 -0.4736  0.2404 -0.1259
   64SAPC   O12 5147   5.613   4.915   6.274  0.0826  0.0887  0.3489
   64SAPC   O11 5148   5.614   4.693   6.341  0.3433 -0.5900  0.1274
   64SAPC    C1 5149   5.633   4.556   6.327  0.0462 -0.1190 -0.3457
   64SAPC    HA 5150   5.541   4.506   6.290 -0.1900  0.1843 -0.1728
   64SAPC    HB 5151   5.710   4.523   6.254  0.0029 -0.5129 -0.2194
   64SAPC    C2 5152   5.671   4.485   6.462 -0.1017  1.0353  0.3322
   64SAPC    HS 5153   5.583   4.487   6.529 -0.5915  0.2194 -0.2616
   64SAPC   O21 5154   5.792   4.541   6.520 -0.7667  0.2540 -0.7669
   64SAPC   C21 5155   5.772   4.655   6.587  0.3774  0.5477  0.8503
   64SAPC   O22 5156   5.670   4.715   6.598 -0.3879 -0.2615  0.2707
   64SAPC   C22 5157   5.906   4.706   6.650  1.0866 -0.6405 -0.0267
   64SAPC   H2R 5158   5.881   4.709   6.758  0.9973  0.4075 -0.0651
   64SAPC   H2S 5159   5.977   4.621   6.647  0.6534 -1.1239  1.9259
   64SAPC    C3 5160   5.698   4.331   6.440  0.5514 -0.4969  0.6328
   64SAPC    HX 5161   5.804   4.327   6.409  0.7289  1.1981  0.8956
   64SAPC    HY 5162   5.639   4.293   6.354  0.4865 -3.4193  1.8534
   64SAPC   O31 5163   5.689   4.246   6.560 -0.3087 -0.1517  0.1030
   64SAPC   C31 5164   5.570   4.218   6.611 -0.0547 -0.0549  0.4433
   64SAPC   O32 5165   5.464   4.265   6.569 -0.4283  0.0326  0.4472
   64SAPC   C32 5166   5.581   4.103   6.710  0.8104 -1.0090 -0.0589
   64SAPC   H2X 5167   5.659   4.139   6.780  1.2191  2.2707 -2.0326
   64SAPC   H2Y 5168   5.619   4.010   6.663  0.2998 -0.3720 -1.8040
   64SAPC   C23 5169   5.967   4.840   6.597  0.8633  0.0816  0.0626
   64SAPC   H3R 5170   5.881   4.909   6.580  0.9355  0.7360  2.0937
   64SAPC   H3S 5171   6.018   4.830   6.499 -2.1090  3.4899 -2.0650
   64SAPC   C24 5172   6.075   4.905   6.687 -0.8960 -0.6712  0.4142
   64SAPC   H4R 5173   6.121   4.993   6.637 -0.6664 -0.8609  0.2919
   64SAPC   H4S 5174   6.160   4.834   6.682 -0.5847 -0.2370 -1.6432
   64SAPC   C25 5175   6.026   4.937   6.824 -0.4813  0.1177 -0.1829
   64SAPC   H5R 5176   5.930   4.987   6.842 -0.4251  0.5374 -1.0375
   64SAPC   C26 5177   6.094   4.908   6.936 -0.0811  0.5315  0.1253
   64SAPC   H6R 5178   6.048   4.921   7.035  0.8897 -1.3714  0.8902
   64SAPC   C27 5179   6.229   4.848   6.948  0.9480 -0.5228 -0.1138
   64SAPC   H7R 5180   6.273   4.913   7.026 -2.2331  0.5676  0.9246
   64SAPC   H7S 5181   6.291   4.882   6.862  0.1852  1.0147 -0.0779
   64SAPC   C28 5182   6.231   4.703   6.961 -0.3058  0.4576 -0.0749
   64SAPC   H8R 5183   6.168   4.649   6.889  0.8922 -0.7509 -0.2465
   64SAPC   C29 5184   6.303   4.629   7.041  0.2090 -0.0189 -0.3733
   64SAPC   H9R 5185   6.284   4.521   7.038  0.9033 -0.3710  3.3166
   64SAPC  C210 5186   6.407   4.660   7.142  0.3992  0.1328  0.4386
   64SAPC  H10R 5187   6.460   4.738   7.083  1.6502 -1.3483 -0.4653
   64SAPC  H10S 5188   6.480   4.577   7.150  0.3987 -0.0602 -1.2066
   64SAPC  C211 5189   6.355   4.715   7.270  0.5317 -0.1560 -0.0270
   64SAPC  H11R 5190   6.268   4.781   7.266  2.8100  3.1255  0.5195
   64SAPC  C212 5191   6.399   4.661   7.386  0.0971 -0.3888 -0.2720
   64SAPC  H12R 5192   6.359   4.708   7.477 -1.4487  0.9382 -1.5730
   64SAPC  C213 5193   6.501   4.551   7.399  0.1401  0.1182  0.6444
   64SAPC  H13R 5194   6.604   4.589   7.381 -0.4289  1.3155 -0.1811
   64SAPC  H13S 5195   6.478   4.474   7.323 -1.3806  1.7188 -0.5781
   64SAPC  C214 5196   6.502   4.488   7.539  0.8164  0.3386  0.1231
   64SAPC  H14R 5197   6.447   4.539   7.619  2.1977  2.0781  0.0168
   64SAPC  C215 5198   6.569   4.378   7.572  0.4132  0.2712 -0.2447
   64SAPC  H15R 5199   6.550   4.324   7.666  1.1678 -0.5726 -0.5549
   64SAPC  C216 5200   6.663   4.310   7.480 -0.5271 -0.5347  0.0804
   64SAPC  H16R 5201   6.762   4.321   7.531 -1.0945 -1.1799  1.3792
   64SAPC  H16S 5202   6.666   4.345   7.375  0.6376 -0.1136  0.2338
   64SAPC  C217 5203   6.636   4.161   7.466  0.4066 -0.2203 -0.4873
   64SAPC  H17R 5204   6.538   4.155   7.415  0.9121  0.7830 -1.6228
   64SAPC  H17S 5205   6.627   4.117   7.567 -0.4963 -1.4369 -1.0766
   64SAPC  C218 5206   6.747   4.093   7.389 -0.0424  0.1597 -0.5104
   64SAPC  H18R 5207   6.846   4.093   7.441  1.3501 -2.0765 -2.8711
   64SAPC  H18S 5208   6.768   4.157   7.301 -3.1291  1.6128 -0.3193
   64SAPC  C219 5209   6.735   3.941   7.364  0.2117  0.3574  0.3226
   64SAPC  H19R 5210   6.648   3.923   7.297  0.2548 -2.0559  0.8188
   64SAPC  H19S 5211   6.729   3.884   7.459  0.0892  0.7238  0.5368
   64SAPC  C220 5212   6.863   3.891   7.290  0.0169  0.4243 -0.4306
   64SAPC  H20R 5213   6.859   3.780   7.282 -3.3777  0.5073 -1.8180
   64SAPC  H20S 5214   6.952   3.916   7.351  0.1565  0.7398 -0.7654
   64SAPC  H20T 5215   6.865   3.943   7.192  0.8010  0.5436 -0.3561
   64SAPC   C33 5216   5.458   4.069   6.788  0.3781  0.5981 -0.0069
   64SAPC   H3X 5217   5.391   3.998   6.736 -0.5389  1.5865 -0.2123
   64SAPC   H3Y 5218   5.399   4.162   6.804  1.0618  1.5325 -2.4567
   64SAPC   C34 5219   5.497   4.015   6.929  0.1436 -0.1415  0.5683
   64SAPC   H4X 5220   5.557   4.095   6.977  1.0672  1.7044 -3.2297
   64SAPC   H4Y 5221   5.565   3.928   6.925  1.5947  0.9876 -1.8069
   64SAPC   C35 5222   5.367   3.983   7.014 -0.7560  0.1070  0.9111
   64SAPC   H5X 5223   5.291   4.062   6.999  0.1673  0.7263 -0.8505
   64SAPC   H5Y 5224   5.392   3.977   7.122  0.0258 -2.7280  0.6664
   64SAPC   C36 5225   5.303   3.844   6.990  0.1114 -0.2786  0.6525
   64SAPC   H6X 5226   5.377   3.762   7.004  1.0207  0.7265  1.9261
   64SAPC   H6Y 5227   5.268   3.843   6.884  2.7780  0.0141 -0.3157
   64SAPC   C37 5228   5.184   3.816   7.085 -0.1196  0.4245 -0.1905
   64SAPC   H7X 5229   5.087   3.843   7.039 -0.4073  0.4560  0.4251
   64SAPC   H7Y 5230   5.189   3.878   7.177 -2.2879 -0.6486  0.7331
   64SAPC   C38 5231   5.172   3.667   7.116  0.1388  0.1158  0.6935
   64SAPC   H8X 5232   5.268   3.625   7.151 -0.2240 -0.6638  0.7765
   64SAPC   H8Y 5233   5.156   3.605   7.026  1.4042  2.4379 -1.2410
   64SAPC   C39 5234   5.077   3.641   7.237 -0.2772  0.2209  0.3787
   64SAPC   H9X 5235   4.981   3.690   7.209 -0.4677 -1.7409 -2.9462
   64SAPC   H9Y 5236   5.132   3.677   7.327 -1.1655  0.2726  0.9133
   64SAPC  C310 5237   5.056   3.494   7.260  0.3341  0.3800  0.4527
   64SAPC  H10X 5238   5.158   3.465   7.293 -0.2234  0.4849  2.3881
   64SAPC  H10Y 5239   5.031   3.438   7.167 -0.2266  1.1049  0.1555
   64SAPC  C311 5240   4.952   3.458   7.369  0.8253 -0.6690 -0.2725
   64SAPC  H11X 5241   4.930   3.349   7.368 -0.0229 -0.5051 -0.4226
   64SAPC  H11Y 5242   4.858   3.507   7.335  2.3596  2.0615 -0.8499
   64SAPC  C312 5243   4.994   3.491   7.516  0.0465 -0.0263 -0.2398
   64SAPC  H12X 5244   4.904   3.491   7.581  0.8838  0.2484  0.9546
   64SAPC  H12Y 5245   5.033   3.595   7.516 -0.1714  0.0566  0.4455
   64SAPC  C313 5246   5.097   3.396   7.580  0.3411  0.4364  0.4425
   64SAPC  H13X 5247   5.190   3.376   7.523  0.1549 -1.4886  0.7439
   64SAPC  H13Y 5248   5.055   3.293   7.580 -0.6453  0.7610 -2.3491
   64SAPC  C314 5249   5.119   3.441   7.729  0.8716  0.5027  0.6561
   64SAPC  H14X 5250   5.150   3.547   7.720 -0.7090  0.8464 -2.0331
   64SAPC  H14Y 5251   5.199   3.378   7.773  0.1351 -0.1143  1.1221
   64SAPC  C315 5252   4.997   3.425   7.823 -0.9141  0.6061  0.3300
   64SAPC  H15X 5253   4.947   3.333   7.786  1.3372 -0.8157  0.6171
   64SAPC  H15Y 5254   4.939   3.516   7.798 -0.8328  0.2623 -1.1588
   64SAPC  C316 5255   5.036   3.427   7.970  0.0772  0.0819 -0.4213
   64SAPC  H16X 5256   5.082   3.526   7.989 -0.9252  0.8814 -1.9962
   64SAPC  H16Y 5257   5.103   3.343   7.999  0.2114  0.6331  0.9789
   64SAPC  C317 5258   4.908   3.421   8.055 -0.4634  0.0393  0.4373
   64SAPC  H17X 5259   4.850   3.332   8.021 -0.5025  0.4798 -0.6883
   64SAPC  H17Y 5260   4.843   3.509   8.037 -0.3797 -0.1646 -0.9893
   64SAPC  C318 5261   4.923   3.395   8.201 -0.5684 -0.4760  0.0387
   64SAPC  H18X 5262   4.831   3.343   8.236 -0.0348 -2.0742 -0.8057
   64SAPC  H18Y 5263   4.943   3.489   8.257 -0.2579 -1.4747  1.6727
   64SAPC  H18Z 5264   5.001   3.320   8.225  1.1960  1.5141  0.8043
   65SAPC     N 5265   6.002   4.521   5.976  0.3026 -0.4793 -0.5310
   65SAPC   C12 5266   6.122   4.598   5.998 -0.3531  0.0110  0.2033
   65SAPC  H12A 5267   6.103   4.658   6.085  0.6946 -0.9520  1.1422
   65SAPC  H12B 5268   6.140   4.661   5.913  1.5799 -1.1221 -0.2973
   65SAPC   C13 5269   5.896   4.613   5.929 -0.3045 -0.3509 -0.0954
   65SAPC  H13A 5270   5.802   4.564   5.904 -1.8454  0.9680  2.6710
   65SAPC  H13B 5271   5.863   4.680   6.007 -3.4130 -2.5785  0.7197
   65SAPC  H13C 5272   5.917   4.672   5.842  0.3193 -1.9333 -1.0672
   65SAPC   C14 5273   6.031   4.417   5.873 -0.2336 -0.8423  0.5790
   65SAPC  H14A 5274   6.120   4.361   5.896  0.5386  0.2254  0.2902
   65SAPC  H14B 5275   5.950   4.347   5.862 -1.8220  1.2286 -2.4255
   65SAPC  H14C 5276   6.055   4.471   5.782  1.3473 -2.4328 -0.0023
   65SAPC   C15 5277   5.954   4.463   6.103  0.0060  0.1326  0.0822
   65SAPC  H15A 5278   5.861   4.413   6.085  0.1875 -0.3547  0.4605
   65SAPC  H15B 5279   6.009   4.381   6.148  0.1035 -0.9333 -1.8838
   65SAPC  H15C 5280   5.938   4.543   6.175  0.4583  0.4206 -0.1324
   65SAPC   C11 5281   6.259   4.532   6.039  0.3390  0.0726 -0.6696
   65SAPC  H11A 5282   6.249   4.470   6.130  0.0383 -1.7462 -1.9014
   65SAPC  H11B 5283   6.331   4.615   6.059  1.0381 -0.5245 -0.6814
   65SAPC     P 5284   6.436   4.352   5.952  0.4087  0.2859  0.3964
   65SAPC   O13 5285   6.442   4.260   5.833  0.9699  0.0252 -0.3142
   65SAPC   O14 5286   6.556   4.437   5.975  0.2537 -0.8368 -0.4931
   65SAPC   O12 5287   6.310   4.451   5.942  0.2425 -0.4272  0.2637
   65SAPC   O11 5288   6.417   4.250   6.074  0.1547  0.1078  0.0381
   65SAPC    C1 5289   6.282   4.190   6.090 -0.3393 -0.0572  0.9380
   65SAPC    HA 5290   6.196   4.260   6.083 -0.7653 -0.6189  0.4710
   65SAPC    HB 5291   6.273   4.116   6.007  0.7429  2.2400 -1.3875
   65SAPC    C2 5292   6.265   4.130   6.228  0.4487  0.3603  0.3322
   65SAPC    HS 5293   6.159   4.115   6.256  0.6277  0.1769  0.9327
   65SAPC   O21 5294   6.334   4.215   6.319 -0.0847  0.4789  0.5925
   65SAPC   C21 5295   6.262   4.322   6.353  0.5075 -0.3162  0.4581
   65SAPC   O22 5296   6.140   4.331   6.338 -0.3059 -0.6878 -0.1914
   65SAPC   C22 5297   6.348   4.429   6.406 -0.3792  0.4301 -0.4179
   65SAPC   H2R 5298   6.396   4.384   6.496  2.7387  2.8802 -0.6652
   65SAPC   H2S 5299   6.422   4.475   6.337 -0.6861  3.1788  0.9207
   65SAPC    C3 5300   6.332   3.984   6.240 -0.1513  0.2248  0.2315
   65SAPC    HX 5301   6.428   3.961   6.187 -0.7822  0.5583 -1.1023
   65SAPC    HY 5302   6.263   3.927   6.174 -1.0949  2.6448 -0.9915
   65SAPC   O31 5303   6.332   3.930   6.370 -0.4559  0.0070 -0.2130
   65SAPC   C31 5304   6.442   3.964   6.437  0.3388 -0.1468  0.0762
   65SAPC   O32 5305   6.546   4.005   6.394 -0.4421 -0.1360 -0.2199
   65SAPC   C32 5306   6.420   3.899   6.578  0.3227  0.0913  0.5096
   65SAPC   H2X 5307   6.423   3.789   6.564  0.2180  0.2436 -0.9022
   65SAPC   H2Y 5308   6.315   3.920   6.607  0.1416  0.2446 -0.2294
   65SAPC   C23 5309   6.268   4.550   6.459 -0.3706  0.2571 -0.2268
   65SAPC   H3R 5310   6.184   4.513   6.521 -1.0164 -0.0872 -1.2716
   65SAPC   H3S 5311   6.224   4.606   6.373 -1.1145  1.1385  0.7078
   65SAPC   C24 5312   6.362   4.648   6.541  0.2787  0.6002  0.2127
   65SAPC   H4R 5313   6.428   4.590   6.608  1.7349  1.0009 -0.8330
   65SAPC   H4S 5314   6.280   4.699   6.596  0.0137  1.0957 -0.6248
   65SAPC   C25 5315   6.438   4.740   6.451  0.5142  0.3075  0.3969
   65SAPC   H5R 5316   6.485   4.696   6.362 -1.8243 -0.7308 -0.3966
   65SAPC   C26 5317   6.487   4.860   6.494  0.0660 -0.0469  0.5392
   65SAPC   H6R 5318   6.535   4.917   6.413 -4.2239  0.4238 -1.9823
   65SAPC   C27 5319   6.474   4.919   6.629  0.1845 -0.5905 -0.6348
   65SAPC   H7R 5320   6.453   4.847   6.711  1.7517 -0.3556  0.0166
   65SAPC   H7S 5321   6.387   4.988   6.622  0.3667 -0.1502  1.0122
   65SAPC   C28 5322   6.597   4.999   6.676  0.6187  0.1824  0.3353
   65SAPC   H8R 5323   6.695   4.976   6.633  0.1099  1.3939 -1.5718
   65SAPC   C29 5324   6.595   5.102   6.764  0.3477  0.5360  0.9123
   65SAPC   H9R 5325   6.696   5.132   6.794  0.5425  0.0927  0.7070
   65SAPC  C210 5326   6.468   5.152   6.837  0.1196 -0.0112  0.4472
   65SAPC  H10R 5327   6.477   5.167   6.947 -0.7329 -0.5633  0.6048
   65SAPC  H10S 5328   6.395   5.069   6.825  1.3792 -1.2889  1.3086
   65SAPC  C211 5329   6.415   5.279   6.770 -0.6896  0.3571  0.1826
   65SAPC  H11R 5330   6.340   5.260   6.692  0.1765 -0.3000 -0.4978
   65SAPC  C212 5331   6.464   5.401   6.787  0.1574 -0.1739  0.5108
   65SAPC  H12R 5332   6.418   5.479   6.726 -0.5506  0.2562  1.5757
   65SAPC  C213 5333   6.557   5.455   6.882 -0.6460 -0.0795 -0.1412
   65SAPC  H13R 5334   6.643   5.501   6.829  1.0096 -1.2920  1.3666
   65SAPC  H13S 5335   6.615   5.377   6.937 -2.4004 -0.0238  1.9465
   65SAPC  C214 5336   6.509   5.568   6.971  0.3068 -0.3039  0.3280
   65SAPC  H14R 5337   6.403   5.590   6.952  0.7834  0.4136 -1.7534
   65SAPC  C215 5338   6.576   5.643   7.063  0.7151 -0.0378 -0.3918
   65SAPC  H15R 5339   6.521   5.728   7.106  1.8274  1.1663 -1.2804
   65SAPC  C216 5340   6.719   5.617   7.103 -0.0663  0.5847 -0.0634
   65SAPC  H16R 5341   6.764   5.717   7.120  2.8855 -0.5305 -0.6299
   65SAPC  H16S 5342   6.774   5.559   7.026 -0.3590 -0.9038  0.7879
   65SAPC  C217 5343   6.727   5.543   7.245  0.5141 -0.7920  0.0196
   65SAPC  H17R 5344   6.660   5.456   7.234  0.5307 -0.6726 -1.2153
   65SAPC  H17S 5345   6.672   5.614   7.312 -0.5671 -0.3842 -1.2548
   65SAPC  C218 5346   6.876   5.522   7.289  0.5950 -0.0592 -0.0240
   65SAPC  H18R 5347   6.923   5.615   7.329 -0.1440  0.0370  0.6309
   65SAPC  H18S 5348   6.932   5.506   7.194  2.5639  2.4280  0.6097
   65SAPC  C219 5349   6.892   5.394   7.380 -0.2741  0.4166 -0.2265
   65SAPC  H19R 5350   7.002   5.380   7.395 -0.0533  0.9955 -1.1930
   65SAPC  H19S 5351   6.849   5.306   7.328 -1.4317  0.2944  0.8968
   65SAPC  C220 5352   6.827   5.417   7.519 -0.6385  0.3465  0.8117
   65SAPC  H20R 5353   6.717   5.424   7.506 -0.4227  1.6151 -0.6218
   65SAPC  H20S 5354   6.867   5.502   7.579 -0.8007 -0.2752  1.8250
   65SAPC  H20T 5355   6.837   5.319   7.572  0.4672  0.8770  1.6374
   65SAPC   C33 5356   6.516   3.953   6.690 -0.5061 -0.2106 -0.6917
   65SAPC   H3X 5357   6.506   4.063   6.705 -0.1270  0.0056 -1.9015
   65SAPC   H3Y 5358   6.618   3.945   6.646  0.6662  1.2356  1.5904
   65SAPC   C34 5359   6.515   3.867   6.820 -0.1893  0.5751 -0.2580
   65SAPC   H4X 5360   6.482   3.764   6.793 -2.3770  0.5273  2.1827
   65SAPC   H4Y 5361   6.429   3.897   6.883  1.2644 -0.1311  2.1700
   65SAPC   C35 5362   6.646   3.851   6.897  0.1554 -0.3685 -0.6256
   65SAPC   H5X 5363   6.663   3.951   6.941 -1.1855 -0.3430 -0.1406
   65SAPC   H5Y 5364   6.723   3.828   6.821  0.7145  0.2809 -0.2643
   65SAPC   C36 5365   6.645   3.742   7.007 -0.6786  0.0495 -0.0209
   65SAPC   H6X 5366   6.731   3.752   7.076 -0.1241 -0.3056 -0.6494
   65SAPC   H6Y 5367   6.653   3.650   6.945  1.5679 -1.2444  2.0239
   65SAPC   C37 5368   6.512   3.734   7.085  0.6659  0.1772 -0.0637
   65SAPC   H7X 5369   6.431   3.704   7.015 -1.2005  1.7262  1.3261
   65SAPC   H7Y 5370   6.493   3.833   7.130 -2.7509 -0.4880  0.2272
   65SAPC   C38 5371   6.515   3.629   7.195 -0.8103  0.7449 -0.1348
   65SAPC   H8X 5372   6.603   3.637   7.263 -0.5047 -2.1788 -0.0745
   65SAPC   H8Y 5373   6.538   3.532   7.146  0.4682  0.8743  0.1624
   65SAPC   C39 5374   6.388   3.608   7.283 -0.1445 -0.4572 -0.6988
   65SAPC   H9X 5375   6.416   3.538   7.364  1.0038  1.2485  0.4360
   65SAPC   H9Y 5376   6.304   3.569   7.222 -2.5542  1.3899  1.2291
   65SAPC  C310 5377   6.335   3.735   7.354  0.0277  0.2477 -0.3507
   65SAPC  H10X 5378   6.237   3.703   7.395  0.1527 -0.7862 -0.8226
   65SAPC  H10Y 5379   6.320   3.823   7.289 -3.1496  1.8064  2.2152
   65SAPC  C311 5380   6.430   3.780   7.456  0.0880 -0.3126 -0.3793
   65SAPC  H11X 5381   6.433   3.889   7.472 -0.2342 -0.3230 -0.2445
   65SAPC  H11Y 5382   6.536   3.753   7.438  0.4935  0.1558  1.1361
   65SAPC  C312 5383   6.396   3.735   7.601  0.5400  1.2411 -0.2481
   65SAPC  H12X 5384   6.371   3.629   7.623 -0.9694  1.9979  2.0713
   65SAPC  H12Y 5385   6.310   3.801   7.626  1.6541  3.7328 -2.5114
   65SAPC  C313 5386   6.505   3.765   7.711  0.3675  0.1082  0.0552
   65SAPC  H13X 5387   6.600   3.737   7.661 -0.1204  3.0946 -2.9127
   65SAPC  H13Y 5388   6.487   3.709   7.805 -0.4271 -1.0623 -0.7602
   65SAPC  C314 5389   6.520   3.908   7.745 -0.2847  0.8774 -0.0663
   65SAPC  H14X 5390   6.494   3.971   7.658 -1.9685  1.0874  0.5402
   65SAPC  H14Y 5391   6.622   3.933   7.780  0.4717 -0.6579 -1.0348
   65SAPC  C315 5392   6.425   3.964   7.857  0.1192  0.0241  0.0334
   65SAPC  H15X 5393   6.465   3.933   7.955  1.0272 -0.8805 -0.5968
   65SAPC  H15Y 5394   6.323   3.928   7.834  0.0123  2.4180 -4.2952
   65SAPC  C316 5395   6.418   4.118   7.872  1.0707 -0.2591 -0.2761
   65SAPC  H16X 5396   6.340   4.146   7.946 -0.2828  1.2995 -2.1909
   65SAPC  H16Y 5397   6.385   4.151   7.771  0.6872 -0.3978 -0.1999
   65SAPC  C317 5398   6.543   4.186   7.928 -0.6058 -0.8940  0.7056
   65SAPC  H17X 5399   6.628   4.183   7.856 -0.4423 -1.3082  0.9170
   65SAPC  H17Y 5400   6.573   4.140   8.024 -1.3255  0.1507  1.4602
   65SAPC  C318 5401   6.525   4.334   7.961  0.3626  0.1661 -0.2946
   65SAPC  H18X 5402   6.625   4.378   7.980  0.1632  2.2787 -3.3608
   65SAPC  H18Y 5403   6.461   4.347   8.051  0.2740  1.3032 -0.5075
   65SAPC  H18Z 5404   6.474   4.390   7.879  1.1401 -0.2970 -1.1223
   66SAPC     N 5405   2.304   0.708   6.226  0.3420  0.4216  0.2287
   66SAPC   C12 5406   2.408   0.685   6.330 -0.5741 -0.3368  0.2188
   66SAPC  H12A 5407   2.476   0.602   6.316 -1.5135 -1.1955  0.6911
   66SAPC  H12B 5408   2.352   0.649   6.414  0.3707  1.0347  1.4828
   66SAPC   C13 5409   2.265   0.565   6.177  0.0011 -0.4055 -0.0370
   66SAPC  H13A 5410   2.246   0.505   6.264  0.6346  0.5092  0.7493
   66SAPC  H13B 5411   2.173   0.571   6.121 -0.2469 -2.0177  0.1601
   66SAPC  H13C 5412   2.337   0.523   6.107 -2.2677 -0.8785 -2.2458
   66SAPC   C14 5413   2.183   0.779   6.287  0.8865  0.1580 -0.5474
   66SAPC  H14A 5414   2.142   0.723   6.370  0.8197 -1.3884 -1.5905
   66SAPC  H14B 5415   2.211   0.874   6.330 -1.6469  0.3833  0.7638
   66SAPC  H14C 5416   2.102   0.798   6.218 -0.7407  1.2105  1.5343
   66SAPC   C15 5417   2.359   0.796   6.112  0.2660  0.1467 -0.9295
   66SAPC  H15A 5418   2.298   0.795   6.023 -0.5600 -0.5408 -0.3782
   66SAPC  H15B 5419   2.377   0.896   6.149  1.4356 -0.2361 -0.4047
   66SAPC  H15C 5420   2.461   0.765   6.094  0.7968  1.5699 -0.4983
   66SAPC   C11 5421   2.503   0.802   6.368  0.1895  0.2548  0.0560
   66SAPC  H11A 5422   2.540   0.771   6.468 -2.1960 -0.5010  0.7686
   66SAPC  H11B 5423   2.440   0.893   6.379  2.2092  1.8382 -0.8277
   66SAPC     P 5424   2.738   0.752   6.248  0.4674  0.3083  0.2315
   66SAPC   O13 5425   2.709   0.607   6.234 -0.1736 -0.9253 -0.1887
   66SAPC   O14 5426   2.811   0.813   6.137  0.0374 -0.5105 -0.1275
   66SAPC   O12 5427   2.599   0.838   6.271 -0.2133 -0.0047 -0.5070
   66SAPC   O11 5428   2.821   0.775   6.381  0.9378 -0.0259  0.4376
   66SAPC    C1 5429   2.794   0.895   6.461  0.1686  0.6085 -0.0094
   66SAPC    HA 5430   2.746   0.978   6.405 -1.3622 -0.2734 -0.0545
   66SAPC    HB 5431   2.733   0.866   6.549  2.1981  0.1752  1.3289
   66SAPC    C2 5432   2.929   0.945   6.527 -0.0814 -0.8395 -0.2001
   66SAPC    HS 5433   2.966   0.865   6.594 -0.2100 -0.7525 -0.0235
   66SAPC   O21 5434   2.904   1.070   6.599  0.1070 -0.3398  0.2628
   66SAPC   C21 5435   2.914   1.063   6.728 -0.0935 -0.1232  0.8836
   66SAPC   O22 5436   2.942   0.965   6.791 -0.6461 -0.3973  0.7248
   66SAPC   C22 5437   2.880   1.201   6.797  0.1581  0.1960 -0.4421
   66SAPC   H2R 5438   2.909   1.278   6.722  0.2968 -0.0597 -0.6523
   66SAPC   H2S 5439   2.772   1.216   6.819  0.4058  0.4243  0.6555
   66SAPC    C3 5440   3.028   0.972   6.410 -0.0777 -0.1936 -0.3663
   66SAPC    HX 5441   2.999   1.043   6.330  0.2410 -0.9978 -1.2173
   66SAPC    HY 5442   3.028   0.878   6.351 -0.7721  0.1289 -0.9026
   66SAPC   O31 5443   3.162   0.983   6.458 -0.3389  0.2246 -0.2234
   66SAPC   C31 5444   3.198   1.104   6.489 -0.3719 -0.2938  0.0825
   66SAPC   O32 5445   3.134   1.204   6.467 -0.4855 -0.1112  0.1489
   66SAPC   C32 5446   3.323   1.096   6.580 -0.0300 -0.2433  0.6331
   66SAPC   H2X 5447   3.411   1.132   6.522  1.0581 -2.5377  0.7286
   66SAPC   H2Y 5448   3.328   0.996   6.627 -2.5696  0.3416  2.3114
   66SAPC   C23 5449   2.965   1.224   6.922 -0.0898  0.0285 -0.5633
   66SAPC   H3R 5450   3.066   1.182   6.905 -0.5478 -1.0869 -0.6003
   66SAPC   H3S 5451   2.934   1.157   7.005  0.1909 -0.4842 -0.8704
   66SAPC   C24 5452   2.985   1.364   6.977  0.1255 -0.2348 -0.3537
   66SAPC   H4R 5453   3.001   1.438   6.895  2.6641  0.7800  0.9533
   66SAPC   H4S 5454   3.067   1.367   7.052 -1.0286 -0.4161  0.9589
   66SAPC   C25 5455   2.852   1.410   7.041  0.0347  0.2607 -0.3513
   66SAPC   H5R 5456   2.770   1.399   6.969 -0.7556 -1.3651  0.7474
   66SAPC   C26 5457   2.844   1.459   7.172  0.5669  0.2048  0.5118
   66SAPC   H6R 5458   2.744   1.494   7.200  0.4304  0.9034 -0.7391
   66SAPC   C27 5459   2.953   1.483   7.270  0.1937 -0.5370 -0.1113
   66SAPC   H7R 5460   2.948   1.584   7.314  2.8446 -0.1157 -0.6128
   66SAPC   H7S 5461   3.052   1.484   7.219 -0.5252 -1.3388 -1.5792
   66SAPC   C28 5462   2.971   1.361   7.363  0.3490  0.2253  0.3391
   66SAPC   H8R 5463   2.951   1.272   7.301 -0.1096  1.1537 -0.8757
   66SAPC   C29 5464   2.996   1.343   7.498  0.3403 -0.0755  0.8272
   66SAPC   H9R 5465   2.995   1.245   7.549 -0.0335  0.4104  1.7919
   66SAPC  C210 5466   3.006   1.455   7.600 -0.0492 -0.1287  0.1571
   66SAPC  H10R 5467   2.902   1.473   7.633  0.6270  1.7308  1.4671
   66SAPC  H10S 5468   3.040   1.553   7.561  0.1458  0.2063  1.1515
   66SAPC  C211 5469   3.087   1.410   7.722  0.2209 -0.0082 -0.1886
   66SAPC  H11R 5470   3.197   1.422   7.716  0.2579 -0.5062 -0.5230
   66SAPC  C212 5471   3.046   1.375   7.851  0.3936 -0.6460  0.4371
   66SAPC  H12R 5472   3.124   1.350   7.925  2.6162  0.5295 -1.3745
   66SAPC  C213 5473   2.906   1.362   7.906 -0.4260  0.0863  0.1721
   66SAPC  H13R 5474   2.838   1.353   7.818 -0.0865  1.2336 -0.2339
   66SAPC  H13S 5475   2.876   1.459   7.951 -2.3346 -0.5255  0.2961
   66SAPC  C214 5476   2.892   1.252   8.015  0.0455 -0.8605  0.5468
   66SAPC  H14R 5477   2.858   1.154   7.978  0.2997 -0.3516 -1.1352
   66SAPC  C215 5478   2.915   1.257   8.149 -0.7954 -0.0120 -0.6182
   66SAPC  H15R 5479   2.916   1.156   8.192 -0.2952 -0.9246 -2.6089
   66SAPC  C216 5480   2.955   1.380   8.231 -0.2003  0.1430 -0.3204
   66SAPC  H16R 5481   2.874   1.401   8.304  0.2951  1.1007 -0.0317
   66SAPC  H16S 5482   2.972   1.476   8.178 -0.8381 -0.4849 -1.7308
   66SAPC  C217 5483   3.070   1.352   8.321 -0.5255  0.1394  0.0253
   66SAPC  H17R 5484   3.049   1.256   8.373 -0.2778 -0.3096 -0.6962
   66SAPC  H17S 5485   3.079   1.434   8.396  1.2970 -1.7107  1.9831
   66SAPC  C218 5486   3.203   1.339   8.236 -0.3321  0.2846 -0.4403
   66SAPC  H18R 5487   3.236   1.442   8.212  0.3720  0.5136  1.3888
   66SAPC  H18S 5488   3.187   1.277   8.145  2.3286 -3.2080  1.2208
   66SAPC  C219 5489   3.313   1.260   8.313  0.1246  0.3808  0.1013
   66SAPC  H19R 5490   3.396   1.259   8.240 -0.0682  3.4224 -0.2776
   66SAPC  H19S 5491   3.276   1.157   8.334  0.5044  0.4791  1.3392
   66SAPC  C220 5492   3.371   1.315   8.444 -0.3254 -0.2822  0.8445
   66SAPC  H20R 5493   3.284   1.334   8.510 -0.8426  1.5302 -0.3062
   66SAPC  H20S 5494   3.417   1.416   8.435  0.4262 -0.6772  0.1470
   66SAPC  H20T 5495   3.448   1.248   8.488  1.3220  0.1747 -1.1952
   66SAPC   C33 5496   3.316   1.196   6.703  0.3770  0.2055  0.5200
   66SAPC   H3X 5497   3.238   1.151   6.769 -1.3230 -1.0150 -2.1283
   66SAPC   H3Y 5498   3.267   1.287   6.662  0.1942  0.0530  0.3963
   66SAPC   C34 5499   3.447   1.217   6.767 -0.1287 -0.0035 -0.5491
   66SAPC   H4X 5500   3.509   1.258   6.684  1.2855 -1.4959 -0.2815
   66SAPC   H4Y 5501   3.494   1.120   6.796  0.5816  0.6123  0.3944
   66SAPC   C35 5502   3.441   1.310   6.883  0.1891 -0.0071  0.8123
   66SAPC   H5X 5503   3.383   1.397   6.845  0.2408 -0.7275 -0.9859
   66SAPC   H5Y 5504   3.548   1.335   6.896  0.5427 -1.6591  1.3361
   66SAPC   C36 5505   3.380   1.252   7.012 -0.6813 -0.2378  0.5185
   66SAPC   H6X 5506   3.444   1.164   7.031  0.5511  0.9276  2.0392
   66SAPC   H6Y 5507   3.272   1.224   7.015 -0.3126 -1.6633  1.3275
   66SAPC   C37 5508   3.383   1.355   7.119  0.5749 -0.2517  0.2299
   66SAPC   H7X 5509   3.303   1.426   7.090  0.1987 -0.6530  0.2569
   66SAPC   H7Y 5510   3.479   1.410   7.122  0.5022 -0.1603  1.0923
   66SAPC   C38 5511   3.334   1.300   7.260 -0.6184 -0.0797 -0.4612
   66SAPC   H8X 5512   3.386   1.206   7.286 -0.3322  0.2800  0.3161
   66SAPC   H8Y 5513   3.229   1.266   7.252 -0.9764  0.7817  0.2825
   66SAPC   C39 5514   3.352   1.399   7.380 -0.0483 -0.1863  0.7021
   66SAPC   H9X 5515   3.255   1.452   7.383 -0.9226 -1.7266  1.2728
   66SAPC   H9Y 5516   3.438   1.466   7.362 -0.8798  1.2665  1.9322
   66SAPC  C310 5517   3.386   1.343   7.517  0.0112 -0.0736  0.7035
   66SAPC  H10X 5518   3.302   1.273   7.535 -1.0857  0.6402 -1.4338
   66SAPC  H10Y 5519   3.392   1.423   7.594  0.9144 -0.4408  1.0437
   66SAPC  C311 5520   3.528   1.264   7.529  0.1103 -0.2502 -0.3249
   66SAPC  H11X 5521   3.597   1.349   7.508 -2.5039  1.4652 -2.9016
   66SAPC  H11Y 5522   3.550   1.193   7.447 -0.8297 -0.1369 -0.6922
   66SAPC  C312 5523   3.562   1.206   7.665  0.3948 -0.3490  0.1673
   66SAPC  H12X 5524   3.656   1.147   7.661  0.4404 -0.2268 -1.1819
   66SAPC  H12Y 5525   3.483   1.134   7.694  0.0736 -1.0522 -2.2114
   66SAPC  C313 5526   3.574   1.317   7.765  0.1431  0.3664 -0.4218
   66SAPC  H13X 5527   3.493   1.393   7.764  0.5367  0.8249  0.7713
   66SAPC  H13Y 5528   3.665   1.379   7.750 -1.5825  3.4153  0.8458
   66SAPC  C314 5529   3.599   1.263   7.902 -0.4008  0.0304 -0.4863
   66SAPC  H14X 5530   3.656   1.168   7.912  1.8358  1.3223 -0.2299
   66SAPC  H14Y 5531   3.499   1.224   7.928 -1.2814  0.1675 -3.3544
   66SAPC  C315 5532   3.653   1.371   7.998 -0.4948 -0.0308 -0.2885
   66SAPC  H15X 5533   3.567   1.439   8.013  0.5879  1.1612  0.7731
   66SAPC  H15Y 5534   3.728   1.434   7.945 -1.4451 -1.3755 -3.5129
   66SAPC  C316 5535   3.689   1.326   8.140  0.6004 -0.3926  0.6171
   66SAPC  H16X 5536   3.783   1.267   8.132 -0.2750 -1.6912 -0.4891
   66SAPC  H16Y 5537   3.608   1.257   8.171 -1.8962  1.0440 -2.2681
   66SAPC  C317 5538   3.711   1.444   8.231 -0.5897 -0.4035  0.2231
   66SAPC  H17X 5539   3.737   1.397   8.328 -2.1126 -2.6053 -0.3523
   66SAPC  H17Y 5540   3.618   1.503   8.245 -0.6032 -0.8292  2.4062
   66SAPC  C318 5541   3.821   1.541   8.187 -0.9571  0.3473  0.2183
   66SAPC  H18X 5542   3.787   1.602   8.100  0.1901  2.3954  1.1351
   66SAPC  H18Y 5543   3.913   1.493   8.149 -1.1845  0.1142 -0.0491
   66SAPC  H18Z 5544   3.839   1.612   8.270  3.4899 -1.0752  0.7272
   67SAPC     N 5545   0.782   5.404   6.167  0.2732  0.5698  0.2059
   67SAPC   C12 5546   0.771   5.416   6.324  0.5676 -0.8477  0.2058
   67SAPC  H12A 5547   0.851   5.471   6.371 -0.8155  0.9568  0.5746
   67SAPC  H12B 5548   0.758   5.324   6.378 -0.8053 -0.7356  0.1135
   67SAPC   C13 5549   0.666   5.328   6.118 -0.2894  0.5652  0.0371
   67SAPC  H13A 5550   0.656   5.232   6.167 -0.1801  0.1387 -0.7504
   67SAPC  H13B 5551   0.571   5.372   6.141 -0.6946 -0.4003  0.2799
   67SAPC  H13C 5552   0.664   5.309   6.011 -1.2372 -0.0277  0.1499
   67SAPC   C14 5553   0.787   5.537   6.109  0.1182 -0.8800 -0.3276
   67SAPC  H14A 5554   0.698   5.594   6.130  1.3113  0.3012  1.9079
   67SAPC  H14B 5555   0.868   5.590   6.156  0.1411 -1.1015 -0.1125
   67SAPC  H14C 5556   0.806   5.535   6.002  2.3856  0.0320 -0.0019
   67SAPC   C15 5557   0.904   5.331   6.126  0.0651 -0.1758  0.1503
   67SAPC  H15A 5558   0.989   5.388   6.160 -0.5921  1.1823 -0.4091
   67SAPC  H15B 5559   0.898   5.240   6.183 -2.2974  1.1155  2.1910
   67SAPC  H15C 5560   0.907   5.321   6.019 -0.9588 -1.2879  0.2054
   67SAPC   C11 5561   0.643   5.500   6.375  0.3896  0.2654 -0.0109
   67SAPC  H11A 5562   0.642   5.593   6.315 -1.8118 -0.2189 -0.8065
   67SAPC  H11B 5563   0.645   5.522   6.484 -3.2750  0.3579  0.1518
   67SAPC     P 5564   0.387   5.503   6.354 -0.1622  0.1454 -0.0594
   67SAPC   O13 5565   0.402   5.634   6.295  0.2330 -0.3521  0.1714
   67SAPC   O14 5566   0.283   5.417   6.303 -0.0211  0.4626  0.2234
   67SAPC   O12 5567   0.527   5.426   6.334 -0.1717 -0.5537  0.5018
   67SAPC   O11 5568   0.372   5.510   6.513 -0.8246 -0.0852  0.1734
   67SAPC    C1 5569   0.438   5.609   6.603  0.0871  0.5906  0.3487
   67SAPC    HA 5570   0.509   5.561   6.674  1.3660  2.1632  0.2112
   67SAPC    HB 5571   0.499   5.681   6.544  1.0258 -1.2030 -0.9717
   67SAPC    C2 5572   0.333   5.685   6.690  0.2787 -0.2103  0.1453
   67SAPC    HS 5573   0.383   5.744   6.770 -0.1570 -0.0630  0.3128
   67SAPC   O21 5574   0.242   5.581   6.740 -0.2362 -0.3109  0.7912
   67SAPC   C21 5575   0.268   5.552   6.865 -0.4360  0.5269 -0.3306
   67SAPC   O22 5576   0.339   5.624   6.938 -0.4567  0.5150 -0.3886
   67SAPC   C22 5577   0.190   5.427   6.906 -1.2336 -0.9076  0.4211
   67SAPC   H2R 5578   0.165   5.427   7.014  0.3913 -0.6107  0.8225
   67SAPC   H2S 5579   0.098   5.420   6.844 -0.3189  0.4604 -1.1632
   67SAPC    C3 5580   0.254   5.772   6.592  0.1191 -0.4006 -0.4991
   67SAPC    HX 5581   0.203   5.699   6.526 -3.5028  2.0344 -0.7021
   67SAPC    HY 5582   0.323   5.836   6.533  0.1504 -0.2423 -0.2944
   67SAPC   O31 5583   0.147   5.850   6.653  0.1595 -0.2569  0.3997
   67SAPC   C31 5584   0.174   5.983   6.671 -0.3951  0.3754 -1.0298
   67SAPC   O32 5585   0.274   6.047   6.642 -0.4903  0.1481  0.3747
   67SAPC   C32 5586   0.056   6.044   6.754 -0.0500 -0.5346 -0.1296
   67SAPC   H2X 5587  -0.037   6.033   6.694 -1.2959 -1.9123  1.9204
   67SAPC   H2Y 5588   0.078   6.151   6.775 -0.5327  0.5142 -4.1353
   67SAPC   C23 5589   0.280   5.309   6.873  0.3530 -0.1697 -0.5849
   67SAPC   H3R 5590   0.311   5.293   6.768  2.0506 -1.6506  0.0961
   67SAPC   H3S 5591   0.213   5.222   6.892 -0.7396  0.4406 -1.5289
   67SAPC   C24 5592   0.403   5.289   6.961  0.0229 -0.7672  1.1178
   67SAPC   H4R 5593   0.378   5.329   7.062  1.7307 -0.1208  1.3162
   67SAPC   H4S 5594   0.492   5.347   6.928 -0.8615  0.5823  1.0290
   67SAPC   C25 5595   0.454   5.153   6.944  0.1127  0.4389 -0.0132
   67SAPC   H5R 5596   0.517   5.138   6.855 -0.5133 -3.0160 -0.0122
   67SAPC   C26 5597   0.435   5.039   7.017 -0.5000  0.0916 -0.3317
   67SAPC   H6R 5598   0.485   4.944   6.993 -1.3113 -0.5046  0.2320
   67SAPC   C27 5599   0.351   5.031   7.145 -0.2096  0.7327 -0.1134
   67SAPC   H7R 5600   0.351   5.126   7.203  0.3367 -0.2638  1.5561
   67SAPC   H7S 5601   0.399   4.958   7.213 -0.4543 -0.0530 -0.7601
   67SAPC   C28 5602   0.207   5.006   7.102  0.3812 -0.0145 -0.0138
   67SAPC   H8R 5603   0.170   5.078   7.029  0.5425 -1.1209 -1.2342
   67SAPC   C29 5604   0.135   4.905   7.143  0.2649  0.5022  0.3415
   67SAPC   H9R 5605   0.031   4.898   7.108 -0.0540  2.5517  0.7636
   67SAPC  C210 5606   0.181   4.807   7.247  0.4220  0.4880 -0.8820
   67SAPC  H10R 5607   0.261   4.841   7.316  0.8740 -1.0849 -0.5819
   67SAPC  H10S 5608   0.245   4.729   7.202  1.0914 -0.2477  1.2062
   67SAPC  C211 5609   0.066   4.751   7.330 -0.1984 -0.7431  0.3198
   67SAPC  H11R 5610   0.017   4.662   7.289 -0.0399  0.1338 -1.9733
   67SAPC  C212 5611   0.033   4.791   7.457  0.5596  0.1487 -0.7801
   67SAPC  H12R 5612  -0.049   4.741   7.510  0.6950  0.5031 -0.2293
   67SAPC  C213 5613   0.110   4.906   7.528  0.6996 -0.7050  0.4741
   67SAPC  H13R 5614   0.068   5.007   7.508  1.2089 -0.6389 -0.3458
   67SAPC  H13S 5615   0.209   4.917   7.477  0.2348 -2.3498 -0.8969
   67SAPC  C214 5616   0.126   4.887   7.678  0.2333  0.2338 -0.1079
   67SAPC  H14R 5617   0.061   4.814   7.728  1.1740  0.0088  0.8164
   67SAPC  C215 5618   0.200   4.968   7.758  0.2687  0.2745 -0.1735
   67SAPC  H15R 5619   0.198   4.958   7.867 -0.8958  2.2437  0.0401
   67SAPC  C216 5620   0.278   5.087   7.703 -0.3120 -0.1788 -1.0501
   67SAPC  H16R 5621   0.242   5.167   7.771  1.7821 -0.3284  0.3408
   67SAPC  H16S 5622   0.256   5.114   7.598  3.0246  1.0339 -1.5392
   67SAPC  C217 5623   0.430   5.067   7.732  0.5918  0.5819  0.6114
   67SAPC  H17R 5624   0.480   5.160   7.698  0.1070  0.0378 -1.7751
   67SAPC  H17S 5625   0.462   4.987   7.662 -1.7270  2.1573 -2.4415
   67SAPC  C218 5626   0.458   5.045   7.886  0.1219 -0.1345  0.6109
   67SAPC  H18R 5627   0.441   4.939   7.914 -1.4181  0.0519  0.4595
   67SAPC  H18S 5628   0.380   5.099   7.943 -1.2799 -1.6920  0.2456
   67SAPC  C219 5629   0.593   5.088   7.932 -0.6223 -1.0491  0.4812
   67SAPC  H19R 5630   0.590   5.199   7.933  0.5177 -0.9939 -0.1825
   67SAPC  H19S 5631   0.667   5.055   7.855  0.3960  1.4413  0.3081
   67SAPC  C220 5632   0.636   5.051   8.071 -0.4386  0.4324 -0.8686
   67SAPC  H20R 5633   0.557   5.062   8.148  1.8764 -1.0930  1.9127
   67SAPC  H20S 5634   0.735   5.096   8.097  1.9419 -1.7379 -5.1460
   67SAPC  H20T 5635   0.646   4.941   8.077  3.0016  0.6212 -1.0006
   67SAPC   C33 5636   0.046   5.969   6.895 -0.3888 -0.0992 -0.4319
   67SAPC   H3X 5637   0.072   5.861   6.904  0.4239  0.2772  2.8641
   67SAPC   H3Y 5638  -0.062   5.980   6.919 -0.8865  3.0452 -3.3753
   67SAPC   C34 5639   0.115   6.034   7.011  0.3738 -0.9787 -0.0174
   67SAPC   H4X 5640   0.124   6.143   6.991  0.0432 -0.7061  1.2404
   67SAPC   H4Y 5641   0.218   5.993   7.006  0.8945  0.2715 -0.1590
   67SAPC   C35 5642   0.058   6.022   7.151 -0.1190 -0.1297  0.8740
   67SAPC   H5X 5643   0.013   5.921   7.152  0.9662 -0.6580 -0.3937
   67SAPC   H5Y 5644  -0.023   6.097   7.148  0.6690  0.7267 -2.5594
   67SAPC   C36 5645   0.158   6.039   7.264  0.1482  0.1078 -0.1962
   67SAPC   H6X 5646   0.199   6.143   7.261 -1.6654  0.8789  0.1908
   67SAPC   H6Y 5647   0.240   5.969   7.240 -1.7757 -2.3158 -0.0305
   67SAPC   C37 5648   0.107   6.009   7.402  0.3352 -0.2584  0.2845
   67SAPC   H7X 5649   0.015   6.067   7.428  0.7430  0.7289 -0.3781
   67SAPC   H7Y 5650   0.192   6.043   7.464  0.9123  1.7571 -1.4642
   67SAPC   C38 5651   0.096   5.857   7.423  0.3819  0.0859 -0.3704
   67SAPC   H8X 5652   0.200   5.821   7.437 -0.4549 -2.8321 -1.0773
   67SAPC   H8Y 5653   0.061   5.796   7.338  0.2530 -1.8049  0.9824
   67SAPC   C39 5654   0.003   5.816   7.542  0.3656  0.3653  0.3804
   67SAPC   H9X 5655   0.004   5.705   7.546 -0.1830  0.2096 -1.9838
   67SAPC   H9Y 5656  -0.101   5.848   7.520  1.2139  1.3999 -2.7301
   67SAPC  C310 5657   0.062   5.880   7.673 -0.5150  0.6156 -0.8661
   67SAPC  H10X 5658   0.075   5.990   7.681  1.0236  0.5136 -1.7234
   67SAPC  H10Y 5659   0.160   5.831   7.688  0.4901  2.6078 -0.7001
   67SAPC  C311 5660  -0.023   5.832   7.791  0.0020 -0.0716 -0.1094
   67SAPC  H11X 5661  -0.034   5.722   7.790  2.1876 -0.3817  1.6011
   67SAPC  H11Y 5662  -0.123   5.881   7.790  0.0159  0.2185  2.7664
   67SAPC  C312 5663   0.033   5.858   7.932  0.6803 -0.0969 -0.6179
   67SAPC  H12X 5664   0.034   5.967   7.954  0.6092 -0.4957  1.6011
   67SAPC  H12Y 5665   0.132   5.809   7.936  1.7613  2.0137  1.9912
   67SAPC  C313 5666  -0.074   5.808   8.040 -0.2930  0.3155  0.7092
   67SAPC  H13X 5667  -0.071   5.697   8.032  1.8117  0.2304  1.9071
   67SAPC  H13Y 5668  -0.177   5.841   8.015 -0.8606 -1.7814  0.0757
   67SAPC  C314 5669  -0.039   5.854   8.180  0.4606 -0.0259 -0.9244
   67SAPC  H14X 5670  -0.124   5.835   8.248  1.8230 -1.3309  0.5125
   67SAPC  H14Y 5671  -0.022   5.964   8.175  0.7706 -0.0729 -0.9592
   67SAPC  C315 5672   0.084   5.792   8.240 -0.5261 -0.0060  0.0013
   67SAPC  H15X 5673   0.120   5.850   8.328 -0.8323  0.1030  0.0575
   67SAPC  H15Y 5674   0.166   5.797   8.165  1.7670 -0.0721  2.3461
   67SAPC  C316 5675   0.067   5.640   8.265 -0.4187 -0.2577  0.4643
   67SAPC  H16X 5676   0.158   5.602   8.317 -0.2862 -1.2718 -0.4869
   67SAPC  H16Y 5677   0.069   5.591   8.165  0.1217  1.8129 -0.5998
   67SAPC  C317 5678  -0.061   5.605   8.341  0.2227  0.6860 -0.1209
   67SAPC  H17X 5679  -0.155   5.628   8.288 -0.2358  0.3403  0.5215
   67SAPC  H17Y 5680  -0.075   5.655   8.439 -0.9312 -0.3113  0.2454
   67SAPC  C318 5681  -0.054   5.457   8.375 -0.6295  0.3715  1.0873
   67SAPC  H18X 5682   0.035   5.439   8.439 -0.2788 -1.2585  0.1804
   67SAPC  H18Y 5683  -0.044   5.395   8.283  3.5256  0.7166  1.0904
   67SAPC  H18Z 5684  -0.146   5.423   8.427 -0.6807 -0.1703  0.6443
   68SAPC     N 5685   4.659   3.620   5.634  1.0227 -0.0158  0.2209
   68SAPC   C12 5686   4.644   3.743   5.730 -0.3831 -0.2684  0.5275
   68SAPC  H12A 5687   4.571   3.815   5.695 -0.8550  0.0498  2.1104
   68SAPC  H12B 5688   4.741   3.789   5.722  0.3771 -1.9524 -0.6827
   68SAPC   C13 5689   4.709   3.672   5.503 -0.1000  0.0354  0.3921
   68SAPC  H13A 5690   4.714   3.587   5.437 -0.7355 -0.0041  0.3951
   68SAPC  H13B 5691   4.636   3.739   5.461 -0.5012 -0.1697  0.7647
   68SAPC  H13C 5692   4.811   3.708   5.492  0.3633 -1.4653 -0.7162
   68SAPC   C14 5693   4.762   3.528   5.689 -0.5711 -0.4691  0.2422
   68SAPC  H14A 5694   4.789   3.447   5.622 -0.3507 -0.4012  0.2490
   68SAPC  H14B 5695   4.851   3.585   5.705 -0.2219 -0.7016 -0.7781
   68SAPC  H14C 5696   4.728   3.480   5.780  2.6595 -0.9432  1.3108
   68SAPC   C15 5697   4.528   3.550   5.615  0.0557  0.4735  0.1103
   68SAPC  H15A 5698   4.464   3.627   5.574  1.6520  1.0417 -1.3985
   68SAPC  H15B 5699   4.533   3.468   5.545  1.2188  1.2213 -0.7076
   68SAPC  H15C 5700   4.489   3.518   5.711  1.8743 -0.2024  0.6682
   68SAPC   C11 5701   4.609   3.708   5.878 -0.5401 -0.1879  0.2131
   68SAPC  H11A 5702   4.621   3.798   5.941  0.2401 -0.2912  0.2345
   68SAPC  H11B 5703   4.685   3.635   5.915  2.0353  0.7215 -2.7709
   68SAPC     P 5704   4.410   3.633   6.029  0.0831 -0.0077  0.6209
   68SAPC   O13 5705   4.326   3.740   6.075  0.2360 -0.0821  0.4290
   68SAPC   O14 5706   4.330   3.509   6.017  0.1403  0.3337  0.6339
   68SAPC   O12 5707   4.468   3.666   5.885 -0.4881  1.3198  1.1695
   68SAPC   O11 5708   4.538   3.619   6.118  0.0747  0.2547 -0.1445
   68SAPC    C1 5709   4.529   3.568   6.260  0.3413 -0.7622 -0.0441
   68SAPC    HA 5710   4.537   3.660   6.322 -0.6331 -0.8382  0.2143
   68SAPC    HB 5711   4.435   3.513   6.282 -1.1607  0.8718 -1.9613
   68SAPC    C2 5712   4.646   3.471   6.283 -0.2878  0.6090  0.3662
   68SAPC    HS 5713   4.629   3.378   6.224  1.4796  0.4923 -0.0108
   68SAPC   O21 5714   4.647   3.431   6.420 -0.5612 -0.2149 -0.1568
   68SAPC   C21 5715   4.728   3.333   6.460 -0.0818  0.4637  0.4160
   68SAPC   O22 5716   4.819   3.286   6.392 -0.1433  0.4547 -0.0826
   68SAPC   C22 5717   4.701   3.284   6.604  0.2124  0.2556 -0.0705
   68SAPC   H2R 5718   4.722   3.371   6.670  1.4604  0.8895 -1.2404
   68SAPC   H2S 5719   4.594   3.256   6.608 -0.0508  0.9341 -1.6360
   68SAPC    C3 5720   4.780   3.524   6.236 -0.7089 -0.4915 -0.5581
   68SAPC    HX 5721   4.762   3.549   6.129 -2.2020 -0.5987 -0.3603
   68SAPC    HY 5722   4.855   3.443   6.238  2.2543  2.1008  0.2138
   68SAPC   O31 5723   4.822   3.636   6.314 -0.1740 -0.0882 -0.7868
   68SAPC   C31 5724   4.906   3.719   6.247  0.0336 -0.4065  0.2591
   68SAPC   O32 5725   4.942   3.700   6.129 -0.4900  0.0822  0.3064
   68SAPC   C32 5726   4.938   3.831   6.334 -0.7373  0.0879  0.1997
   68SAPC   H2X 5727   5.015   3.888   6.278 -0.9653  2.8937  2.4957
   68SAPC   H2Y 5728   4.987   3.806   6.430 -0.1034  0.1688 -0.1001
   68SAPC   C23 5729   4.786   3.158   6.648  0.1539 -0.1980 -0.1596
   68SAPC   H3R 5730   4.893   3.183   6.627  0.7784 -2.8726 -0.5953
   68SAPC   H3S 5731   4.762   3.070   6.585 -0.4342  1.6915 -2.7462
   68SAPC   C24 5732   4.761   3.125   6.794 -0.6550 -0.8975  0.2703
   68SAPC   H4R 5733   4.804   3.023   6.802  0.2529 -0.7314 -1.8279
   68SAPC   H4S 5734   4.660   3.089   6.825  0.1569 -1.5214  2.4239
   68SAPC   C25 5735   4.814   3.229   6.894 -0.2643 -0.3794  0.0316
   68SAPC   H5R 5736   4.922   3.226   6.914 -0.1469  2.0458  0.1325
   68SAPC   C26 5737   4.733   3.310   6.973  0.4516  0.9171  0.6477
   68SAPC   H6R 5738   4.793   3.375   7.039  1.3406  1.4512 -0.6529
   68SAPC   C27 5739   4.579   3.296   6.973  0.6175  0.0400 -0.4904
   68SAPC   H7R 5740   4.556   3.192   7.006  3.7129 -0.7600 -0.4634
   68SAPC   H7S 5741   4.544   3.312   6.869  0.6489  1.1733 -0.3387
   68SAPC   C28 5742   4.512   3.397   7.065 -0.0728  0.6804  0.3289
   68SAPC   H8R 5743   4.459   3.477   7.012 -0.2448 -0.1994 -0.8775
   68SAPC   C29 5744   4.504   3.393   7.198 -0.1887 -0.9922 -0.7452
   68SAPC   H9R 5745   4.468   3.482   7.251  2.9839  0.2754 -0.4940
   68SAPC  C210 5746   4.558   3.293   7.297 -0.3828 -0.6950 -0.0462
   68SAPC  H10R 5747   4.631   3.222   7.251 -0.6881  0.0403 -1.7275
   68SAPC  H10S 5748   4.480   3.221   7.331 -1.3680  0.5055  0.2674
   68SAPC  C211 5749   4.610   3.358   7.422  0.0710  0.1625 -0.2709
   68SAPC  H11R 5750   4.646   3.461   7.411 -2.0716  0.7881 -2.2710
   68SAPC  C212 5751   4.628   3.308   7.543 -0.3870 -0.2468  0.6998
   68SAPC  H12R 5752   4.697   3.364   7.607 -0.5204 -0.2710  0.8655
   68SAPC  C213 5753   4.604   3.165   7.595  0.3373 -0.8331  0.6359
   68SAPC  H13R 5754   4.695   3.127   7.646 -1.2958 -0.6889  3.9770
   68SAPC  H13S 5755   4.589   3.096   7.510  0.4457 -0.1904  0.0808
   68SAPC  C214 5756   4.485   3.162   7.687  0.5848 -0.8587 -0.2461
   68SAPC  H14R 5757   4.406   3.224   7.642  0.5443 -1.1571 -0.5962
   68SAPC  C215 5758   4.467   3.102   7.801  0.0158 -0.3691 -1.1931
   68SAPC  H15R 5759   4.370   3.116   7.851  0.2518 -0.4737 -0.6966
   68SAPC  C216 5760   4.569   3.014   7.872 -0.3167  0.2208 -0.6369
   68SAPC  H16R 5761   4.672   3.013   7.829  0.0988 -2.8188  0.2000
   68SAPC  H16S 5762   4.545   2.907   7.885 -1.1671  0.3598 -1.0559
   68SAPC  C217 5763   4.595   3.069   8.014 -0.4062 -0.0803 -0.1575
   68SAPC  H17R 5764   4.652   3.164   8.020 -0.6732  0.0138  1.6237
   68SAPC  H17S 5765   4.672   3.001   8.055 -1.6765 -1.7300 -0.3619
   68SAPC  C218 5766   4.475   3.083   8.105 -0.1180  0.3827 -0.1616
   68SAPC  H18R 5767   4.423   2.987   8.123 -2.1800  1.8130  2.4177
   68SAPC  H18S 5768   4.399   3.153   8.064 -1.9225 -1.6906 -0.5232
   68SAPC  C219 5769   4.525   3.122   8.249 -0.3155 -0.2442  0.1504
   68SAPC  H19R 5770   4.433   3.150   8.304  0.0260 -0.9562  1.1001
   68SAPC  H19S 5771   4.585   3.214   8.233  0.6836 -0.7336  1.0172
   68SAPC  C220 5772   4.608   3.018   8.329  0.0792  0.2414  0.6455
   68SAPC  H20R 5773   4.560   2.920   8.312  0.0297  0.6684 -2.0795
   68SAPC  H20S 5774   4.612   3.036   8.439 -3.9058 -0.2473  1.0357
   68SAPC  H20T 5775   4.701   3.010   8.269 -0.8989 -2.3177 -0.6666
   68SAPC   C33 5776   4.816   3.920   6.359  0.4987  0.1583 -0.0119
   68SAPC   H3X 5777   4.733   3.861   6.403  0.5725 -0.0920 -0.2020
   68SAPC   H3Y 5778   4.775   3.949   6.260  0.0595  0.2425  0.1924
   68SAPC   C34 5779   4.843   4.038   6.453  0.0989  0.5254  0.1486
   68SAPC   H4X 5780   4.916   4.110   6.410 -0.3359 -0.2388 -1.9834
   68SAPC   H4Y 5781   4.897   4.014   6.547  0.2978 -0.0013 -0.0951
   68SAPC   C35 5782   4.710   4.122   6.473 -0.9288 -0.1897 -0.8554
   68SAPC   H5X 5783   4.658   4.118   6.376 -0.3221 -1.6690 -1.1514
   68SAPC   H5Y 5784   4.732   4.221   6.519  1.6648 -1.0221 -0.1415
   68SAPC   C36 5785   4.621   4.048   6.584 -0.1089 -0.3180 -0.5259
   68SAPC   H6X 5786   4.674   4.072   6.679  0.6007  0.8453 -1.1988
   68SAPC   H6Y 5787   4.614   3.938   6.592  1.8637 -0.5296 -1.3245
   68SAPC   C37 5788   4.474   4.105   6.592 -0.5720  0.2952  0.1409
   68SAPC   H7X 5789   4.413   4.059   6.512  0.3839  1.3091 -1.2134
   68SAPC   H7Y 5790   4.473   4.212   6.561 -2.0598  0.9644  2.2271
   68SAPC   C38 5791   4.408   4.089   6.723 -0.2310  0.7604 -0.0409
   68SAPC   H8X 5792   4.380   3.982   6.733 -0.3325  0.7011 -0.8515
   68SAPC   H8Y 5793   4.310   4.142   6.719  0.2261  1.5605 -1.3507
   68SAPC   C39 5794   4.476   4.129   6.864  0.6341  0.3169  0.9764
   68SAPC   H9X 5795   4.468   4.240   6.868 -0.2171  0.3536 -0.8642
   68SAPC   H9Y 5796   4.582   4.098   6.871  0.3797 -0.3088  2.6525
   68SAPC  C310 5797   4.401   4.088   6.997  0.0866  0.4829  0.7822
   68SAPC  H10X 5798   4.373   3.981   7.002 -0.3289  0.4025 -1.9618
   68SAPC  H10Y 5799   4.303   4.139   6.983 -0.2059 -0.5036 -0.9974
   68SAPC  C311 5800   4.464   4.132   7.125  0.3106  0.3194  0.6710
   68SAPC  H11X 5801   4.469   4.243   7.119 -2.0860  0.3999 -0.7029
   68SAPC  H11Y 5802   4.564   4.084   7.128  0.5203  0.1030 -3.6579
   68SAPC  C312 5803   4.381   4.093   7.247  0.0252  0.2996 -0.2026
   68SAPC  H12X 5804   4.443   4.016   7.297  1.6040  0.5177 -1.7301
   68SAPC  H12Y 5805   4.291   4.043   7.206 -2.1128  1.2575  2.9586
   68SAPC  C313 5806   4.329   4.217   7.334 -0.6023 -0.4924  0.0982
   68SAPC  H13X 5807   4.256   4.270   7.269 -1.2516  0.0687  1.2531
   68SAPC  H13Y 5808   4.415   4.285   7.350 -1.6708  1.0611 -0.4828
   68SAPC  C314 5809   4.265   4.167   7.464  0.0478 -0.5689 -0.5227
   68SAPC  H14X 5810   4.185   4.096   7.434 -0.9273  1.3398 -2.6686
   68SAPC  H14Y 5811   4.207   4.246   7.515  1.4513 -0.5022  1.0797
   68SAPC  C315 5812   4.379   4.103   7.552  0.1072  0.1927 -0.2013
   68SAPC  H15X 5813   4.400   4.005   7.503  2.6506  0.9671 -0.7960
   68SAPC  H15Y 5814   4.343   4.078   7.654  1.1586 -0.5798 -0.0077
   68SAPC  C316 5815   4.506   4.185   7.562  0.7948 -0.2515 -0.1684
   68SAPC  H16X 5816   4.480   4.289   7.532 -1.9310 -0.5167  1.0139
   68SAPC  H16Y 5817   4.588   4.138   7.503 -1.1104 -1.9565 -1.5913
   68SAPC  C317 5818   4.559   4.206   7.706 -0.1533  0.8603  0.7863
   68SAPC  H17X 5819   4.586   4.108   7.749 -1.9783  0.7313  1.7335
   68SAPC  H17Y 5820   4.484   4.245   7.778 -3.4319  0.1445 -2.0089
   68SAPC  C318 5821   4.684   4.299   7.698  1.6915  0.0556 -0.9387
   68SAPC  H18X 5822   4.763   4.266   7.626  0.5047 -0.5921 -1.9938
   68SAPC  H18Y 5823   4.725   4.326   7.797  0.6998  1.3096 -0.8527
   68SAPC  H18Z 5824   4.640   4.392   7.656 -2.4637 -0.6351  1.4372
   69SLPC     N 5825   2.323   1.532  11.015  0.3301 -0.6502  0.4374
   69SLPC   C13 5826   2.448   1.614  11.050 -0.0046  0.1882  0.2205
   69SLPC  H13A 5827   2.530   1.590  10.985  1.1029 -1.9329  2.2472
   69SLPC  H13B 5828   2.418   1.718  11.053 -1.6254 -0.1458 -1.7772
   69SLPC  H13C 5829   2.479   1.595  11.151  1.1261  2.8541  0.4704
   69SLPC   C14 5830   2.298   1.579  10.876 -0.2957  0.2914  0.5111
   69SLPC  H14A 5831   2.349   1.524  10.799 -0.0063  3.2236 -1.5834
   69SLPC  H14B 5832   2.194   1.575  10.846 -0.1708  1.8761 -0.2673
   69SLPC  H14C 5833   2.329   1.682  10.869  0.6587 -0.0179  0.0713
   69SLPC   C15 5834   2.212   1.567  11.107 -0.5347 -0.3458 -0.7854
   69SLPC  H15A 5835   2.134   1.500  11.077  2.0772 -3.1915 -1.7895
   69SLPC  H15B 5836   2.246   1.548  11.208  1.5932 -1.0417 -1.5742
   69SLPC  H15C 5837   2.185   1.672  11.100  1.6389  0.3790  0.6805
   69SLPC   C12 5838   2.352   1.379  11.011  0.0040 -0.2028  0.4984
   69SLPC  H12A 5839   2.424   1.371  10.932 -0.5752 -2.1358  0.1081
   69SLPC  H12B 5840   2.266   1.317  10.990  1.4789 -2.1503 -0.0511
   69SLPC   C11 5841   2.432   1.312  11.135  0.3866  0.2201  0.3762
   69SLPC  H11A 5842   2.444   1.205  11.105  0.5744  0.5545 -0.8202
   69SLPC  H11B 5843   2.370   1.325  11.226 -0.3518  0.4583 -0.1506
   69SLPC     P 5844   2.680   1.346  11.052 -0.1087  0.1541 -0.3025
   69SLPC   O13 5845   2.773   1.461  11.059 -0.5415 -0.0971 -0.3257
   69SLPC   O14 5846   2.740   1.217  11.078  0.3393  0.4652  0.1966
   69SLPC   O12 5847   2.559   1.364  11.154  0.2181  0.9768 -0.3130
   69SLPC   O11 5848   2.611   1.331  10.908  0.2857 -0.3730  0.3049
   69SLPC    C1 5849   2.639   1.238  10.806 -0.3112  0.4450  0.9784
   69SLPC    HA 5850   2.629   1.137  10.851 -0.6753  0.0714  0.0707
   69SLPC    HB 5851   2.571   1.241  10.718  1.4724  1.0068 -0.4422
   69SLPC    C2 5852   2.779   1.246  10.748  0.0079  0.2447 -0.6942
   69SLPC    HS 5853   2.847   1.256  10.835  2.0613  2.3351 -2.4013
   69SLPC   O21 5854   2.788   1.372  10.674 -0.6152 -0.1815 -0.2737
   69SLPC   C21 5855   2.897   1.403  10.606 -0.6299 -0.5349 -0.3269
   69SLPC   O22 5856   2.998   1.336  10.595  0.3572  0.4767  0.0858
   69SLPC   C22 5857   2.876   1.533  10.532  0.5070  0.0470 -0.2226
   69SLPC   H2R 5858   2.782   1.526  10.473  0.1531 -3.8546  0.5210
   69SLPC   H2S 5859   2.871   1.615  10.607  1.2959  1.4968 -1.6897
   69SLPC    C3 5860   2.813   1.114  10.659  0.0536  0.5486 -0.3868
   69SLPC    HX 5861   2.776   1.023  10.712  1.9034 -0.4767 -0.7586
   69SLPC    HY 5862   2.923   1.104  10.665 -0.0456 -0.1834  0.6613
   69SLPC   O31 5863   2.759   1.136  10.528 -0.4532 -0.5758 -0.2571
   69SLPC   C31 5864   2.658   1.056  10.490 -0.3617  0.0060  0.3365
   69SLPC   O32 5865   2.607   0.973  10.554  0.3438  0.6283 -0.2802
   69SLPC   C32 5866   2.624   1.085  10.341 -0.7845 -0.7061 -0.0471
   69SLPC   H2X 5867   2.546   1.010  10.315 -0.4931 -0.9340 -0.2605
   69SLPC   H2Y 5868   2.717   1.078  10.281 -0.1486  1.0028  0.6649
   69SLPC   C23 5869   2.985   1.573  10.420 -0.0251  0.1388  0.0823
   69SLPC   H3R 5870   3.090   1.592  10.449  0.2329  0.6191 -1.0782
   69SLPC   H3S 5871   2.959   1.672  10.376  4.1694  1.4112  0.0734
   69SLPC   C24 5872   2.981   1.479  10.298  0.7896 -0.0234  0.2847
   69SLPC   H4R 5873   2.879   1.490  10.255  1.1705  2.5366 -0.1743
   69SLPC   H4S 5874   2.996   1.374  10.329  2.0084 -0.4200 -1.4489
   69SLPC   C25 5875   3.080   1.509  10.187  0.5834 -0.0230 -0.6263
   69SLPC   H5R 5876   3.178   1.537  10.230 -0.0779  4.3527 -1.5404
   69SLPC   H5S 5877   3.042   1.598  10.133 -0.1590 -0.2940 -0.5597
   69SLPC   C26 5878   3.089   1.391  10.084  0.4713  0.3445 -1.3980
   69SLPC   H6R 5879   3.065   1.288  10.116 -0.4610  0.6023 -1.2235
   69SLPC   H6S 5880   3.199   1.390  10.067  0.9936 -1.6823  1.3473
   69SLPC   C27 5881   3.033   1.418   9.946  0.6057 -0.3337 -0.0458
   69SLPC   H7R 5882   3.071   1.505   9.888  0.8316 -2.5429 -3.5048
   69SLPC   H7S 5883   2.923   1.434   9.951  0.7975  1.2931 -0.5464
   69SLPC   C28 5884   3.042   1.285   9.856 -0.6456  0.0496 -0.6005
   69SLPC   H8R 5885   2.997   1.292   9.755  0.9560 -1.8465 -1.5212
   69SLPC   H8S 5886   2.987   1.205   9.911  0.7761  0.2363  1.1769
   69SLPC   C29 5887   3.185   1.241   9.836  0.7743  0.1369  0.2598
   69SLPC   H9R 5888   3.235   1.197   9.923  0.5240 -2.9232 -1.0257
   69SLPC  C210 5889   3.251   1.242   9.717  0.5079 -0.0752 -0.0116
   69SLPC  H10R 5890   3.350   1.197   9.728 -0.1708 -1.1989  1.8433
   69SLPC  C211 5891   3.201   1.294   9.586 -0.3118  0.4304  0.3728
   69SLPC  H11R 5892   3.277   1.364   9.547  0.0665 -0.7961 -1.2228
   69SLPC  H11S 5893   3.110   1.358   9.586  0.1929  1.2737 -2.3371
   69SLPC  C212 5894   3.174   1.186   9.477 -0.3286 -0.4809 -0.2405
   69SLPC  H12R 5895   3.163   1.084   9.516 -0.1212 -0.5335 -0.3220
   69SLPC  C213 5896   3.178   1.210   9.346  0.3037  0.7475 -0.3600
   69SLPC  H13R 5897   3.167   1.128   9.274  1.1463  1.7785 -1.7213
   69SLPC  C214 5898   3.204   1.336   9.277 -0.1297  0.0322 -0.1633
   69SLPC  H14R 5899   3.312   1.330   9.250  0.3229 -0.4744  1.5902
   69SLPC  H14S 5900   3.177   1.423   9.340  1.4922 -1.2122  2.4647
   69SLPC  C215 5901   3.129   1.335   9.145 -0.1742 -0.1483 -0.4207
   69SLPC  H15R 5902   3.019   1.339   9.158 -0.6118 -3.4676 -2.1749
   69SLPC  H15S 5903   3.136   1.237   9.094  0.1622  0.0323 -0.7334
   69SLPC  C216 5904   3.191   1.440   9.053 -0.8277 -0.6990  0.2776
   69SLPC  H16R 5905   3.290   1.415   9.009 -0.8111 -0.0455 -0.0619
   69SLPC  H16S 5906   3.193   1.531   9.116  0.9456  0.9185 -1.9392
   69SLPC  C217 5907   3.107   1.487   8.934 -0.1032  0.2637  0.3028
   69SLPC  H17R 5908   3.154   1.574   8.883  0.1532 -0.9778 -1.7059
   69SLPC  H17S 5909   3.010   1.522   8.974  0.1689 -1.1153  2.3314
   69SLPC  C218 5910   3.079   1.383   8.823  0.1180  0.0512 -0.1185
   69SLPC  H18R 5911   3.165   1.390   8.753  0.2334 -0.3332 -0.0159
   69SLPC  H18S 5912   2.996   1.425   8.762  0.9824  2.9880  0.5379
   69SLPC  H18T 5913   3.067   1.277   8.853 -1.3636 -1.5500 -5.3247
   69SLPC   C33 5914   2.570   1.231  10.342 -0.1803  0.1154  0.8256
   69SLPC   H3X 5915   2.652   1.293  10.384  3.0022 -2.8001 -0.5361
   69SLPC   H3Y 5916   2.485   1.237  10.412 -1.0523  0.7066 -0.2453
   69SLPC   C34 5917   2.527   1.267  10.200 -1.0822  0.5953 -0.5254
   69SLPC   H4X 5918   2.480   1.368  10.206 -2.4661 -0.0281 -0.6720
   69SLPC   H4Y 5919   2.440   1.200  10.189 -0.8121 -0.3341  2.1029
   69SLPC   C35 5920   2.641   1.260  10.094 -0.0994 -0.0733 -0.2401
   69SLPC   H5X 5921   2.681   1.160  10.067 -0.9927 -1.0087  1.7263
   69SLPC   H5Y 5922   2.733   1.309  10.132  0.0780 -0.2282 -0.4669
   69SLPC   C36 5923   2.591   1.317   9.961  0.0315 -0.3925 -0.1184
   69SLPC   H6X 5924   2.586   1.428   9.963  3.8690 -0.0646 -1.3537
   69SLPC   H6Y 5925   2.489   1.276   9.947 -0.4662  1.2013 -1.5085
   69SLPC   C37 5926   2.665   1.270   9.833 -0.1315  0.1996 -0.1362
   69SLPC   H7X 5927   2.651   1.160   9.819  1.9626 -0.5463  2.7033
   69SLPC   H7Y 5928   2.773   1.291   9.850 -0.5679  2.0074  0.5749
   69SLPC   C38 5929   2.613   1.336   9.705  0.3042  0.5779  0.7117
   69SLPC   H8X 5930   2.613   1.443   9.734  0.4825  0.4917  1.0406
   69SLPC   H8Y 5931   2.509   1.299   9.695  0.2108  0.9912  0.1292
   69SLPC   C39 5932   2.703   1.308   9.581  0.0644 -0.4212 -0.4384
   69SLPC   H9X 5933   2.708   1.197   9.572 -0.1955 -0.5241  0.5881
   69SLPC   H9Y 5934   2.806   1.340   9.608 -0.2763  0.3154 -0.0022
   69SLPC  C310 5935   2.662   1.365   9.441  0.2629 -0.1943 -0.6692
   69SLPC  H10X 5936   2.610   1.463   9.448  1.1068  0.3077 -1.2209
   69SLPC  H10Y 5937   2.589   1.293   9.399 -0.9275 -0.6014  1.9027
   69SLPC  C311 5938   2.778   1.390   9.346 -1.1720  0.0598  0.6801
   69SLPC  H11X 5939   2.836   1.297   9.328 -1.2285 -0.0592  1.0978
   69SLPC  H11Y 5940   2.852   1.454   9.398 -0.1871 -0.5057  0.0049
   69SLPC  C312 5941   2.743   1.475   9.226  0.0495  0.1499  0.1487
   69SLPC  H12X 5942   2.838   1.472   9.168  0.7901 -1.4197  1.3704
   69SLPC  H12Y 5943   2.735   1.584   9.244  0.3414  0.4022 -1.1508
   69SLPC  C313 5944   2.636   1.422   9.136 -0.1308  0.1823 -0.7824
   69SLPC  H13X 5945   2.546   1.393   9.194  0.5051  0.5233  0.4180
   69SLPC  H13Y 5946   2.678   1.336   9.079  1.0352  0.7918 -0.8726
   69SLPC  C314 5947   2.595   1.535   9.044  0.3842  0.3330  0.1486
   69SLPC  H14X 5948   2.683   1.570   8.986  1.9632 -0.5874  1.8992
   69SLPC  H14Y 5949   2.550   1.613   9.108 -2.3645 -0.3538 -0.7978
   69SLPC  C315 5950   2.486   1.496   8.934 -0.2793  0.2990  0.0464
   69SLPC  H15X 5951   2.405   1.450   8.995  0.1833  0.1176  0.5345
   69SLPC  H15Y 5952   2.533   1.423   8.865  1.7492  1.6810 -0.1024
   69SLPC  C316 5953   2.453   1.631   8.862 -0.1130  0.4566  0.0150
   69SLPC  H16X 5954   2.476   1.723   8.920  2.0957  0.2816 -0.4595
   69SLPC  H16Y 5955   2.345   1.618   8.839  0.1310 -1.4614 -0.2051
   69SLPC  C317 5956   2.526   1.639   8.728 -0.2923  0.4355 -1.1479
   69SLPC  H17X 5957   2.510   1.551   8.662  0.6704 -0.6001 -0.0268
   69SLPC  H17Y 5958   2.633   1.652   8.756  0.2026 -1.4669 -2.0227
   69SLPC  C318 5959   2.486   1.763   8.655  0.2515  0.0387  0.3678
   69SLPC  H18X 5960   2.507   1.853   8.716  2.1445  0.3555 -0.6880
   69SLPC  H18Y 5961   2.378   1.755   8.629  0.5522  0.2094 -1.0203
   69SLPC  H18Z 5962   2.546   1.787   8.565  0.0766  1.0359  0.5095
   70SLPC     N 5963   3.217   5.605  11.157 -0.8409  0.0848  0.2357
   70SLPC   C13 5964   3.232   5.646  11.298 -0.2314 -0.0220  0.1545
   70SLPC  H13A 5965   3.141   5.666  11.353 -0.4683  3.5446 -1.2932
   70SLPC  H13B 5966   3.281   5.568  11.355 -0.8367 -2.1277 -2.0653
   70SLPC  H13C 5967   3.300   5.728  11.317  0.5335  0.0177 -2.4388
   70SLPC   C14 5968   3.127   5.480  11.145  0.2697 -0.4101  0.1949
   70SLPC  H14A 5969   3.123   5.444  11.043  1.0395  0.4640 -0.1654
   70SLPC  H14B 5970   3.161   5.395  11.202 -0.8051 -0.4919  0.7321
   70SLPC  H14C 5971   3.035   5.510  11.193  0.6145  2.0864 -0.5387
   70SLPC   C15 5972   3.359   5.572  11.107 -0.3691 -0.4141  0.5551
   70SLPC  H15A 5973   3.357   5.532  11.006 -0.4534  0.2495  0.2868
   70SLPC  H15B 5974   3.433   5.650  11.106  0.7212 -1.3834 -1.6893
   70SLPC  H15C 5975   3.395   5.485  11.159 -0.5093 -1.6554 -1.3131
   70SLPC   C12 5976   3.163   5.725  11.078  0.6873 -0.0955 -0.3161
   70SLPC  H12A 5977   3.158   5.698  10.973 -2.8963 -1.4106  0.0385
   70SLPC  H12B 5978   3.239   5.800  11.087  1.5352 -1.0919  1.2118
   70SLPC   C11 5979   3.024   5.776  11.117  0.0143  0.0280  0.2520
   70SLPC  H11A 5980   3.014   5.878  11.074  0.5463 -0.0047  0.0421
   70SLPC  H11B 5981   3.009   5.795  11.226 -2.4246  2.5576 -0.4074
   70SLPC     P 5982   2.908   5.666  10.916  0.2136  0.1285  0.0671
   70SLPC   O13 5983   3.011   5.562  10.885 -0.2311 -0.1912 -0.5285
   70SLPC   O14 5984   2.772   5.631  10.866 -0.1312  0.0422  0.0062
   70SLPC   O12 5985   2.918   5.691  11.072  0.0472 -0.1766  0.0912
   70SLPC   O11 5986   2.953   5.810  10.858 -0.1316  0.3965 -0.1352
   70SLPC    C1 5987   3.032   5.818  10.736 -0.2324 -0.0129  0.4752
   70SLPC    HA 5988   3.088   5.914  10.730  0.5691 -0.5152 -0.4749
   70SLPC    HB 5989   3.099   5.731  10.716 -1.2690 -0.2004 -2.7050
   70SLPC    C2 5990   2.930   5.833  10.611 -1.0475 -0.2302 -0.6081
   70SLPC    HS 5991   2.861   5.748  10.597 -1.3703 -0.3479  1.4027
   70SLPC   O21 5992   3.016   5.857  10.498  0.0845  0.1161 -0.0605
   70SLPC   C21 5993   3.080   5.754  10.455 -0.4571  0.3816  0.0560
   70SLPC   O22 5994   3.094   5.644  10.503 -0.2701 -0.2363 -0.1765
   70SLPC   C22 5995   3.153   5.807  10.334 -0.1493  0.3852 -0.2962
   70SLPC   H2R 5996   3.173   5.915  10.354  1.7782 -0.1226  0.7467
   70SLPC   H2S 5997   3.247   5.750  10.320 -1.2256 -1.3926 -0.5639
   70SLPC    C3 5998   2.831   5.948  10.636 -0.4221 -0.0857 -0.6338
   70SLPC    HX 5999   2.887   6.042  10.657  1.0107 -0.9771 -0.3541
   70SLPC    HY 6000   2.768   5.931  10.725 -1.9758  2.1873 -1.1908
   70SLPC   O31 6001   2.732   5.964  10.532 -0.2394 -0.5291  0.0983
   70SLPC   C31 6002   2.770   6.023  10.424  0.5797  0.2221  0.7509
   70SLPC   O32 6003   2.875   6.086  10.401  0.1187  0.2059 -0.2096
   70SLPC   C32 6004   2.669   5.986  10.312 -0.4350  0.1888  0.0874
   70SLPC   H2X 6005   2.572   6.040  10.320 -0.4061  0.5339 -1.5076
   70SLPC   H2Y 6006   2.652   5.877  10.323  1.2955  0.1207  3.0088
   70SLPC   C23 6007   3.059   5.798  10.214  0.5250  0.1927  0.4515
   70SLPC   H3R 6008   2.975   5.865  10.244  0.5024  1.0123 -1.3397
   70SLPC   H3S 6009   3.021   5.694  10.210  3.6326 -1.1655  2.0731
   70SLPC   C24 6010   3.115   5.851  10.078  0.3479 -0.1659  0.3517
   70SLPC   H4R 6011   3.219   5.812  10.074  0.5179  0.1245  1.5561
   70SLPC   H4S 6012   3.116   5.962  10.073  0.9860 -0.2089 -1.4219
   70SLPC   C25 6013   3.030   5.793   9.960 -0.6266  0.1498 -0.0130
   70SLPC   H5R 6014   2.925   5.822   9.983  0.2069  1.5143  2.5739
   70SLPC   H5S 6015   3.025   5.682   9.961 -0.1640  0.0976 -1.3680
   70SLPC   C26 6016   3.081   5.833   9.822  0.5345 -0.5964 -0.5296
   70SLPC   H6R 6017   3.186   5.799   9.812  0.2550 -2.3876  1.8013
   70SLPC   H6S 6018   3.062   5.940   9.798  1.7334 -0.4398 -0.8488
   70SLPC   C27 6019   2.993   5.748   9.721 -0.1165 -0.6979  0.0201
   70SLPC   H7R 6020   2.885   5.759   9.747  0.3504  4.7513  0.8919
   70SLPC   H7S 6021   3.009   5.643   9.753 -0.4055 -0.2846  1.6569
   70SLPC   C28 6022   3.021   5.776   9.571 -0.7257 -0.3154  0.0818
   70SLPC   H8R 6023   2.977   5.694   9.509 -1.6083 -0.5907  1.0415
   70SLPC   H8S 6024   3.127   5.747   9.558 -1.1278 -2.2232  0.6352
   70SLPC   C29 6025   2.973   5.900   9.517  0.4665  0.0767  0.9380
   70SLPC   H9R 6026   2.898   5.945   9.583 -0.7196  1.4235 -1.2090
   70SLPC  C210 6027   3.008   5.958   9.402 -0.3989  0.0579 -0.7239
   70SLPC  H10R 6028   2.957   6.050   9.368 -1.0210  0.3707  0.9729
   70SLPC  C211 6029   3.110   5.904   9.304 -0.6921 -0.4200  0.4331
   70SLPC  H11R 6030   3.065   5.897   9.203  0.9923  2.1396 -0.5900
   70SLPC  H11S 6031   3.142   5.805   9.344  0.6666  0.8976  2.8611
   70SLPC  C212 6032   3.232   5.986   9.293 -0.1616 -0.5377  0.2104
   70SLPC  H12R 6033   3.316   5.965   9.361  1.7910  1.6818 -1.3346
   70SLPC  C213 6034   3.248   6.076   9.195 -0.2778 -0.5516  0.6855
   70SLPC  H13R 6035   3.344   6.130   9.185 -0.5377  0.2089  2.0111
   70SLPC  C214 6036   3.151   6.103   9.086 -0.0017 -0.6103  0.3248
   70SLPC  H14R 6037   3.050   6.135   9.121  0.7939  1.1945  1.0653
   70SLPC  H14S 6038   3.140   6.014   9.019  1.1186  0.2564 -1.0457
   70SLPC  C215 6039   3.195   6.211   8.980  0.3587  0.3900  0.2299
   70SLPC  H15R 6040   3.287   6.176   8.928  1.7867  1.7886  1.6856
   70SLPC  H15S 6041   3.211   6.307   9.034 -0.2671  0.3143  0.5670
   70SLPC  C216 6042   3.095   6.243   8.865  0.5441  0.3160 -0.7242
   70SLPC  H16R 6043   3.089   6.155   8.798 -0.5185  0.8279 -1.3377
   70SLPC  H16S 6044   3.145   6.323   8.805  1.5660 -0.0752 -0.4122
   70SLPC  C217 6045   2.962   6.290   8.909  0.0068  0.2805 -0.1224
   70SLPC  H17R 6046   2.965   6.364   8.991  2.6328 -0.4318  0.5252
   70SLPC  H17S 6047   2.902   6.206   8.950 -0.9459  1.7861  1.7015
   70SLPC  C218 6048   2.875   6.348   8.795 -0.5930  0.4216 -0.2125
   70SLPC  H18R 6049   2.784   6.402   8.827 -0.6593  0.0997  0.1408
   70SLPC  H18S 6050   2.866   6.263   8.724  0.3203 -0.6693  0.9384
   70SLPC  H18T 6051   2.943   6.422   8.747  1.9748 -0.3307  2.0064
   70SLPC   C33 6052   2.718   6.022  10.167 -0.0921  0.7677  0.4069
   70SLPC   H3X 6053   2.803   5.957  10.140 -0.4228  0.9359 -1.0908
   70SLPC   H3Y 6054   2.751   6.128  10.169  0.1065  0.7438 -0.8511
   70SLPC   C34 6055   2.603   6.006  10.068 -0.9494  0.5351 -0.0006
   70SLPC   H4X 6056   2.517   6.075  10.085  0.3877  2.0963  0.7570
   70SLPC   H4Y 6057   2.572   5.901  10.087  2.8828 -0.5870  0.9453
   70SLPC   C35 6058   2.655   6.021   9.922  0.4302  0.2721  0.3040
   70SLPC   H5X 6059   2.746   5.958   9.908  0.7164  0.3258  1.7404
   70SLPC   H5Y 6060   2.683   6.126   9.899  0.8977 -0.1333 -1.1318
   70SLPC   C36 6061   2.555   5.980   9.817  0.4316 -0.0836 -0.1742
   70SLPC   H6X 6062   2.472   6.054   9.808  0.7127  0.1648 -0.8069
   70SLPC   H6Y 6063   2.491   5.891   9.835 -2.4342  1.8804 -0.0263
   70SLPC   C37 6064   2.629   5.957   9.686  0.0312 -0.8906 -0.8147
   70SLPC   H7X 6065   2.666   5.853   9.699 -0.1033 -1.0746 -1.8219
   70SLPC   H7Y 6066   2.716   6.024   9.667  0.3370 -1.1516 -0.3674
   70SLPC   C38 6067   2.540   5.956   9.572 -0.0209 -0.2124 -0.6547
   70SLPC   H8X 6068   2.481   6.050   9.564 -2.2105 -1.3109  1.4447
   70SLPC   H8Y 6069   2.460   5.880   9.587  1.2039 -1.4392 -0.1008
   70SLPC   C39 6070   2.616   5.929   9.445  0.5264  0.4313  0.6794
   70SLPC   H9X 6071   2.666   5.830   9.439  1.7689  1.1116 -0.8621
   70SLPC   H9Y 6072   2.698   6.004   9.448  0.1638  0.9684 -1.4571
   70SLPC  C310 6073   2.525   5.945   9.327 -0.4114  0.3126 -0.3947
   70SLPC  H10X 6074   2.467   6.038   9.341 -0.6376  0.3014 -1.2002
   70SLPC  H10Y 6075   2.476   5.845   9.328  1.9340 -0.9392 -1.6429
   70SLPC  C311 6076   2.603   5.966   9.198 -0.2474  0.1454 -0.3578
   70SLPC  H11X 6077   2.668   5.881   9.169  0.3917  0.2763  0.6397
   70SLPC  H11Y 6078   2.673   6.052   9.205  0.5730 -0.6330  1.3656
   70SLPC  C312 6079   2.511   5.989   9.083  0.4811  0.6881  0.0620
   70SLPC  H12X 6080   2.434   6.064   9.111 -0.5341  0.1189 -1.1145
   70SLPC  H12Y 6081   2.463   5.904   9.029  1.7262  0.7784 -1.2634
   70SLPC  C313 6082   2.585   6.064   8.971  0.7822  0.1132 -0.4238
   70SLPC  H13X 6083   2.673   5.998   8.956  2.1847  1.5398  1.1165
   70SLPC  H13Y 6084   2.623   6.165   8.999 -0.1948  0.5525 -0.6454
   70SLPC  C314 6085   2.513   6.053   8.833 -0.3709 -1.1827 -0.6779
   70SLPC  H14X 6086   2.431   6.128   8.831  0.8548  0.2573 -4.0850
   70SLPC  H14Y 6087   2.479   5.947   8.824  2.3900 -2.4865  2.2043
   70SLPC  C315 6088   2.606   6.097   8.716  0.0832 -0.2378 -0.6437
   70SLPC  H15X 6089   2.633   6.203   8.739 -0.3507  0.5698 -3.4452
   70SLPC  H15Y 6090   2.541   6.091   8.626 -1.4426  2.6835  0.1427
   70SLPC  C316 6091   2.725   6.005   8.683 -0.0124 -0.5666  0.4524
   70SLPC  H16X 6092   2.698   5.898   8.695 -0.6534 -0.4216  0.3631
   70SLPC  H16Y 6093   2.816   6.038   8.737  0.1243 -1.4912  0.8006
   70SLPC  C317 6094   2.756   6.022   8.529 -0.6684 -0.1438 -0.4518
   70SLPC  H17X 6095   2.777   6.131   8.527  0.2531 -0.2676  0.8045
   70SLPC  H17Y 6096   2.662   6.012   8.471  0.4019  0.3560 -2.3762
   70SLPC  C318 6097   2.863   5.928   8.466 -0.5786  0.0879 -0.3854
   70SLPC  H18X 6098   2.962   5.940   8.514 -0.4425 -0.8697 -0.4090
   70SLPC  H18Y 6099   2.883   5.954   8.360  1.4508 -2.1755 -0.6098
   70SLPC  H18Z 6100   2.836   5.821   8.475 -0.1166 -0.1011 -1.1258
   71SLPC     N 6101   2.218   4.341  10.907 -0.2789  0.3378 -0.1017
   71SLPC   C13 6102   2.196   4.452  11.004  0.1820  0.4175  0.0733
   71SLPC  H13A 6103   2.251   4.446  11.097  0.0882 -0.6074  0.0803
   71SLPC  H13B 6104   2.227   4.547  10.965 -1.3596  0.3135 -1.4976
   71SLPC  H13C 6105   2.089   4.468  11.005  0.1714  0.7035 -2.0976
   71SLPC   C14 6106   2.122   4.365  10.792 -0.3827  0.0238  0.8172
   71SLPC  H14A 6107   2.133   4.284  10.721  0.2495  0.4198  0.4492
   71SLPC  H14B 6108   2.017   4.354  10.811 -0.8169 -1.4117 -1.8245
   71SLPC  H14C 6109   2.148   4.454  10.736 -3.1980  1.1505  1.1250
   71SLPC   C15 6110   2.175   4.206  10.965 -0.5994  0.8606 -0.0015
   71SLPC  H15A 6111   2.187   4.124  10.896  0.8640  3.1480 -2.6894
   71SLPC  H15B 6112   2.241   4.185  11.047  0.8767 -0.3732 -1.4370
   71SLPC  H15C 6113   2.074   4.210  11.004 -0.0421 -0.2828  1.6648
   71SLPC   C12 6114   2.367   4.336  10.868  1.3026 -0.3834  0.0897
   71SLPC  H12A 6115   2.369   4.271  10.782 -0.5917 -1.0958  0.5314
   71SLPC  H12B 6116   2.424   4.292  10.949  1.7649 -0.6938 -0.3999
   71SLPC   C11 6117   2.431   4.469  10.837  0.0259 -0.3331 -0.3548
   71SLPC  H11A 6118   2.420   4.543  10.919 -1.2721 -0.8948 -0.0060
   71SLPC  H11B 6119   2.392   4.497  10.737 -0.0540 -2.5524 -1.0101
   71SLPC     P 6120   2.646   4.372  10.721 -0.2692 -0.2233  0.2615
   71SLPC   O13 6121   2.786   4.413  10.701  0.2552  0.1588  0.5416
   71SLPC   O14 6122   2.628   4.228  10.747 -0.2036  0.1771  0.3258
   71SLPC   O12 6123   2.570   4.457  10.821 -0.8265  0.7594 -0.0249
   71SLPC   O11 6124   2.574   4.401  10.588 -0.3822  0.3356 -0.6289
   71SLPC    C1 6125   2.587   4.522  10.519 -0.0779 -0.4043  0.0520
   71SLPC    HA 6126   2.486   4.568  10.516  1.7098  4.0631 -2.3853
   71SLPC    HB 6127   2.647   4.598  10.573 -0.6437 -1.3639  2.1324
   71SLPC    C2 6128   2.623   4.495  10.373  0.6297 -0.0814 -0.6108
   71SLPC    HS 6129   2.656   4.587  10.320 -1.0380  0.8475 -0.1203
   71SLPC   O21 6130   2.514   4.436  10.302 -0.0787  0.2714  0.7119
   71SLPC   C21 6131   2.417   4.521  10.265 -0.1979 -0.1040 -0.0158
   71SLPC   O22 6132   2.408   4.640  10.291 -0.0804  0.3845 -0.1819
   71SLPC   C22 6133   2.321   4.450  10.173  0.2935 -0.1225 -0.4402
   71SLPC   H2R 6134   2.268   4.370  10.229 -0.7955  1.1929  0.4756
   71SLPC   H2S 6135   2.246   4.522  10.134 -0.8076 -1.7701 -1.4750
   71SLPC    C3 6136   2.741   4.394  10.358 -0.1449 -0.2068  0.3997
   71SLPC    HX 6137   2.725   4.306  10.424  0.0471 -0.6607 -0.1561
   71SLPC    HY 6138   2.832   4.453  10.383 -1.5545  1.1824  2.6412
   71SLPC   O31 6139   2.758   4.372  10.220  0.1488 -0.2383  0.0993
   71SLPC   C31 6140   2.841   4.272  10.197  0.1605 -0.0078 -0.3275
   71SLPC   O32 6141   2.889   4.197  10.278 -0.2957  0.2438 -0.3175
   71SLPC   C32 6142   2.870   4.265  10.049 -0.4955 -0.7196  0.3671
   71SLPC   H2X 6143   2.959   4.328  10.025 -1.6494  1.0936  0.5961
   71SLPC   H2Y 6144   2.781   4.302   9.994 -0.5731  0.4772  1.2513
   71SLPC   C23 6145   2.396   4.391  10.048 -0.4008  0.0115  0.0483
   71SLPC   H3R 6146   2.317   4.321  10.015  0.0340 -1.8006  2.5460
   71SLPC   H3S 6147   2.493   4.339  10.065 -0.7570 -0.0592  2.1180
   71SLPC   C24 6148   2.409   4.485   9.924 -0.7517  0.2340  0.1669
   71SLPC   H4R 6149   2.471   4.575   9.945 -1.4328  0.5177  1.0445
   71SLPC   H4S 6150   2.309   4.530   9.906 -1.0254 -0.6547 -0.6319
   71SLPC   C25 6151   2.459   4.406   9.803 -0.8432 -0.0705 -0.0293
   71SLPC   H5R 6152   2.416   4.303   9.807 -0.1484 -0.3216  1.5571
   71SLPC   H5S 6153   2.563   4.376   9.824 -1.9445 -4.0218  0.6233
   71SLPC   C26 6154   2.440   4.465   9.662 -0.0731 -0.3856 -0.2758
   71SLPC   H6R 6155   2.474   4.571   9.661 -0.6960 -0.1831 -0.4509
   71SLPC   H6S 6156   2.331   4.453   9.643 -0.1988 -1.8468  1.1062
   71SLPC   C27 6157   2.505   4.382   9.549  0.3576 -0.7186 -0.4568
   71SLPC   H7R 6158   2.508   4.274   9.574 -0.1437 -0.6910 -0.2600
   71SLPC   H7S 6159   2.604   4.431   9.536  0.5364 -0.8250  0.4482
   71SLPC   C28 6160   2.422   4.394   9.421 -0.0804 -0.2172 -0.0374
   71SLPC   H8R 6161   2.390   4.499   9.403  2.1904  0.5095 -0.1509
   71SLPC   H8S 6162   2.338   4.324   9.444  0.6701 -1.1652 -0.1137
   71SLPC   C29 6163   2.481   4.339   9.293  0.2927  0.1035  0.0503
   71SLPC   H9R 6164   2.518   4.235   9.297  0.5229  0.1591 -0.4555
   71SLPC  C210 6165   2.487   4.393   9.171  0.5581  0.2823  0.7485
   71SLPC  H10R 6166   2.545   4.339   9.096  0.3629 -1.7755  2.0098
   71SLPC  C211 6167   2.435   4.529   9.136  0.6828 -0.0802 -0.1775
   71SLPC  H11R 6168   2.411   4.587   9.227  0.3606  0.2801 -0.4890
   71SLPC  H11S 6169   2.343   4.528   9.074  1.6544  3.0062 -1.8573
   71SLPC  C212 6170   2.529   4.604   9.047  0.2869  0.1437 -0.2831
   71SLPC  H12R 6171   2.621   4.630   9.101 -1.2403  0.4217  2.3200
   71SLPC  C213 6172   2.513   4.642   8.916 -0.2211  0.0675  0.9123
   71SLPC  H13R 6173   2.599   4.691   8.868 -1.9730  0.2156 -2.3595
   71SLPC  C214 6174   2.397   4.625   8.820 -0.0598  0.2034 -0.3625
   71SLPC  H14R 6175   2.389   4.719   8.762 -0.6681 -0.0094 -0.6355
   71SLPC  H14S 6176   2.297   4.600   8.862 -1.6557  2.1283 -2.7328
   71SLPC  C215 6177   2.421   4.517   8.715 -0.4611 -0.3500 -0.5767
   71SLPC  H15R 6178   2.428   4.419   8.767 -2.7853 -0.1405  0.2194
   71SLPC  H15S 6179   2.517   4.527   8.660 -1.1675  0.5880 -1.6639
   71SLPC  C216 6180   2.303   4.496   8.616 -0.5295  0.2965 -0.3655
   71SLPC  H16R 6181   2.274   4.595   8.574 -2.0086  0.2503  0.4833
   71SLPC  H16S 6182   2.220   4.459   8.679 -0.6450 -0.4322 -0.9268
   71SLPC  C217 6183   2.332   4.387   8.510  0.3927 -0.0449 -0.2361
   71SLPC  H17R 6184   2.237   4.351   8.463  0.1192  0.4808 -0.0926
   71SLPC  H17S 6185   2.391   4.307   8.560  1.6052  0.1798 -1.2481
   71SLPC  C218 6186   2.429   4.438   8.402 -0.4371 -0.4093  0.3271
   71SLPC  H18R 6187   2.411   4.545   8.378  0.4503 -0.5422 -1.0980
   71SLPC  H18S 6188   2.424   4.379   8.308 -0.1185  3.8664 -2.6835
   71SLPC  H18T 6189   2.533   4.435   8.441 -0.6384 -1.7585  0.8118
   71SLPC   C33 6190   2.896   4.120  10.010  0.1283  0.4654  0.4990
   71SLPC   H3X 6191   2.829   4.046  10.059 -1.8103  1.0673 -1.1378
   71SLPC   H3Y 6192   2.998   4.098  10.048  0.6942  1.5272 -0.3500
   71SLPC   C34 6193   2.921   4.086   9.859  0.0311 -0.0062 -0.0282
   71SLPC   H4X 6194   2.985   3.997   9.840  0.6034  0.6985 -1.5526
   71SLPC   H4Y 6195   2.973   4.172   9.813  0.9095 -0.5045  0.0064
   71SLPC   C35 6196   2.794   4.067   9.780 -0.2409 -0.1866  0.4514
   71SLPC   H5X 6197   2.726   4.154   9.796  1.7289  1.9024 -1.7989
   71SLPC   H5Y 6198   2.731   3.987   9.826  0.3287  1.2167  3.9929
   71SLPC   C36 6199   2.828   4.035   9.633 -0.2135 -0.5641 -0.2620
   71SLPC   H6X 6200   2.751   3.964   9.595 -0.1183  0.3990 -2.3998
   71SLPC   H6Y 6201   2.924   3.980   9.624  0.8736  1.3841 -1.1079
   71SLPC   C37 6202   2.838   4.155   9.537  0.0012 -0.0270 -0.4655
   71SLPC   H7X 6203   2.933   4.203   9.568  0.6784 -0.3024 -2.0201
   71SLPC   H7Y 6204   2.752   4.223   9.555  1.0968  1.6379 -1.2688
   71SLPC   C38 6205   2.851   4.110   9.390 -0.0534  0.2010 -0.3085
   71SLPC   H8X 6206   2.757   4.058   9.362 -0.4383 -0.9162  2.6665
   71SLPC   H8Y 6207   2.932   4.034   9.387  0.2837  0.5529 -0.1121
   71SLPC   C39 6208   2.891   4.215   9.283 -0.4680 -0.0430  0.5111
   71SLPC   H9X 6209   3.002   4.215   9.291 -0.5674 -0.1797  2.1564
   71SLPC   H9Y 6210   2.864   4.318   9.313  1.0204  0.5014  0.0810
   71SLPC  C310 6211   2.839   4.182   9.146  0.6273  0.1863 -0.6250
   71SLPC  H10X 6212   2.729   4.186   9.164  0.4424 -1.0417 -1.3390
   71SLPC  H10Y 6213   2.859   4.075   9.123 -0.7760 -0.2703  0.0985
   71SLPC  C311 6214   2.886   4.269   9.023  0.4942  0.1594 -0.0132
   71SLPC  H11X 6215   2.997   4.268   9.012  0.2988 -1.5837 -2.6872
   71SLPC  H11Y 6216   2.865   4.372   9.060  0.2548  0.4608 -0.9769
   71SLPC  C312 6217   2.812   4.251   8.893  0.2195  0.2439 -0.6642
   71SLPC  H12X 6218   2.828   4.347   8.840  0.3707  1.0571  0.8247
   71SLPC  H12Y 6219   2.703   4.233   8.901  0.7042 -3.5323 -0.3817
   71SLPC  C313 6220   2.873   4.139   8.805 -0.4976  0.5465 -0.2161
   71SLPC  H13X 6221   2.973   4.179   8.780  0.8665 -1.3028  1.8805
   71SLPC  H13Y 6222   2.814   4.128   8.712  0.8234 -3.0310 -0.7909
   71SLPC  C314 6223   2.883   4.001   8.864  0.0590 -0.2246 -0.1552
   71SLPC  H14X 6224   2.787   3.945   8.877 -0.1355  0.6049  2.5234
   71SLPC  H14Y 6225   2.947   3.995   8.954  0.1707  1.8489 -0.0693
   71SLPC  C315 6226   2.955   3.912   8.755  0.2691  0.0703 -0.6497
   71SLPC  H15X 6227   3.057   3.953   8.744  1.0643 -1.7042 -0.3621
   71SLPC  H15Y 6228   2.893   3.911   8.662 -0.0780 -0.8664 -0.4239
   71SLPC  C316 6229   2.978   3.764   8.796 -0.6997  1.4216 -0.0442
   71SLPC  H16X 6230   2.889   3.698   8.798  1.4444 -1.6775  0.2770
   71SLPC  H16Y 6231   3.016   3.771   8.901 -0.8411  1.0351  0.0335
   71SLPC  C317 6232   3.081   3.693   8.710 -0.0226  0.3306  0.0366
   71SLPC  H17X 6233   3.174   3.752   8.696  1.3030 -1.8532 -0.9314
   71SLPC  H17Y 6234   3.036   3.687   8.609  0.1970 -0.3524 -0.0235
   71SLPC  C318 6235   3.129   3.566   8.781  0.9727  0.7608 -0.3734
   71SLPC  H18X 6236   3.161   3.581   8.886 -2.1115 -0.9706  0.9777
   71SLPC  H18Y 6237   3.225   3.536   8.735  3.1518  0.5546  3.8549
   71SLPC  H18Z 6238   3.059   3.480   8.769 -0.9720  1.9662  1.6156
   72SLPC     N 6239   4.519   2.623  10.649 -0.2598  0.2759  0.2557
   72SLPC   C13 6240   4.505   2.543  10.528  0.5277 -0.4037  0.0629
   72SLPC  H13A 6241   4.558   2.450  10.541  0.8063 -0.2681 -0.1062
   72SLPC  H13B 6242   4.406   2.503  10.510  0.3685  0.0161 -0.0135
   72SLPC  H13C 6243   4.547   2.595  10.443  0.7265  0.9507  0.9607
   72SLPC   C14 6244   4.653   2.670  10.668  0.6581  0.0274  0.8697
   72SLPC  H14A 6245   4.710   2.579  10.652 -1.2918 -0.7795 -2.2751
   72SLPC  H14B 6246   4.690   2.746  10.601 -3.6974  1.8262  0.1716
   72SLPC  H14C 6247   4.676   2.700  10.769  3.2560  1.5285 -0.0881
   72SLPC   C15 6248   4.474   2.535  10.765 -0.2952  0.3821  0.1158
   72SLPC  H15A 6249   4.548   2.459  10.784  0.0739  1.0684  1.5646
   72SLPC  H15B 6250   4.459   2.596  10.853  1.6646  1.7180 -0.3938
   72SLPC  H15C 6251   4.379   2.489  10.743  0.5986 -0.9772 -1.0639
   72SLPC   C12 6252   4.418   2.739  10.639 -0.0884  0.4279  0.0039
   72SLPC  H12A 6253   4.321   2.696  10.618  0.6196 -2.0893  1.5070
   72SLPC  H12B 6254   4.441   2.805  10.556 -0.0195 -0.6185 -0.8324
   72SLPC   C11 6255   4.405   2.842  10.760 -0.5833 -0.3631  0.2455
   72SLPC  H11A 6256   4.332   2.918  10.724 -0.6271 -0.5555 -0.0766
   72SLPC  H11B 6257   4.500   2.898  10.773  0.2376 -0.5362 -3.6533
   72SLPC     P 6258   4.206   2.727  10.888 -0.0310 -0.0332 -0.2579
   72SLPC   O13 6259   4.181   2.610  10.805  0.0858 -0.5452  0.2662
   72SLPC   O14 6260   4.169   2.726  11.034 -0.1185  0.6796  0.4692
   72SLPC   O12 6261   4.355   2.779  10.874 -0.3796 -0.2431  0.0658
   72SLPC   O11 6262   4.129   2.844  10.821 -0.5036 -0.3307  0.4530
   72SLPC    C1 6263   3.997   2.827  10.780  0.5299 -0.3767 -0.8691
   72SLPC    HA 6264   3.947   2.744  10.833  0.3262  0.2536 -0.0660
   72SLPC    HB 6265   3.941   2.920  10.803  1.5948  0.4648 -1.5336
   72SLPC    C2 6266   4.004   2.807  10.625 -0.0928  0.1501 -0.0567
   72SLPC    HS 6267   4.075   2.723  10.608 -0.1618 -0.2576  1.5530
   72SLPC   O21 6268   4.052   2.932  10.569  0.3235 -0.8429  0.3095
   72SLPC   C21 6269   4.132   2.931  10.465 -0.2685  0.5161  0.3603
   72SLPC   O22 6270   4.170   2.826  10.406  0.0569  0.6364 -0.3067
   72SLPC   C22 6271   4.170   3.067  10.419  0.2572  0.5361  0.6322
   72SLPC   H2R 6272   4.077   3.129  10.423 -0.7404 -0.8791  0.0859
   72SLPC   H2S 6273   4.255   3.114  10.472  2.1013 -0.2226 -1.5011
   72SLPC    C3 6274   3.869   2.775  10.563 -0.6673  0.4893 -0.2398
   72SLPC    HX 6275   3.802   2.860  10.588 -1.3607  0.5578 -2.1629
   72SLPC    HY 6276   3.832   2.675  10.597  2.4950 -1.4518 -2.0365
   72SLPC   O31 6277   3.867   2.772  10.416 -0.1642 -0.0016 -0.4843
   72SLPC   C31 6278   3.917   2.671  10.345  0.4379  0.0698 -0.2083
   72SLPC   O32 6279   3.973   2.571  10.387 -0.1113 -0.1120 -0.2820
   72SLPC   C32 6280   3.909   2.713  10.199  0.9196 -0.1249  0.2026
   72SLPC   H2X 6281   3.927   2.823  10.192  0.8226 -0.1633 -0.9760
   72SLPC   H2Y 6282   3.805   2.698  10.163  0.1810  0.5382  1.9847
   72SLPC   C23 6283   4.213   3.061  10.266 -0.3938 -0.2876 -0.2502
   72SLPC   H3R 6284   4.132   3.000  10.221  0.1023 -0.7036 -0.5882
   72SLPC   H3S 6285   4.312   3.011  10.269  0.0996  0.6807 -0.1037
   72SLPC   C24 6286   4.237   3.194  10.180 -0.8072 -0.2807 -0.2139
   72SLPC   H4R 6287   4.285   3.267  10.248  2.3712 -3.6295  1.5139
   72SLPC   H4S 6288   4.144   3.231  10.132 -1.0066 -3.0831 -2.2596
   72SLPC   C25 6289   4.338   3.173  10.064 -0.1874  0.0626  0.5026
   72SLPC   H5R 6290   4.426   3.120  10.106 -0.9313 -0.9461  0.8323
   72SLPC   H5S 6291   4.355   3.267  10.006  1.6304 -1.3160 -1.3805
   72SLPC   C26 6292   4.257   3.079   9.964 -0.4797  0.1600 -0.8195
   72SLPC   H6R 6293   4.167   3.138   9.933  0.1550  0.3174 -2.4616
   72SLPC   H6S 6294   4.222   2.977   9.992  0.2157 -0.1054 -0.8914
   72SLPC   C27 6295   4.330   3.062   9.830  0.3530  0.1970 -0.4074
   72SLPC   H7R 6296   4.422   3.004   9.852  1.0102  1.3323 -0.1167
   72SLPC   H7S 6297   4.359   3.162   9.791 -0.5280  1.0615  1.0744
   72SLPC   C28 6298   4.250   2.976   9.732 -0.8144  0.1421 -0.2140
   72SLPC   H8R 6299   4.197   2.895   9.786 -1.0261  0.1815 -0.3620
   72SLPC   H8S 6300   4.318   2.931   9.657 -1.9276  0.9100 -1.7291
   72SLPC   C29 6301   4.148   3.059   9.655  0.8888 -0.4970  0.1914
   72SLPC   H9R 6302   4.086   3.127   9.716 -0.5998 -1.6039 -0.0422
   72SLPC  C210 6303   4.134   3.062   9.524 -0.7067 -0.1373 -0.1384
   72SLPC  H10R 6304   4.073   3.135   9.470 -0.4628  1.2472  1.3725
   72SLPC  C211 6305   4.214   2.975   9.434 -0.2805 -0.4777  0.2209
   72SLPC  H11R 6306   4.143   2.937   9.358 -0.3947  1.3573 -0.6558
   72SLPC  H11S 6307   4.224   2.875   9.481 -2.5375 -0.6579  0.4402
   72SLPC  C212 6308   4.338   3.034   9.370  0.3722 -0.5632 -0.3884
   72SLPC  H12R 6309   4.411   3.061   9.448 -1.9816  0.3857  1.6211
   72SLPC  C213 6310   4.366   3.064   9.238 -0.0785  0.2571 -1.0933
   72SLPC  H13R 6311   4.464   3.110   9.216  0.0118  1.2755  1.1337
   72SLPC  C214 6312   4.283   3.051   9.116 -0.3951  0.2020 -0.1877
   72SLPC  H14R 6313   4.186   2.997   9.125 -1.4037  1.9234 -0.1016
   72SLPC  H14S 6314   4.352   3.011   9.039  0.5900  3.0237 -0.9027
   72SLPC  C215 6315   4.229   3.193   9.057  0.2101 -0.4611  0.1504
   72SLPC  H15R 6316   4.313   3.261   9.029 -0.5347  0.4910  0.1561
   72SLPC  H15S 6317   4.165   3.224   9.143  2.1863  0.4298  1.3752
   72SLPC  C216 6318   4.133   3.178   8.941 -0.3506 -0.7703  0.5540
   72SLPC  H16R 6319   4.064   3.091   8.953 -0.5404 -0.8267 -0.7663
   72SLPC  H16S 6320   4.199   3.170   8.852  0.6223  1.1535  1.0675
   72SLPC  C217 6321   4.037   3.302   8.909 -0.0062  0.0514  0.4903
   72SLPC  H17R 6322   4.090   3.394   8.876 -2.5536  1.0397 -1.0605
   72SLPC  H17S 6323   3.987   3.332   9.004 -0.4711  0.2236  0.1936
   72SLPC  C218 6324   3.930   3.278   8.799 -0.8034  0.1061 -0.0619
   72SLPC  H18R 6325   3.984   3.233   8.713 -0.2754  0.6827 -0.0437
   72SLPC  H18S 6326   3.884   3.370   8.756  1.9909  0.8460 -1.7446
   72SLPC  H18T 6327   3.854   3.205   8.833 -3.0278  1.7364 -1.2604
   72SLPC   C33 6328   3.992   2.628  10.105  0.0471  0.2079 -0.9011
   72SLPC   H3X 6329   3.962   2.524  10.127 -1.0158  0.2315 -2.1547
   72SLPC   H3Y 6330   4.099   2.643  10.134 -0.2463  1.3050 -0.3009
   72SLPC   C34 6331   3.988   2.650   9.946 -0.1605 -0.3183 -0.2769
   72SLPC   H4X 6332   4.022   2.756   9.942  2.2587 -1.0421 -0.2877
   72SLPC   H4Y 6333   3.884   2.637   9.907 -0.3811  0.7494 -0.0793
   72SLPC   C35 6334   4.080   2.552   9.884  0.4394 -0.3989 -0.2966
   72SLPC   H5X 6335   4.041   2.448   9.887  2.7482 -1.2996  0.0465
   72SLPC   H5Y 6336   4.168   2.557   9.951  0.9347  0.4437 -0.9916
   72SLPC   C36 6337   4.113   2.595   9.744 -0.0831 -0.5353 -0.5879
   72SLPC   H6X 6338   4.220   2.567   9.727 -0.1857 -2.7333  1.7991
   72SLPC   H6Y 6339   4.104   2.706   9.739  1.7711 -0.3159 -0.0553
   72SLPC   C37 6340   4.015   2.540   9.635  0.2173  0.1406 -0.5261
   72SLPC   H7X 6341   3.911   2.569   9.661  0.9263  0.6749  2.0195
   72SLPC   H7Y 6342   4.026   2.432   9.660  2.0863  0.6167  0.9665
   72SLPC   C38 6343   4.058   2.568   9.487 -0.1435  0.1675  0.2903
   72SLPC   H8X 6344   4.148   2.508   9.461  0.2474  1.5559 -1.8303
   72SLPC   H8Y 6345   4.072   2.676   9.466 -1.4899 -0.0276 -1.9527
   72SLPC   C39 6346   3.940   2.528   9.395  0.2222  0.1257 -0.7178
   72SLPC   H9X 6347   3.853   2.591   9.422 -0.7056 -1.3715 -0.1424
   72SLPC   H9Y 6348   3.919   2.426   9.433  1.6117 -0.2683 -0.9572
   72SLPC  C310 6349   3.969   2.524   9.243  0.4826 -0.0160  0.4917
   72SLPC  H10X 6350   3.883   2.492   9.180 -1.0052  1.2796  1.8000
   72SLPC  H10Y 6351   4.044   2.443   9.230 -0.7794 -1.2725  0.7756
   72SLPC  C311 6352   4.027   2.652   9.192  0.1525  0.1687 -0.2267
   72SLPC  H11X 6353   4.121   2.672   9.248 -0.1626 -0.3396  0.4917
   72SLPC  H11Y 6354   3.955   2.736   9.199  1.2848  1.2416 -0.8952
   72SLPC  C312 6355   4.065   2.636   9.043  0.1248  0.0112 -0.0069
   72SLPC  H12X 6356   3.969   2.620   8.991 -1.0009 -0.8054  2.2060
   72SLPC  H12Y 6357   4.123   2.542   9.031  1.6162  1.0054 -0.9490
   72SLPC  C313 6358   4.122   2.757   8.972 -0.1282 -0.2074 -0.2555
   72SLPC  H13X 6359   4.222   2.787   9.011  0.3968 -1.6140 -0.4534
   72SLPC  H13Y 6360   4.055   2.843   8.988 -0.8745 -0.6656 -0.8598
   72SLPC  C314 6361   4.140   2.729   8.824  0.0959 -0.5122 -0.2082
   72SLPC  H14X 6362   4.043   2.755   8.776 -0.5332  1.5105  1.9608
   72SLPC  H14Y 6363   4.157   2.620   8.819 -0.3522 -0.5821 -0.2821
   72SLPC  C315 6364   4.259   2.797   8.761 -0.7996  0.1562  0.7050
   72SLPC  H15X 6365   4.355   2.751   8.791 -0.3786  1.8292  2.0668
   72SLPC  H15Y 6366   4.263   2.902   8.795 -0.6234  0.5503 -0.4679
   72SLPC  C316 6367   4.254   2.788   8.606 -0.1917 -0.0031  0.1264
   72SLPC  H16X 6368   4.234   2.681   8.584  0.5760 -0.1630  0.1668
   72SLPC  H16Y 6369   4.356   2.813   8.569 -0.4928 -0.5948 -1.1513
   72SLPC  C317 6370   4.159   2.889   8.538 -0.2386 -0.3129  0.3171
   72SLPC  H17X 6371   4.059   2.891   8.586  0.2254  1.5181  1.2883
   72SLPC  H17Y 6372   4.133   2.852   8.436 -2.2913  1.9268 -0.0755
   72SLPC  C318 6373   4.202   3.040   8.518  0.5167 -0.5697  0.0639
   72SLPC  H18X 6374   4.114   3.085   8.468  0.4011 -0.6745  0.1741
   72SLPC  H18Y 6375   4.298   3.045   8.461  1.1430 -0.5063  1.1072
   72SLPC  H18Z 6376   4.216   3.094   8.614 -2.3027 -0.9261  0.7604
   73SLPC     N 6377   4.208   2.200  10.988 -0.1557 -0.3326 -0.1802
   73SLPC   C13 6378   4.166   2.347  10.991  0.6251 -0.0844  0.0129
   73SLPC  H13A 6379   4.245   2.401  11.041  1.1607 -1.1245  0.3035
   73SLPC  H13B 6380   4.172   2.373  10.886  2.1207 -0.8583 -0.1134
   73SLPC  H13C 6381   4.068   2.371  11.029  0.6370  0.0270 -0.0266
   73SLPC   C14 6382   4.180   2.134  11.119  0.0769 -0.5254 -0.0218
   73SLPC  H14A 6383   4.222   2.183  11.205 -0.6087 -3.6265  2.2672
   73SLPC  H14B 6384   4.074   2.129  11.140  0.3240  0.2233  1.5122
   73SLPC  H14C 6385   4.220   2.034  11.117  1.4294  0.0041 -0.8987
   73SLPC   C15 6386   4.355   2.197  10.959  0.0816 -0.0468 -0.1942
   73SLPC  H15A 6387   4.376   2.273  10.886  0.8553 -1.2527 -1.2574
   73SLPC  H15B 6388   4.416   2.227  11.043  0.5922  2.2914 -1.3369
   73SLPC  H15C 6389   4.370   2.094  10.932  1.4121 -0.6098  2.3759
   73SLPC   C12 6390   4.126   2.132  10.878 -0.3619 -0.2061  0.2622
   73SLPC  H12A 6391   4.135   2.185  10.785  1.1287  0.6273  0.8472
   73SLPC  H12B 6392   4.022   2.140  10.906 -0.1345  2.7759  0.6317
   73SLPC   C11 6393   4.157   1.994  10.851  0.1826  0.4564 -0.1623
   73SLPC  H11A 6394   4.179   1.933  10.940  1.1875 -0.5491 -1.0690
   73SLPC  H11B 6395   4.250   1.986  10.791 -1.1852 -1.2318 -2.2135
   73SLPC     P 6396   3.918   1.895  10.845 -0.1125  0.1062 -0.4286
   73SLPC   O13 6397   3.940   1.807  10.961  0.2560 -1.2214  0.2484
   73SLPC   O14 6398   3.837   2.018  10.873 -0.6215 -0.1128 -0.3829
   73SLPC   O12 6399   4.053   1.937  10.772  0.4107  0.0005 -0.0560
   73SLPC   O11 6400   3.847   1.814  10.729  0.3539 -0.1392 -0.5638
   73SLPC    C1 6401   3.845   1.867  10.595 -0.4990 -0.5131 -0.4271
   73SLPC    HA 6402   3.861   1.977  10.591  0.7961 -0.7088 -2.7032
   73SLPC    HB 6403   3.936   1.825  10.548 -0.2873 -0.7262  0.1665
   73SLPC    C2 6404   3.721   1.824  10.512  0.5297  0.9683 -0.0205
   73SLPC    HS 6405   3.634   1.837  10.579 -2.2832  0.3971 -3.3083
   73SLPC   O21 6406   3.740   1.683  10.480  0.2970  0.0877  0.5972
   73SLPC   C21 6407   3.628   1.624  10.457  0.5276  0.4008 -0.3739
   73SLPC   O22 6408   3.517   1.674  10.469 -0.2760 -0.3116 -0.5660
   73SLPC   C22 6409   3.639   1.487  10.416  0.1549 -0.0823 -0.5251
   73SLPC   H2R 6410   3.746   1.455  10.412  1.0923  2.7907 -1.3781
   73SLPC   H2S 6411   3.598   1.431  10.503  0.8666  0.3404  0.0923
   73SLPC    C3 6412   3.696   1.909  10.383  0.1232  0.2279  0.1543
   73SLPC    HX 6413   3.706   2.016  10.411 -0.0212  0.4154 -0.5048
   73SLPC    HY 6414   3.589   1.905  10.353  0.7755  0.7717 -2.4576
   73SLPC   O31 6415   3.778   1.871  10.264  0.1307 -0.0252 -0.4168
   73SLPC   C31 6416   3.899   1.930  10.258 -0.0886  0.1015  0.2951
   73SLPC   O32 6417   3.940   2.012  10.340  0.4260 -0.7791  0.3704
   73SLPC   C32 6418   3.972   1.881  10.130 -0.6206 -0.4191  0.8169
   73SLPC   H2X 6419   4.072   1.846  10.163 -0.4627 -0.7907 -0.0354
   73SLPC   H2Y 6420   3.977   1.967  10.060 -0.0847 -0.0003  1.3506
   73SLPC   C23 6421   3.557   1.462  10.289  0.4086  0.3555  0.3775
   73SLPC   H3R 6422   3.451   1.491  10.305  0.3254 -1.0588  3.0367
   73SLPC   H3S 6423   3.565   1.351  10.281 -2.2594  0.0715  0.6833
   73SLPC   C24 6424   3.610   1.519  10.155 -0.2291  0.2262 -0.6504
   73SLPC   H4R 6425   3.717   1.496  10.137  0.1171 -0.8572  2.2164
   73SLPC   H4S 6426   3.603   1.630  10.152 -0.3985  0.2096 -0.8799
   73SLPC   C25 6427   3.525   1.472  10.040 -0.6666 -0.0740 -0.4841
   73SLPC   H5R 6428   3.546   1.543   9.957 -1.2637  0.1751 -0.4267
   73SLPC   H5S 6429   3.417   1.482  10.063 -0.3530  1.1591  0.5728
   73SLPC   C26 6430   3.546   1.327   9.995 -0.5791 -0.2695 -0.3077
   73SLPC   H6R 6431   3.454   1.292   9.944  0.6130  0.5651 -3.2499
   73SLPC   H6S 6432   3.566   1.270  10.088  0.8976  1.8126  0.7229
   73SLPC   C27 6433   3.662   1.326   9.893 -0.3760 -0.2900  0.3349
   73SLPC   H7R 6434   3.759   1.341   9.945  0.1802  1.5418 -1.1234
   73SLPC   H7S 6435   3.656   1.400   9.811 -0.3612 -2.6452 -1.9380
   73SLPC   C28 6436   3.651   1.200   9.809 -0.0635 -0.5439 -0.2395
   73SLPC   H8R 6437   3.556   1.203   9.752  0.3105  1.1947 -0.8418
   73SLPC   H8S 6438   3.634   1.123   9.887 -1.2433 -0.6216 -0.5539
   73SLPC   C29 6439   3.772   1.176   9.714 -0.1903  0.0202  0.4896
   73SLPC   H9R 6440   3.871   1.152   9.757 -0.0647  1.1762  0.9003
   73SLPC  C210 6441   3.773   1.181   9.576 -0.5627  0.6589 -0.2805
   73SLPC  H10R 6442   3.868   1.162   9.524 -0.3432 -0.2215  0.3999
   73SLPC  C211 6443   3.657   1.203   9.480 -1.0714  0.5012 -0.5752
   73SLPC  H11R 6444   3.569   1.160   9.533  1.3048 -1.1846  2.3080
   73SLPC  H11S 6445   3.681   1.142   9.390  1.0978  1.1048 -0.4723
   73SLPC  C212 6446   3.623   1.348   9.454  0.8501 -0.3245  1.2026
   73SLPC  H12R 6447   3.579   1.404   9.538  0.3284  1.2210 -0.0727
   73SLPC  C213 6448   3.641   1.412   9.331 -0.3642 -0.8284 -0.1743
   73SLPC  H13R 6449   3.596   1.511   9.315  2.0833  0.4535  0.3700
   73SLPC  C214 6450   3.704   1.363   9.202 -0.1577  0.2393  0.0090
   73SLPC  H14R 6451   3.747   1.261   9.214 -1.8667 -0.5716 -0.4412
   73SLPC  H14S 6452   3.791   1.430   9.186  0.3982 -0.7367 -1.2166
   73SLPC  C215 6453   3.615   1.383   9.080 -0.1104  1.3220  0.0878
   73SLPC  H15R 6454   3.578   1.488   9.080 -0.1473  1.3090 -0.2789
   73SLPC  H15S 6455   3.531   1.317   9.110 -0.0184  0.8581 -0.6633
   73SLPC  C216 6456   3.674   1.330   8.952  0.0038 -0.6502  0.0696
   73SLPC  H16R 6457   3.690   1.221   8.966  0.4514 -0.6408 -0.3439
   73SLPC  H16S 6458   3.775   1.373   8.933 -0.6334  2.0332  2.1595
   73SLPC  C217 6459   3.590   1.369   8.833  0.0373 -0.6828 -0.0685
   73SLPC  H17R 6460   3.587   1.480   8.824  1.8336 -0.7260 -1.8495
   73SLPC  H17S 6461   3.483   1.343   8.850  0.5984 -1.1900  3.3073
   73SLPC  C218 6462   3.648   1.314   8.707  0.6070 -0.3826 -0.4742
   73SLPC  H18R 6463   3.729   1.388   8.690 -0.8232  1.7278  1.2905
   73SLPC  H18S 6464   3.566   1.332   8.634 -1.1589 -0.4881  1.4100
   73SLPC  H18T 6465   3.688   1.210   8.705 -0.5817 -0.8652 -0.0699
   73SLPC   C33 6466   3.885   1.777  10.049 -0.8254  0.4493 -0.6942
   73SLPC   H3X 6467   3.786   1.824  10.033 -0.2610  1.8411 -0.3098
   73SLPC   H3Y 6468   3.876   1.688  10.114  1.7427  1.6521  1.5425
   73SLPC   C34 6469   3.944   1.741   9.910  0.0334 -0.4384  0.0512
   73SLPC   H4X 6470   4.026   1.668   9.927  0.2051 -0.1483  0.5055
   73SLPC   H4Y 6471   3.986   1.832   9.862 -0.8604  0.5411  1.0773
   73SLPC   C35 6472   3.848   1.689   9.803  0.4208  1.1641  0.2209
   73SLPC   H5X 6473   3.769   1.763   9.778  0.1825  0.8634  0.0627
   73SLPC   H5Y 6474   3.806   1.592   9.840 -1.0838  1.4580 -0.6355
   73SLPC   C36 6475   3.929   1.663   9.675  0.2088  0.3204  0.4582
   73SLPC   H6X 6476   3.877   1.579   9.623 -2.1680  0.6295  2.1884
   73SLPC   H6Y 6477   4.030   1.626   9.704 -0.2556  0.2141  2.0126
   73SLPC   C37 6478   3.942   1.790   9.584 -0.3427 -0.2235 -0.6495
   73SLPC   H7X 6479   3.986   1.864   9.654 -3.6002  0.9419  0.3338
   73SLPC   H7Y 6480   3.843   1.831   9.554 -0.2684 -0.8179 -1.7725
   73SLPC   C38 6481   4.039   1.764   9.459  0.4711  0.0850 -0.3127
   73SLPC   H8X 6482   4.112   1.690   9.498  0.6707  1.5089  2.2856
   73SLPC   H8Y 6483   4.091   1.858   9.430  1.3269 -0.3237 -0.1330
   73SLPC   C39 6484   3.961   1.711   9.341  0.3514  0.3133 -0.3982
   73SLPC   H9X 6485   3.900   1.796   9.303 -1.6779 -1.5669 -1.5944
   73SLPC   H9Y 6486   3.889   1.642   9.391 -0.9116  2.6667  1.2875
   73SLPC  C310 6487   4.038   1.649   9.229  0.6368  0.0548 -0.1897
   73SLPC  H10X 6488   3.973   1.609   9.149  0.3220  0.5065 -0.1639
   73SLPC  H10Y 6489   4.102   1.566   9.266  0.7009  0.2494  0.1421
   73SLPC  C311 6490   4.139   1.749   9.176  0.5941 -0.2889 -0.2838
   73SLPC  H11X 6491   4.203   1.791   9.256 -1.6204  1.9938  0.4272
   73SLPC  H11Y 6492   4.088   1.836   9.131  0.5547  0.1251  0.5411
   73SLPC  C312 6493   4.234   1.678   9.070  0.2555  0.4758 -0.6274
   73SLPC  H12X 6494   4.244   1.574   9.109 -0.7164  0.0380 -1.4816
   73SLPC  H12Y 6495   4.334   1.726   9.071  0.1711  0.6576  0.4618
   73SLPC  C313 6496   4.180   1.668   8.932 -0.5027  0.0612 -0.2156
   73SLPC  H13X 6497   4.146   1.767   8.895 -0.2934  1.1121  2.2514
   73SLPC  H13Y 6498   4.091   1.601   8.934 -0.2693 -0.2478 -0.1129
   73SLPC  C314 6499   4.283   1.597   8.839  0.3770 -0.4532 -0.4030
   73SLPC  H14X 6500   4.318   1.507   8.893  0.7265  0.4671  0.9783
   73SLPC  H14Y 6501   4.365   1.671   8.824  0.3523 -0.6361 -1.5256
   73SLPC  C315 6502   4.215   1.558   8.712 -0.2844 -0.2327  0.1163
   73SLPC  H15X 6503   4.188   1.653   8.661  4.4680  0.5493 -1.4439
   73SLPC  H15Y 6504   4.123   1.504   8.743 -1.0107  1.5194  1.1757
   73SLPC  C316 6505   4.307   1.482   8.616  0.5757  0.2988 -0.2393
   73SLPC  H16X 6506   4.250   1.438   8.531  2.1733 -0.7579 -0.8258
   73SLPC  H16Y 6507   4.368   1.399   8.657 -1.3291 -0.6809  0.7255
   73SLPC  C317 6508   4.407   1.576   8.559  0.7018 -0.2438 -0.1147
   73SLPC  H17X 6509   4.450   1.629   8.647  0.3236 -0.6435  0.3223
   73SLPC  H17Y 6510   4.344   1.654   8.512 -0.3773 -1.1821 -0.2797
   73SLPC  C318 6511   4.511   1.526   8.460 -0.9145 -0.0086 -0.0534
   73SLPC  H18X 6512   4.580   1.455   8.511 -0.6257 -0.8190 -1.5080
   73SLPC  H18Y 6513   4.578   1.608   8.429 -0.5183  1.2416  3.6230
   73SLPC  H18Z 6514   4.464   1.474   8.373  0.3810 -1.0830 -0.1466
   74SLPC     N 6515   5.198   3.571  10.680  0.6365 -0.1170 -0.1369
   74SLPC   C13 6516   5.107   3.488  10.779 -0.1598  0.2894  0.5099
   74SLPC  H13A 6517   5.031   3.440  10.719  1.5227  0.7240 -2.1695
   74SLPC  H13B 6518   5.166   3.414  10.831  1.3588  1.0873 -0.0010
   74SLPC  H13C 6519   5.065   3.548  10.858  2.2354  0.9604  1.3854
   74SLPC   C14 6520   5.292   3.478  10.618 -1.1546 -0.1379 -0.4761
   74SLPC  H14A 6521   5.337   3.411  10.690 -0.9780  0.4629 -0.0221
   74SLPC  H14B 6522   5.244   3.414  10.546 -0.4225  0.2419 -1.3188
   74SLPC  H14C 6523   5.377   3.528  10.574  0.1010 -1.3030  0.5212
   74SLPC   C15 6524   5.277   3.674  10.764  0.2228 -0.3904  0.0799
   74SLPC  H15A 6525   5.209   3.716  10.836  1.6210  0.6870  0.8209
   74SLPC  H15B 6526   5.366   3.635  10.810  0.9125  2.8596  1.7667
   74SLPC  H15C 6527   5.303   3.756  10.700 -1.1789 -0.8384 -1.1239
   74SLPC   C12 6528   5.114   3.632  10.571 -0.0638  0.3436  0.5135
   74SLPC  H12A 6529   5.043   3.699  10.616 -1.4005  0.2836 -1.3945
   74SLPC  H12B 6530   5.049   3.560  10.523  0.2780  0.3574  0.0265
   74SLPC   C11 6531   5.182   3.728  10.457 -0.1611  0.1268 -0.0066
   74SLPC  H11A 6532   5.105   3.777  10.395 -1.7420 -1.9473  0.2146
   74SLPC  H11B 6533   5.250   3.677  10.386  1.5944  1.1866  0.8207
   74SLPC     P 6534   5.196   3.971  10.561 -0.4195  0.1337  0.2704
   74SLPC   O13 6535   5.086   3.943  10.657  0.0235  0.9111  0.6753
   74SLPC   O14 6536   5.306   4.063  10.605  0.0758  0.0436  0.1476
   74SLPC   O12 6537   5.264   3.835  10.520 -0.2459  0.0637 -0.0917
   74SLPC   O11 6538   5.138   4.023  10.421 -0.6567 -0.4349  0.2625
   74SLPC    C1 6539   5.229   4.025  10.311 -0.0861 -0.5522  0.1807
   74SLPC    HA 6540   5.297   4.112  10.320  1.0102 -1.2682 -0.8644
   74SLPC    HB 6541   5.301   3.939  10.311 -1.0239 -1.3585  0.9324
   74SLPC    C2 6542   5.156   4.020  10.177 -0.0634  0.1148  0.4175
   74SLPC    HS 6543   5.075   4.097  10.181 -0.6046 -0.4577  0.6042
   74SLPC   O21 6544   5.093   3.890  10.160  0.2502  0.0581  0.6153
   74SLPC   C21 6545   4.971   3.893  10.110  0.3685 -0.5712  0.2626
   74SLPC   O22 6546   4.905   3.994  10.085  0.0269 -0.3095  0.1708
   74SLPC   C22 6547   4.935   3.746  10.076  0.7951  0.0014 -0.5368
   74SLPC   H2R 6548   4.992   3.704   9.991  1.8091 -1.8382  0.9646
   74SLPC   H2S 6549   4.963   3.688  10.167  0.9108  1.9859  0.7522
   74SLPC    C3 6550   5.243   4.064  10.064  0.0694  0.3882 -0.1031
   74SLPC    HX 6551   5.309   3.982  10.027 -4.7089 -3.5477 -0.9717
   74SLPC    HY 6552   5.300   4.144  10.114 -0.6021 -0.5163  2.2570
   74SLPC   O31 6553   5.161   4.132   9.963 -0.1055  0.6889  1.0449
   74SLPC   C31 6554   5.132   4.044   9.856  0.2482 -0.2058 -0.2598
   74SLPC   O32 6555   5.166   3.926   9.852 -0.5726 -0.0345 -0.4365
   74SLPC   C32 6556   5.043   4.119   9.748  0.1242  0.5552 -0.0437
   74SLPC   H2X 6557   5.066   4.225   9.767  0.0070  0.7026 -0.6831
   74SLPC   H2Y 6558   4.943   4.090   9.787  0.6510  0.6952  1.4681
   74SLPC   C23 6559   4.784   3.732  10.039 -0.5299  0.3075  0.1350
   74SLPC   H3R 6560   4.727   3.758  10.131  0.6113  2.5454  0.2810
   74SLPC   H3S 6561   4.774   3.622  10.022 -0.3880 -0.1019  2.3318
   74SLPC   C24 6562   4.742   3.789   9.902  0.2235 -0.3552  0.0723
   74SLPC   H4R 6563   4.777   3.894   9.899  4.4279 -1.5958 -1.5038
   74SLPC   H4S 6564   4.631   3.782   9.906 -0.2324  3.8651 -0.1529
   74SLPC   C25 6565   4.802   3.714   9.783  0.3069  0.1261 -0.4024
   74SLPC   H5R 6566   4.764   3.611   9.766  1.3165 -0.3605  0.2042
   74SLPC   H5S 6567   4.913   3.712   9.789  0.2000 -1.3872  2.0603
   74SLPC   C26 6568   4.779   3.780   9.648  0.5157  0.1071  0.1352
   74SLPC   H6R 6569   4.812   3.886   9.646 -1.7254  0.9125  1.4315
   74SLPC   H6S 6570   4.670   3.785   9.626  0.9794  0.8493 -2.1783
   74SLPC   C27 6571   4.845   3.706   9.532 -0.0701 -0.6015  0.2935
   74SLPC   H7R 6572   4.820   3.598   9.538  2.1832 -1.1519  0.5910
   74SLPC   H7S 6573   4.955   3.717   9.540  0.0548  3.5000 -3.2426
   74SLPC   C28 6574   4.791   3.747   9.390 -0.1563  0.3377 -0.1586
   74SLPC   H8R 6575   4.868   3.714   9.317  0.3064 -2.3064  1.3909
   74SLPC   H8S 6576   4.803   3.857   9.394  0.1519  0.2914  0.4491
   74SLPC   C29 6577   4.656   3.699   9.364  0.0361 -0.3915  0.3699
   74SLPC   H9R 6578   4.583   3.735   9.439  1.4826  0.6205  1.3476
   74SLPC  C210 6579   4.616   3.628   9.254  0.3825 -0.4437 -0.3356
   74SLPC  H10R 6580   4.515   3.649   9.216  1.1434  3.2611 -0.7147
   74SLPC  C211 6581   4.704   3.583   9.142 -0.0914  0.2288  0.1315
   74SLPC  H11R 6582   4.799   3.538   9.178  1.1040  2.4203 -0.0886
   74SLPC  H11S 6583   4.737   3.666   9.076  0.6081 -3.7200 -5.1414
   74SLPC  C212 6584   4.641   3.479   9.053 -0.5221  0.5118  0.3470
   74SLPC  H12R 6585   4.669   3.374   9.072 -2.2697 -0.1615 -0.6009
   74SLPC  C213 6586   4.557   3.504   8.952 -0.4413  0.5293 -0.0842
   74SLPC  H13R 6587   4.524   3.436   8.872  0.0865  1.2551 -0.9379
   74SLPC  C214 6588   4.516   3.645   8.915 -0.1433  0.1186  0.1192
   74SLPC  H14R 6589   4.585   3.718   8.963 -1.4900  0.6633  1.2969
   74SLPC  H14S 6590   4.411   3.671   8.940 -0.4511  0.5919 -1.5499
   74SLPC  C215 6591   4.530   3.679   8.762  0.2506  0.0514 -0.3832
   74SLPC  H15R 6592   4.635   3.668   8.728 -0.5091 -1.0546 -2.5803
   74SLPC  H15S 6593   4.509   3.788   8.753  0.0162 -0.0280 -0.8405
   74SLPC  C216 6594   4.435   3.615   8.665  0.0531  0.2425 -0.0679
   74SLPC  H16R 6595   4.328   3.643   8.683  0.1922  0.6624  0.1268
   74SLPC  H16S 6596   4.450   3.506   8.681  2.5303  0.4914 -0.3414
   74SLPC  C217 6597   4.474   3.655   8.517  0.2601  0.1209 -0.2289
   74SLPC  H17R 6598   4.573   3.605   8.505  0.1206 -0.6335  1.3738
   74SLPC  H17S 6599   4.477   3.766   8.521 -2.3473  0.2798 -0.7969
   74SLPC  C218 6600   4.391   3.598   8.407 -0.1832 -0.7563  0.1739
   74SLPC  H18R 6601   4.294   3.651   8.416 -0.0535 -0.2671 -1.1067
   74SLPC  H18S 6602   4.373   3.490   8.429  0.8051 -1.1175 -0.7167
   74SLPC  H18T 6603   4.447   3.612   8.311  0.2770 -3.2071  0.0095
   74SLPC   C33 6604   5.079   4.076   9.606  0.4219  0.2614 -1.0537
   74SLPC   H3X 6605   5.053   3.973   9.575  0.8890 -0.6497  1.3364
   74SLPC   H3Y 6606   5.189   4.091   9.596  0.6086  1.1520  1.4873
   74SLPC   C34 6607   5.025   4.190   9.513 -0.4818  0.6098  0.1318
   74SLPC   H4X 6608   5.051   4.291   9.552  1.1960 -0.5240  2.1834
   74SLPC   H4Y 6609   4.916   4.171   9.507 -0.0926 -1.7206 -0.1534
   74SLPC   C35 6610   5.083   4.188   9.369 -0.0733  0.1418  0.0208
   74SLPC   H5X 6611   5.191   4.212   9.375  0.4502 -1.1563 -2.5819
   74SLPC   H5Y 6612   5.052   4.273   9.304  1.6912  0.7324 -0.1059
   74SLPC   C36 6613   5.067   4.047   9.303 -0.9960 -0.7227  1.3828
   74SLPC   H6X 6614   4.961   4.020   9.319 -1.7345  0.8479 -0.4934
   74SLPC   H6Y 6615   5.136   3.978   9.356 -0.0169  0.8594  2.2609
   74SLPC   C37 6616   5.114   4.059   9.153  0.0871 -0.2556 -0.5693
   74SLPC   H7X 6617   5.222   4.077   9.170 -0.3543  0.4110  1.9704
   74SLPC   H7Y 6618   5.059   4.146   9.112 -1.2542 -0.5586  0.5266
   74SLPC   C38 6619   5.082   3.933   9.073 -0.7770  0.8422  0.8109
   74SLPC   H8X 6620   5.116   3.834   9.109 -1.0519  0.6490  0.5355
   74SLPC   H8Y 6621   5.139   3.946   8.979 -1.0478  1.2568  0.7014
   74SLPC   C39 6622   4.934   3.939   9.046  0.6540  0.5153  0.7134
   74SLPC   H9X 6623   4.899   4.044   9.045 -0.7964  0.1173  2.5306
   74SLPC   H9Y 6624   4.873   3.894   9.128  0.1398 -0.2233 -0.0525
   74SLPC  C310 6625   4.889   3.876   8.910  0.1954  0.2628  0.0882
   74SLPC  H10X 6626   4.780   3.891   8.900 -0.2397 -2.1025  0.6660
   74SLPC  H10Y 6627   4.916   3.769   8.904  3.3031  0.9594  0.0647
   74SLPC  C311 6628   4.952   3.935   8.782  0.1187  0.4137  0.0621
   74SLPC  H11X 6629   5.063   3.934   8.774  0.0757  1.4704 -1.0171
   74SLPC  H11Y 6630   4.911   4.038   8.770  2.6607  1.8820  2.6682
   74SLPC  C312 6631   4.906   3.847   8.667 -0.0757 -0.0972  1.7129
   74SLPC  H12X 6632   4.837   3.768   8.705 -0.7845  0.0087  0.6759
   74SLPC  H12Y 6633   4.989   3.798   8.611 -0.6333  2.1473 -1.3339
   74SLPC  C313 6634   4.830   3.919   8.554  0.1554  0.0645  0.0242
   74SLPC  H13X 6635   4.884   4.004   8.509  0.7279 -0.6484 -0.6594
   74SLPC  H13Y 6636   4.730   3.956   8.588  0.8831  3.5496 -1.2862
   74SLPC  C314 6637   4.811   3.827   8.426  1.0848 -0.1184  0.1445
   74SLPC  H14X 6638   4.755   3.739   8.462  0.2774  0.5420  0.5407
   74SLPC  H14Y 6639   4.913   3.788   8.405  0.5961 -1.5884  0.4245
   74SLPC  C315 6640   4.750   3.893   8.299 -0.1994  0.2475 -1.2315
   74SLPC  H15X 6641   4.833   3.963   8.277  0.0207 -0.1287 -1.6217
   74SLPC  H15Y 6642   4.662   3.955   8.325 -0.5967 -1.2290  1.2634
   74SLPC  C316 6643   4.717   3.798   8.185 -0.6071 -0.5097  0.2482
   74SLPC  H16X 6644   4.613   3.760   8.199 -1.8806  2.8282  1.0310
   74SLPC  H16Y 6645   4.786   3.712   8.175 -1.0881 -0.6271 -2.7731
   74SLPC  C317 6646   4.709   3.878   8.054 -0.1856 -0.7357 -0.5271
   74SLPC  H17X 6647   4.648   3.970   8.065  0.5769 -0.3214  0.4037
   74SLPC  H17Y 6648   4.658   3.822   7.973  1.8197 -0.6362 -1.9628
   74SLPC  C318 6649   4.854   3.900   7.994  0.2689  0.0759 -0.0565
   74SLPC  H18X 6650   4.919   3.959   8.063 -1.3983  1.0257  0.7922
   74SLPC  H18Y 6651   4.855   3.959   7.900  0.5377  1.7737  0.9634
   74SLPC  H18Z 6652   4.906   3.804   7.976  0.7591  0.4148 -0.4596
   75SLPC     N 6653   1.707   5.498   6.081 -0.0294  0.1474  0.5866
   75SLPC   C13 6654   1.619   5.379   6.036 -0.0072  0.1632 -0.0135
   75SLPC  H13A 6655   1.550   5.342   6.110 -0.2725 -0.3723 -0.5263
   75SLPC  H13B 6656   1.556   5.416   5.957 -2.9866 -3.2252  0.5085
   75SLPC  H13C 6657   1.680   5.298   5.997 -0.7212 -1.0712  1.3107
   75SLPC   C14 6658   1.623   5.618   6.069  0.1346  0.4674 -0.4390
   75SLPC  H14A 6659   1.602   5.642   5.966 -0.1264 -0.4223 -0.6053
   75SLPC  H14B 6660   1.531   5.593   6.119  0.7720  0.8749  0.9914
   75SLPC  H14C 6661   1.664   5.708   6.113 -0.3168  1.4279 -1.9209
   75SLPC   C15 6662   1.816   5.512   5.975 -0.3954 -0.3067  0.5100
   75SLPC  H15A 6663   1.875   5.597   6.006  0.3927 -1.4058  2.1946
   75SLPC  H15B 6664   1.882   5.428   5.957  0.0132  0.3104 -1.0600
   75SLPC  H15C 6665   1.773   5.533   5.878 -1.5707  0.7646  1.2448
   75SLPC   C12 6666   1.773   5.470   6.214  0.3778  0.3464 -0.0934
   75SLPC  H12A 6667   1.806   5.561   6.263 -0.8164  1.5839 -1.4954
   75SLPC  H12B 6668   1.844   5.389   6.213  1.4894  1.2336  1.6183
   75SLPC   C11 6669   1.676   5.421   6.333 -0.0135  0.4575 -0.1615
   75SLPC  H11A 6670   1.730   5.392   6.425  0.2252 -1.5815 -0.8869
   75SLPC  H11B 6671   1.644   5.320   6.299 -0.5587 -0.2866  2.3199
   75SLPC     P 6672   1.593   5.646   6.424 -0.0112 -0.0160 -0.3730
   75SLPC   O13 6673   1.725   5.696   6.397  0.2257  0.4315 -0.1325
   75SLPC   O14 6674   1.474   5.734   6.398  0.0482  0.3435 -0.0628
   75SLPC   O12 6675   1.561   5.506   6.353 -0.4859  0.0915 -0.0645
   75SLPC   O11 6676   1.594   5.598   6.573  0.0104 -0.1274  0.0483
   75SLPC    C1 6677   1.460   5.566   6.624  0.1489 -0.3951 -0.2192
   75SLPC    HA 6678   1.377   5.621   6.574  0.6975 -0.7902 -1.5964
   75SLPC    HB 6679   1.449   5.457   6.604  0.4652 -0.4713  0.0113
   75SLPC    C2 6680   1.445   5.592   6.777 -0.2275  0.7134  1.5678
   75SLPC    HS 6681   1.545   5.565   6.818 -0.7438 -0.9193  1.8286
   75SLPC   O21 6682   1.338   5.511   6.830  0.4279 -0.0812 -0.5412
   75SLPC   C21 6683   1.359   5.459   6.956  0.1777  0.0845  0.0520
   75SLPC   O22 6684   1.457   5.477   7.024 -0.1511  0.1076 -0.1161
   75SLPC   C22 6685   1.247   5.358   6.987 -0.1054 -0.3657 -0.8992
   75SLPC   H2R 6686   1.152   5.383   6.935  0.0310 -1.2669 -1.6213
   75SLPC   H2S 6687   1.282   5.260   6.949  0.4469 -0.6152  0.2192
   75SLPC    C3 6688   1.427   5.747   6.807 -0.2298 -0.1338 -0.0199
   75SLPC    HX 6689   1.348   5.794   6.745  2.0820  1.7185 -1.7371
   75SLPC    HY 6690   1.530   5.784   6.786  0.0311 -0.4111  0.7323
   75SLPC   O31 6691   1.398   5.780   6.947  0.6384 -0.3032  0.0571
   75SLPC   C31 6692   1.495   5.772   7.030  0.0979  0.9183  0.6193
   75SLPC   O32 6693   1.612   5.735   7.009 -0.1430 -0.1903  0.0940
   75SLPC   C32 6694   1.440   5.798   7.175 -0.0070  0.7005  0.2961
   75SLPC   H2X 6695   1.438   5.700   7.227 -0.2202  0.4155 -0.2434
   75SLPC   H2Y 6696   1.339   5.844   7.168 -0.3249  0.0228  0.3754
   75SLPC   C23 6697   1.227   5.329   7.141 -0.1558 -1.3977  0.3584
   75SLPC   H3R 6698   1.320   5.297   7.192  0.2080  0.2060  0.7569
   75SLPC   H3S 6699   1.151   5.248   7.147 -0.0163 -1.4910  0.8553
   75SLPC   C24 6700   1.168   5.450   7.214  1.0067  0.9205 -0.6086
   75SLPC   H4R 6701   1.068   5.464   7.168  0.8438 -2.5402 -1.5653
   75SLPC   H4S 6702   1.238   5.535   7.197  1.1287  0.5299 -2.2429
   75SLPC   C25 6703   1.158   5.424   7.360 -0.2485  0.4421  0.5026
   75SLPC   H5R 6704   1.260   5.415   7.403  0.0252 -2.3267 -0.5400
   75SLPC   H5S 6705   1.124   5.318   7.361  2.3544 -0.4793  0.2178
   75SLPC   C26 6706   1.062   5.503   7.448 -0.6878 -0.1236  0.0379
   75SLPC   H6R 6707   0.982   5.546   7.385  0.7410  0.7866 -1.2290
   75SLPC   H6S 6708   1.117   5.589   7.493 -0.3546 -0.1863 -0.2422
   75SLPC   C27 6709   0.999   5.407   7.560  0.2212 -0.2760  0.0743
   75SLPC   H7R 6710   1.076   5.346   7.614 -0.2671  0.7901  2.1005
   75SLPC   H7S 6711   0.932   5.334   7.511  1.6083 -1.3572 -0.2974
   75SLPC   C28 6712   0.924   5.480   7.677  0.4090 -0.1241 -0.1817
   75SLPC   H8R 6713   0.849   5.547   7.630 -0.0949 -0.5608 -0.0181
   75SLPC   H8S 6714   1.001   5.533   7.738  0.6809 -1.9836  1.1758
   75SLPC   C29 6715   0.851   5.380   7.762 -0.0291  0.4033 -0.1198
   75SLPC   H9R 6716   0.821   5.291   7.706 -1.8641  1.4684 -0.8985
   75SLPC  C210 6717   0.833   5.384   7.898  0.5175 -0.4521  0.4516
   75SLPC  H10R 6718   0.763   5.312   7.942  0.1538  0.7962  2.0341
   75SLPC  C211 6719   0.876   5.489   7.997  0.2899 -0.9685  1.3408
   75SLPC  H11R 6720   0.885   5.586   7.943 -1.6252 -1.6772 -0.3648
   75SLPC  H11S 6721   0.972   5.468   8.050  0.4865  0.8997  1.8174
   75SLPC  C212 6722   0.776   5.537   8.108 -0.8287 -0.3412 -0.2483
   75SLPC  H12R 6723   0.741   5.640   8.094  0.4845  0.3918  1.4885
   75SLPC  C213 6724   0.739   5.463   8.211 -0.6417 -0.8130 -0.5704
   75SLPC  H13R 6725   0.680   5.520   8.285  0.1596 -0.3704 -0.2545
   75SLPC  C214 6726   0.798   5.335   8.239  0.3010 -0.9701  0.1236
   75SLPC  H14R 6727   0.882   5.319   8.168 -1.2117  1.8839 -2.5566
   75SLPC  H14S 6728   0.717   5.261   8.221 -0.8703  1.1302 -5.0357
   75SLPC  C215 6729   0.848   5.342   8.382  1.1775  1.0176  0.0717
   75SLPC  H15R 6730   0.759   5.361   8.445  1.7990  0.3652  1.1768
   75SLPC  H15S 6731   0.921   5.425   8.396  2.1169  0.2523 -0.2372
   75SLPC  C216 6732   0.907   5.205   8.425 -0.5129  0.2514  0.3791
   75SLPC  H16R 6733   1.008   5.209   8.379 -1.4796  0.3763 -1.9175
   75SLPC  H16S 6734   0.850   5.132   8.363  1.7060  0.3650 -1.9762
   75SLPC  C217 6735   0.916   5.172   8.570  0.0654 -0.2943  0.4938
   75SLPC  H17R 6736   0.953   5.069   8.584 -2.2346 -1.5607 -1.9054
   75SLPC  H17S 6737   0.813   5.186   8.607 -0.2451 -3.2966  0.9936
   75SLPC  C218 6738   1.016   5.262   8.637  0.1373 -0.2336 -0.8334
   75SLPC  H18R 6739   1.028   5.233   8.744  0.1164 -1.5477 -1.1759
   75SLPC  H18S 6740   0.980   5.367   8.636 -2.8688 -1.1547  0.2599
   75SLPC  H18T 6741   1.115   5.256   8.588  1.6686  0.5358  1.9274
   75SLPC   C33 6742   1.526   5.909   7.250 -0.5222  0.3299 -0.4026
   75SLPC   H3X 6743   1.628   5.869   7.270  0.2960  1.4981 -2.0670
   75SLPC   H3Y 6744   1.545   5.997   7.185 -1.7346  1.5097  0.7826
   75SLPC   C34 6745   1.460   5.947   7.382 -0.8269 -0.6424  0.4793
   75SLPC   H4X 6746   1.361   5.991   7.356 -0.2806  0.3421 -0.0008
   75SLPC   H4Y 6747   1.521   6.032   7.418 -0.4571  0.0603 -1.6292
   75SLPC   C35 6748   1.462   5.841   7.486 -0.0636  0.1494  0.2610
   75SLPC   H5X 6749   1.566   5.814   7.514  0.1575 -2.9862 -2.8538
   75SLPC   H5Y 6750   1.417   5.748   7.445 -1.3819  0.9491 -0.1613
   75SLPC   C36 6751   1.385   5.877   7.615  0.0909  0.3452  0.0813
   75SLPC   H6X 6752   1.280   5.863   7.580 -0.0012 -1.4066  0.9553
   75SLPC   H6Y 6753   1.403   5.976   7.661  1.7440 -1.0222  2.5827
   75SLPC   C37 6754   1.414   5.779   7.721  0.2983 -0.1176 -0.2861
   75SLPC   H7X 6755   1.506   5.812   7.773  0.4649  1.8891 -1.7679
   75SLPC   H7Y 6756   1.427   5.677   7.678  1.9328  0.1665 -0.5191
   75SLPC   C38 6757   1.302   5.773   7.826  0.2783  0.3365  0.4172
   75SLPC   H8X 6758   1.206   5.744   7.777  1.3815 -0.9023 -1.1332
   75SLPC   H8Y 6759   1.287   5.875   7.867 -1.2075  0.8629 -1.3124
   75SLPC   C39 6760   1.336   5.684   7.946  0.0705 -0.0765  0.0011
   75SLPC   H9X 6761   1.425   5.717   8.003 -1.0694 -2.6675  3.6207
   75SLPC   H9Y 6762   1.355   5.579   7.916 -2.1093 -0.5593  0.0905
   75SLPC  C310 6763   1.220   5.672   8.051  0.1313  0.4402 -0.4735
   75SLPC  H10X 6764   1.135   5.616   8.008 -1.4372  3.4677 -1.5624
   75SLPC  H10Y 6765   1.184   5.777   8.060 -0.6038  0.2601 -1.2461
   75SLPC  C311 6766   1.277   5.609   8.176 -0.7290  0.3535  0.5219
   75SLPC  H11X 6767   1.370   5.665   8.201 -1.2821  1.0396  1.0971
   75SLPC  H11Y 6768   1.296   5.501   8.159 -3.2600 -0.0239 -0.3213
   75SLPC  C312 6769   1.179   5.617   8.295 -0.7643 -0.2182 -0.1508
   75SLPC  H12X 6770   1.087   5.557   8.278 -1.1776  0.7728 -1.6646
   75SLPC  H12Y 6771   1.165   5.727   8.301  1.3311  0.1859 -1.5860
   75SLPC  C313 6772   1.252   5.579   8.423  0.1332 -0.3765  0.2091
   75SLPC  H13X 6773   1.167   5.584   8.494  0.9083  2.0747  1.0607
   75SLPC  H13Y 6774   1.312   5.668   8.452  0.5319  0.3139 -2.4857
   75SLPC  C314 6775   1.345   5.452   8.420 -0.0068  0.1674  0.3523
   75SLPC  H14X 6776   1.422   5.464   8.341  1.5544 -0.3936  1.7159
   75SLPC  H14Y 6777   1.278   5.368   8.391 -0.0138  0.3373 -0.1247
   75SLPC  C315 6778   1.407   5.426   8.553 -0.4431 -0.3141 -0.4775
   75SLPC  H15X 6779   1.326   5.381   8.615 -1.2578 -1.2521 -2.1384
   75SLPC  H15Y 6780   1.428   5.526   8.595 -1.9799 -0.6763  1.2939
   75SLPC  C316 6781   1.543   5.353   8.549 -0.2427 -0.5577  0.1423
   75SLPC  H16X 6782   1.617   5.416   8.495  0.3041 -0.6285  0.7930
   75SLPC  H16Y 6783   1.538   5.247   8.517 -0.8238 -0.3806 -0.3827
   75SLPC  C317 6784   1.594   5.348   8.696  0.3892 -0.5593  0.0832
   75SLPC  H17X 6785   1.540   5.261   8.739  0.6470 -0.7430  0.0346
   75SLPC  H17Y 6786   1.574   5.448   8.740 -1.3442 -0.4508 -0.8912
   75SLPC  C318 6787   1.741   5.297   8.703 -0.5089 -0.2471  0.1677
   75SLPC  H18X 6788   1.823   5.371   8.694  1.1862 -2.0862 -0.1856
   75SLPC  H18Y 6789   1.750   5.220   8.623 -0.9436 -0.2384  0.1121
   75SLPC  H18Z 6790   1.753   5.230   8.791  1.3805 -2.3134 -1.5541
   76SLPC     N 6791   3.343   3.232   6.164  0.4960 -0.1225 -0.6790
   76SLPC   C13 6792   3.338   3.145   6.044 -0.3200  0.4120 -0.1903
   76SLPC  H13A 6793   3.431   3.105   6.008 -0.8724  0.2253 -1.4938
   76SLPC  H13B 6794   3.269   3.064   6.060  1.0194 -1.0527 -1.4789
   76SLPC  H13C 6795   3.283   3.194   5.964  0.6124  0.4236 -0.8425
   76SLPC   C14 6796   3.396   3.143   6.275  0.0091 -0.4635  0.7980
   76SLPC  H14A 6797   3.488   3.104   6.233  0.8617  1.3741  0.8938
   76SLPC  H14B 6798   3.421   3.200   6.363 -1.4901  1.8757 -0.2071
   76SLPC  H14C 6799   3.319   3.069   6.288 -1.0239  0.4479  0.0554
   76SLPC   C15 6800   3.199   3.280   6.193  0.1206 -0.0463 -0.6992
   76SLPC  H15A 6801   3.136   3.193   6.204 -1.1198  0.9657  0.4944
   76SLPC  H15B 6802   3.194   3.338   6.284 -0.5056 -0.5210 -0.4182
   76SLPC  H15C 6803   3.171   3.343   6.111 -1.4114 -1.2441 -1.1400
   76SLPC   C12 6804   3.433   3.351   6.151 -0.1267 -0.0576  0.2757
   76SLPC  H12A 6805   3.534   3.321   6.124  0.6502  2.7351 -0.3207
   76SLPC  H12B 6806   3.447   3.401   6.246  4.3203  0.9175 -0.6375
   76SLPC   C11 6807   3.388   3.460   6.042 -0.1013 -0.0361 -0.8371
   76SLPC  H11A 6808   3.372   3.406   5.946 -0.6094 -0.2091 -0.6599
   76SLPC  H11B 6809   3.477   3.521   6.018  1.4331 -2.8116 -2.7738
   76SLPC     P 6810   3.260   3.679   6.130 -0.2882  0.3359 -0.3016
   76SLPC   O13 6811   3.332   3.764   6.032 -0.2974  0.2498  0.1015
   76SLPC   O14 6812   3.123   3.709   6.169 -0.2403 -0.2231 -0.8270
   76SLPC   O12 6813   3.272   3.529   6.085 -0.3364  0.6554  0.2213
   76SLPC   O11 6814   3.348   3.690   6.266  0.3101 -0.5143 -0.2110
   76SLPC    C1 6815   3.288   3.665   6.398  0.4314  0.1068 -0.0252
   76SLPC    HA 6816   3.211   3.739   6.427  0.3090  0.5687 -1.4584
   76SLPC    HB 6817   3.235   3.567   6.400 -2.1818  1.4611  0.6073
   76SLPC    C2 6818   3.399   3.674   6.502 -0.2262  0.9259 -0.1918
   76SLPC    HS 6819   3.365   3.626   6.596  3.0428 -0.3527  0.4714
   76SLPC   O21 6820   3.453   3.809   6.514 -0.3187  0.5977 -0.9391
   76SLPC   C21 6821   3.406   3.882   6.613 -0.0776 -0.4646 -0.0896
   76SLPC   O22 6822   3.324   3.847   6.699 -0.0359 -0.5322  0.3451
   76SLPC   C22 6823   3.495   4.009   6.613  0.1672 -0.3031 -0.3414
   76SLPC   H2R 6824   3.603   3.990   6.595 -0.3509 -2.9578 -0.9866
   76SLPC   H2S 6825   3.465   4.079   6.532  0.8531  1.3224  0.7345
   76SLPC    C3 6826   3.517   3.589   6.457 -0.2721  0.3192 -0.5630
   76SLPC    HX 6827   3.581   3.636   6.380  0.7279 -0.2067 -0.0817
   76SLPC    HY 6828   3.471   3.493   6.424  0.3682 -0.6682  1.2659
   76SLPC   O31 6829   3.598   3.552   6.571  0.4387 -0.2130 -0.0620
   76SLPC   C31 6830   3.698   3.633   6.594 -0.4690  0.7745  0.3111
   76SLPC   O32 6831   3.742   3.715   6.519  0.2546 -0.9227 -0.1318
   76SLPC   C32 6832   3.764   3.588   6.725  0.1015 -0.1130  0.4084
   76SLPC   H2X 6833   3.826   3.671   6.766  1.3574  0.1700 -1.8843
   76SLPC   H2Y 6834   3.827   3.501   6.697  0.6907  0.6384 -0.6635
   76SLPC   C23 6835   3.488   4.076   6.755 -0.1305 -0.6206 -0.8046
   76SLPC   H3R 6836   3.535   4.011   6.833 -1.0000 -0.6255 -0.2742
   76SLPC   H3S 6837   3.382   4.086   6.787 -0.1702 -2.2712 -0.2976
   76SLPC   C24 6838   3.550   4.214   6.769 -0.1054 -0.5433 -0.3406
   76SLPC   H4R 6839   3.536   4.280   6.681 -0.5719 -1.0334 -0.6386
   76SLPC   H4S 6840   3.660   4.194   6.775  0.8268  2.9942 -2.5902
   76SLPC   C25 6841   3.506   4.269   6.906 -0.0311 -0.3016  0.4007
   76SLPC   H5R 6842   3.522   4.187   6.980 -0.1136 -2.7404 -2.1328
   76SLPC   H5S 6843   3.398   4.294   6.901 -0.2559 -0.6965  2.4600
   76SLPC   C26 6844   3.580   4.396   6.952 -0.0207  0.1420  0.4511
   76SLPC   H6R 6845   3.573   4.475   6.874  0.3626  1.5513  1.7644
   76SLPC   H6S 6846   3.685   4.360   6.963 -0.6556 -2.1427 -0.5805
   76SLPC   C27 6847   3.524   4.452   7.070 -0.8305 -0.1676 -1.1070
   76SLPC   H7R 6848   3.501   4.370   7.141  0.2596  1.3850  1.1529
   76SLPC   H7S 6849   3.431   4.508   7.044 -0.6577  1.3945  1.3410
   76SLPC   C28 6850   3.605   4.548   7.148 -0.3323 -0.1803 -0.1227
   76SLPC   H8R 6851   3.657   4.605   7.068 -1.1533  0.2337 -0.3754
   76SLPC   H8S 6852   3.544   4.624   7.201  0.5381  0.2373  0.2964
   76SLPC   C29 6853   3.701   4.488   7.246  0.3946  0.3334  0.1547
   76SLPC   H9R 6854   3.779   4.429   7.195 -1.7719 -1.2207 -1.5528
   76SLPC  C210 6855   3.697   4.473   7.384  0.1876 -0.4848  0.2266
   76SLPC  H10R 6856   3.788   4.430   7.429  1.0008  1.2053  0.2878
   76SLPC  C211 6857   3.589   4.522   7.474  0.5367  0.2053 -0.0139
   76SLPC  H11R 6858   3.550   4.444   7.543  0.0516 -2.2103 -2.8012
   76SLPC  H11S 6859   3.504   4.570   7.422  0.5512 -0.6021 -0.8041
   76SLPC  C212 6860   3.650   4.638   7.550  0.0837  0.0386  0.3585
   76SLPC  H12R 6861   3.651   4.734   7.495  0.0345  0.6059  1.3213
   76SLPC  C213 6862   3.682   4.634   7.679 -0.7382 -0.0456 -0.0902
   76SLPC  H13R 6863   3.723   4.728   7.722  0.1418  0.1119 -1.2261
   76SLPC  C214 6864   3.678   4.522   7.784  0.5543 -0.3573  0.0136
   76SLPC  H14R 6865   3.783   4.509   7.819  0.6057 -1.3567 -0.4669
   76SLPC  H14S 6866   3.653   4.421   7.745 -0.2071 -0.5558  0.9581
   76SLPC  C215 6867   3.588   4.528   7.910  0.3345  0.0729  0.5291
   76SLPC  H15R 6868   3.602   4.443   7.979 -1.0685 -0.5266  0.1254
   76SLPC  H15S 6869   3.483   4.527   7.873  0.4604 -1.1372  0.1665
   76SLPC  C216 6870   3.608   4.653   7.997  0.4058  0.3693  0.8875
   76SLPC  H16R 6871   3.610   4.744   7.933  2.3074  0.0913  0.5081
   76SLPC  H16S 6872   3.707   4.646   8.047  1.3711 -0.5873 -1.0405
   76SLPC  C217 6873   3.498   4.671   8.103 -0.0927 -0.1246  0.1450
   76SLPC  H17R 6874   3.488   4.585   8.172 -1.2830 -2.5609 -2.8126
   76SLPC  H17S 6875   3.412   4.675   8.033 -0.4604 -1.0578  0.5347
   76SLPC  C218 6876   3.501   4.790   8.196  0.3988  0.1231 -0.3635
   76SLPC  H18R 6877   3.594   4.781   8.257  0.2540  1.6501  0.1156
   76SLPC  H18S 6878   3.416   4.799   8.267 -1.2228  1.2826 -2.3432
   76SLPC  H18T 6879   3.500   4.885   8.138  0.0787  0.1781 -0.2688
   76SLPC   C33 6880   3.663   3.537   6.837 -0.1790  0.7668 -0.3645
   76SLPC   H3X 6881   3.624   3.438   6.805 -0.1340  0.3406  0.8213
   76SLPC   H3Y 6882   3.567   3.592   6.839  0.1953  1.4685 -1.1771
   76SLPC   C34 6883   3.721   3.529   6.969 -0.0634 -0.5693  0.1626
   76SLPC   H4X 6884   3.798   3.449   6.973 -1.6510 -2.2658 -1.3042
   76SLPC   H4Y 6885   3.646   3.478   7.034 -0.9199 -0.8610 -1.0203
   76SLPC   C35 6886   3.774   3.653   7.048  0.5812  0.3361 -0.8072
   76SLPC   H5X 6887   3.708   3.743   7.052 -1.8568 -1.2936 -1.6047
   76SLPC   H5Y 6888   3.864   3.687   6.993  0.5722  0.5750 -0.6762
   76SLPC   C36 6889   3.827   3.622   7.192 -0.0720 -0.7767  0.0017
   76SLPC   H6X 6890   3.894   3.703   7.226 -0.8125  0.2840 -1.0034
   76SLPC   H6Y 6891   3.905   3.543   7.186 -0.0580 -0.8087  0.5703
   76SLPC   C37 6892   3.721   3.578   7.292  0.3800  0.2028  1.1646
   76SLPC   H7X 6893   3.670   3.487   7.253 -1.1682  1.8819 -1.0324
   76SLPC   H7Y 6894   3.644   3.656   7.313 -2.6241 -1.8767 -1.1369
   76SLPC   C38 6895   3.787   3.537   7.424  0.5135  0.0148  0.8958
   76SLPC   H8X 6896   3.898   3.539   7.428  0.5982 -1.7786  0.2553
   76SLPC   H8Y 6897   3.755   3.431   7.440 -0.9865  0.4229  0.7099
   76SLPC   C39 6898   3.736   3.630   7.537 -0.0625  0.2801 -0.0516
   76SLPC   H9X 6899   3.627   3.628   7.555  0.1313 -1.6544  1.1955
   76SLPC   H9Y 6900   3.765   3.733   7.507  1.1739 -0.1675 -0.4766
   76SLPC  C310 6901   3.790   3.588   7.667  0.5771 -0.6815 -0.1234
   76SLPC  H10X 6902   3.895   3.551   7.660  0.9067  0.3061 -0.6850
   76SLPC  H10Y 6903   3.734   3.501   7.706  2.7767 -2.5306 -0.8503
   76SLPC  C311 6904   3.782   3.706   7.770 -0.0450 -0.8557  0.0614
   76SLPC  H11X 6905   3.684   3.759   7.761  0.9266  1.5679  2.1825
   76SLPC  H11Y 6906   3.859   3.783   7.746  2.3021 -3.4992 -1.3559
   76SLPC  C312 6907   3.803   3.669   7.917  0.1568 -0.1044 -0.5447
   76SLPC  H12X 6908   3.890   3.600   7.911  0.1957  0.0279 -2.2749
   76SLPC  H12Y 6909   3.712   3.617   7.953  0.3441  1.5200  2.6369
   76SLPC  C313 6910   3.816   3.796   8.004 -0.4904  0.0430  0.0930
   76SLPC  H13X 6911   3.728   3.858   7.978 -2.4614 -2.9124 -0.7241
   76SLPC  H13Y 6912   3.900   3.858   7.966 -0.6350  1.6390  2.1619
   76SLPC  C314 6913   3.840   3.787   8.153  0.3057  0.5857 -0.3467
   76SLPC  H14X 6914   3.751   3.735   8.194 -0.5517  0.8205 -1.8160
   76SLPC  H14Y 6915   3.819   3.886   8.200 -2.7940  0.5431 -1.3766
   76SLPC  C315 6916   3.970   3.713   8.186  0.0694 -0.6874 -0.0141
   76SLPC  H15X 6917   4.054   3.776   8.150  0.0429  0.5879  2.0418
   76SLPC  H15Y 6918   3.963   3.620   8.125 -1.0103  0.0232 -1.0263
   76SLPC  C316 6919   4.006   3.692   8.335  0.4362 -0.0439  0.6839
   76SLPC  H16X 6920   3.927   3.744   8.392  1.1466 -0.0772  1.7255
   76SLPC  H16Y 6921   4.109   3.731   8.351  0.6544 -0.6812  0.8408
   76SLPC  C317 6922   4.007   3.541   8.371  0.1412 -0.2859  0.1037
   76SLPC  H17X 6923   4.084   3.483   8.316  0.1598  0.1296 -0.3186
   76SLPC  H17Y 6924   3.904   3.502   8.357  0.4968 -1.9018  1.6718
   76SLPC  C318 6925   4.036   3.509   8.517 -0.2208  0.6543 -0.1858
   76SLPC  H18X 6926   3.960   3.563   8.578  1.0345  3.5615 -0.9924
   76SLPC  H18Y 6927   4.135   3.551   8.544 -0.1226 -0.1940  0.8216
   76SLPC  H18Z 6928   4.028   3.401   8.539  2.5719  0.0101 -1.8665
   77SLPC     N 6929   4.774   4.605   6.500  0.0196  0.0159  0.6874
   77SLPC   C13 6930   4.865   4.488   6.511  0.0470  0.1952  0.2202
   77SLPC  H13A 6931   4.970   4.513   6.498 -0.0111  0.6129  0.5461
   77SLPC  H13B 6932   4.847   4.439   6.605 -0.0463 -1.3794 -0.5899
   77SLPC  H13C 6933   4.832   4.421   6.433  0.1843  4.0134 -3.5014
   77SLPC   C14 6934   4.632   4.560   6.491 -0.2071 -0.0364 -0.6518
   77SLPC  H14A 6935   4.569   4.647   6.481 -0.6082 -0.4580 -2.1741
   77SLPC  H14B 6936   4.611   4.503   6.401 -1.4018  0.3954 -0.6580
   77SLPC  H14C 6937   4.599   4.497   6.572  0.1003  0.6467  0.0212
   77SLPC   C15 6938   4.820   4.684   6.377  0.2038  1.0301 -0.3931
   77SLPC  H15A 6939   4.777   4.783   6.369  3.1527  2.3429 -1.4920
   77SLPC  H15B 6940   4.928   4.695   6.377  0.6806 -2.4379  1.3830
   77SLPC  H15C 6941   4.797   4.628   6.288  1.7147 -0.7572  0.2811
   77SLPC   C12 6942   4.804   4.688   6.626 -0.3297  0.3872  0.1098
   77SLPC  H12A 6943   4.907   4.697   6.654 -0.0105  0.4074 -1.0233
   77SLPC  H12B 6944   4.759   4.633   6.707  1.8363 -1.1976  0.3051
   77SLPC   C11 6945   4.740   4.834   6.626  0.4182 -0.4894 -0.7165
   77SLPC  H11A 6946   4.710   4.862   6.729 -2.3813  0.9585 -1.8263
   77SLPC  H11B 6947   4.646   4.837   6.567 -1.1966 -0.4432  1.7484
   77SLPC     P 6948   4.966   4.963   6.630 -0.3453 -0.0977  0.1006
   77SLPC   O13 6949   5.062   4.976   6.516 -0.0257  0.1221 -0.1310
   77SLPC   O14 6950   4.948   5.078   6.725  0.3216  0.3670 -0.4318
   77SLPC   O12 6951   4.823   4.934   6.574 -0.2226  0.8897 -0.2771
   77SLPC   O11 6952   5.026   4.841   6.701  0.6584  0.4974 -0.2286
   77SLPC    C1 6953   5.121   4.859   6.805 -0.8215  0.3635 -0.6990
   77SLPC    HA 6954   5.185   4.949   6.797 -0.2664  0.0529  0.1781
   77SLPC    HB 6955   5.069   4.881   6.901 -0.3208  0.1010 -0.3631
   77SLPC    C2 6956   5.203   4.731   6.827  0.0993  0.3821  0.2964
   77SLPC    HS 6957   5.168   4.645   6.766  0.6075  0.8823 -0.7247
   77SLPC   O21 6958   5.204   4.700   6.969 -0.4826  0.6804  0.2855
   77SLPC   C21 6959   5.249   4.579   7.005  0.3916 -0.2297 -0.0416
   77SLPC   O22 6960   5.283   4.490   6.925  0.6438 -0.3272 -0.0593
   77SLPC   C22 6961   5.250   4.569   7.153 -0.5840  0.8410 -0.3387
   77SLPC   H2R 6962   5.305   4.655   7.198 -2.2376  1.6638  0.1978
   77SLPC   H2S 6963   5.144   4.573   7.184 -0.4530  1.4276  0.0529
   77SLPC    C3 6964   5.353   4.762   6.782  0.6703 -0.1867  0.3137
   77SLPC    HX 6965   5.345   4.806   6.680  1.0462  0.9738  0.7700
   77SLPC    HY 6966   5.406   4.666   6.768 -0.1709 -0.4867 -0.9735
   77SLPC   O31 6967   5.428   4.853   6.864 -0.0955  0.4329  0.3740
   77SLPC   C31 6968   5.520   4.806   6.943 -0.0577 -0.3484 -0.9608
   77SLPC   O32 6969   5.559   4.690   6.941  0.7184  0.1452  0.2019
   77SLPC   C32 6970   5.570   4.908   7.041 -0.0767  0.4990 -0.3686
   77SLPC   H2X 6971   5.506   4.993   7.073  0.3764  0.3928  0.9094
   77SLPC   H2Y 6972   5.657   4.960   6.997  0.3185 -1.3480 -1.8993
   77SLPC   C23 6973   5.332   4.451   7.200 -0.1865  0.0339 -0.3801
   77SLPC   H3R 6974   5.435   4.456   7.157  1.9037  1.4367  4.1281
   77SLPC   H3S 6975   5.285   4.356   7.166 -1.1481  0.3368  0.0722
   77SLPC   C24 6976   5.351   4.443   7.359 -0.5683  0.3565 -0.2959
   77SLPC   H4R 6977   5.388   4.542   7.395 -0.6760 -0.1510  1.2822
   77SLPC   H4S 6978   5.428   4.369   7.388 -0.2819  1.6462  2.5670
   77SLPC   C25 6979   5.225   4.410   7.444  0.3734 -0.3174  0.1755
   77SLPC   H5R 6980   5.191   4.310   7.410  2.0435 -0.7853 -0.1804
   77SLPC   H5S 6981   5.156   4.486   7.402  0.8635 -1.1211 -2.2326
   77SLPC   C26 6982   5.226   4.425   7.596 -0.7298  0.4226 -0.4548
   77SLPC   H6R 6983   5.272   4.523   7.623 -0.3829  0.3609 -0.7974
   77SLPC   H6S 6984   5.291   4.348   7.643 -1.6493 -1.2812 -1.8462
   77SLPC   C27 6985   5.091   4.409   7.665  0.0456 -0.0586 -0.8608
   77SLPC   H7R 6986   5.059   4.303   7.676 -3.7154  0.9187 -1.1226
   77SLPC   H7S 6987   5.013   4.471   7.616 -0.4044  1.4869  1.6240
   77SLPC   C28 6988   5.110   4.476   7.808  0.3495 -0.6372 -0.0343
   77SLPC   H8R 6989   5.006   4.485   7.845  0.9285  1.9404  1.2220
   77SLPC   H8S 6990   5.159   4.574   7.789  1.0498 -1.0402 -0.3573
   77SLPC   C29 6991   5.192   4.386   7.905 -0.6936  0.7446 -0.0080
   77SLPC   H9R 6992   5.299   4.413   7.911 -0.8791  1.3654  0.6680
   77SLPC  C210 6993   5.144   4.313   8.002  0.2146  0.2727 -0.8923
   77SLPC  H10R 6994   5.219   4.259   8.062 -0.2945  0.3858 -0.1341
   77SLPC  C211 6995   4.999   4.286   8.030  0.5779 -0.8647 -0.3589
   77SLPC  H11R 6996   4.990   4.197   8.097 -1.1671  1.4761  2.7400
   77SLPC  H11S 6997   4.936   4.256   7.944  1.0637 -1.2437 -0.5924
   77SLPC  C212 6998   4.931   4.400   8.099  0.6810  0.1154 -0.1278
   77SLPC  H12R 6999   4.898   4.485   8.037 -0.4231  0.8178  1.3635
   77SLPC  C213 7000   4.886   4.407   8.225  0.2030  0.3593  0.7055
   77SLPC  H13R 7001   4.832   4.498   8.257 -1.0692 -0.8419  2.0981
   77SLPC  C214 7002   4.903   4.303   8.328  0.5986 -0.0004 -0.1685
   77SLPC  H14R 7003   4.897   4.201   8.285 -1.2881  0.2962 -0.6979
   77SLPC  H14S 7004   4.819   4.309   8.400  1.0530 -0.3981  0.4040
   77SLPC  C215 7005   5.041   4.326   8.398 -0.1769 -0.3544  0.3020
   77SLPC  H15R 7006   5.054   4.430   8.435 -2.2035  0.1816 -0.3542
   77SLPC  H15S 7007   5.120   4.311   8.322  1.3078  2.7344  1.0877
   77SLPC  C216 7008   5.069   4.228   8.519 -0.8023  0.4641 -0.2612
   77SLPC  H16R 7009   5.067   4.123   8.483 -1.8565  0.3947 -0.0517
   77SLPC  H16S 7010   4.986   4.233   8.593 -1.1518  0.4021 -0.6437
   77SLPC  C217 7011   5.208   4.248   8.585 -0.0924  0.0129 -0.6409
   77SLPC  H17R 7012   5.291   4.211   8.520  0.8302  0.1200  0.4428
   77SLPC  H17S 7013   5.211   4.185   8.676  2.4277  0.1456 -0.5506
   77SLPC  C218 7014   5.242   4.393   8.619 -0.8661 -0.3794  0.1695
   77SLPC  H18R 7015   5.161   4.444   8.677 -0.2446  3.3131 -1.8685
   77SLPC  H18S 7016   5.274   4.457   8.535  1.1228 -0.6250  0.6979
   77SLPC  H18T 7017   5.329   4.396   8.688 -1.3816 -1.7331  0.9053
   77SLPC   C33 7018   5.608   4.844   7.189  0.4443 -0.0662 -0.3291
   77SLPC   H3X 7019   5.658   4.746   7.182 -1.9750 -1.4130  0.2141
   77SLPC   H3Y 7020   5.510   4.833   7.241 -1.0229 -0.5470 -2.9655
   77SLPC   C34 7021   5.696   4.930   7.279  0.7499  0.2575  0.2667
   77SLPC   H4X 7022   5.698   4.880   7.378  0.3202 -1.9458 -0.7832
   77SLPC   H4Y 7023   5.665   5.034   7.303 -4.1117 -0.2801 -2.3780
   77SLPC   C35 7024   5.843   4.928   7.231  0.0098  0.3664  0.3000
   77SLPC   H5X 7025   5.844   4.986   7.137  0.5972 -0.7151 -0.3780
   77SLPC   H5Y 7026   5.879   4.827   7.203 -1.3604 -0.5862  1.8314
   77SLPC   C36 7027   5.933   4.995   7.341  0.2065  0.5265 -0.3703
   77SLPC   H6X 7028   5.913   5.103   7.354 -1.2591  0.2768 -0.3595
   77SLPC   H6Y 7029   6.038   4.992   7.306 -0.0490  0.7219 -1.1730
   77SLPC   C37 7030   5.918   4.917   7.468  0.2547  0.2691  0.1223
   77SLPC   H7X 7031   5.879   4.816   7.447 -0.0454  0.0913  1.4491
   77SLPC   H7Y 7032   5.840   4.962   7.533 -0.2685 -1.4728  0.7625
   77SLPC   C38 7033   6.052   4.904   7.542 -0.3480  0.0259  1.4626
   77SLPC   H8X 7034   6.085   5.002   7.583 -1.3918  0.5370  1.1420
   77SLPC   H8Y 7035   6.125   4.851   7.477  0.6735 -0.6714  3.1224
   77SLPC   C39 7036   6.040   4.800   7.657 -0.6369  0.0174 -0.3364
   77SLPC   H9X 7037   5.946   4.807   7.716  1.2138 -0.8374  2.9650
   77SLPC   H9Y 7038   6.119   4.822   7.732 -1.1848 -0.7999  0.4976
   77SLPC  C310 7039   6.054   4.657   7.605 -0.2690 -0.2471  0.0453
   77SLPC  H10X 7040   6.141   4.632   7.540  0.8535 -1.4615  1.9123
   77SLPC  H10Y 7041   5.962   4.636   7.547 -0.9092  2.2158  0.0671
   77SLPC  C311 7042   6.053   4.556   7.719 -0.3866  0.0714 -0.5256
   77SLPC  H11X 7043   6.030   4.460   7.670  0.1613 -0.6936  0.6739
   77SLPC  H11Y 7044   5.970   4.575   7.791  0.3033  0.6839  0.1283
   77SLPC  C312 7045   6.181   4.556   7.817  0.5837  0.8618  0.6205
   77SLPC  H12X 7046   6.242   4.649   7.805 -0.9867  1.8558  0.0140
   77SLPC  H12Y 7047   6.250   4.475   7.787 -1.2795 -0.0338 -1.4650
   77SLPC  C313 7048   6.151   4.552   7.966 -0.1439  0.5290 -0.2507
   77SLPC  H13X 7049   6.090   4.641   7.992 -0.7447 -0.4807  2.1570
   77SLPC  H13Y 7050   6.241   4.549   8.031  0.3198  1.7118 -0.8173
   77SLPC  C314 7051   6.070   4.428   8.003  0.6677 -0.0444 -0.7208
   77SLPC  H14X 7052   6.125   4.333   7.984 -1.0237 -1.0549 -0.7846
   77SLPC  H14Y 7053   5.978   4.419   7.941  0.4169 -0.1198 -0.3418
   77SLPC  C315 7054   6.028   4.436   8.149 -0.8815 -0.2339  0.1202
   77SLPC  H15X 7055   5.964   4.524   8.171 -0.7846 -0.0406 -0.3602
   77SLPC  H15Y 7056   6.115   4.463   8.213  0.2063 -1.5483 -0.7543
   77SLPC  C316 7057   5.968   4.309   8.203  0.5344 -0.3214 -0.3041
   77SLPC  H16X 7058   6.054   4.239   8.211  2.4451  1.9463  0.2713
   77SLPC  H16Y 7059   5.884   4.264   8.146 -1.2897 -0.1089  2.0788
   77SLPC  C317 7060   5.915   4.331   8.345 -0.6142 -0.2069 -0.1965
   77SLPC  H17X 7061   5.827   4.396   8.325  0.4973  1.4955  0.1915
   77SLPC  H17Y 7062   6.004   4.375   8.397  0.1324 -0.9688 -0.8000
   77SLPC  C318 7063   5.882   4.205   8.420 -0.0966 -0.0310 -0.0621
   77SLPC  H18X 7064   5.886   4.236   8.527  3.2955  1.4438 -0.4895
   77SLPC  H18Y 7065   5.951   4.119   8.408  1.8050  1.7732 -3.0270
   77SLPC  H18Z 7066   5.780   4.177   8.385 -0.1720 -0.0373  0.1612
   78SLPC     N 7067   2.049   4.033   6.127  0.0295 -0.4661 -0.2497
   78SLPC   C13 7068   1.917   4.091   6.098  0.1068  1.0968 -0.0002
   78SLPC  H13A 7069   1.917   4.193   6.132  0.7379  1.9320 -2.2711
   78SLPC  H13B 7070   1.891   4.082   5.993 -1.0333  1.5418  0.2253
   78SLPC  H13C 7071   1.835   4.042   6.149  0.2549 -0.0031 -0.7795
   78SLPC   C14 7072   2.141   4.115   6.043 -0.5617 -0.0186  0.3815
   78SLPC  H14A 7073   2.135   4.220   6.068  0.2440  0.0958  0.1177
   78SLPC  H14B 7074   2.243   4.082   6.047  0.7805  3.7248  1.2654
   78SLPC  H14C 7075   2.109   4.106   5.940 -1.0185  0.7336  0.4440
   78SLPC   C15 7076   2.045   3.887   6.096  0.4913  0.5089 -0.5183
   78SLPC  H15A 7077   1.983   3.847   6.175  2.1863  1.8389  1.6352
   78SLPC  H15B 7078   1.997   3.873   6.001 -2.3217 -1.3463  1.0448
   78SLPC  H15C 7079   2.142   3.840   6.095  0.3285  0.1766 -1.2340
   78SLPC   C12 7080   2.080   4.062   6.278 -0.2005  0.5077 -0.5645
   78SLPC  H12A 7081   2.006   4.012   6.340 -0.2090  0.1850 -0.8310
   78SLPC  H12B 7082   2.061   4.165   6.306  1.3072  0.3465  1.2644
   78SLPC   C11 7083   2.230   4.042   6.318  0.4172 -0.3162  0.1617
   78SLPC  H11A 7084   2.249   4.098   6.412  0.1611  1.9540 -1.0579
   78SLPC  H11B 7085   2.285   4.087   6.232 -2.3505 -0.4916 -1.8646
   78SLPC     P 7086   2.241   3.815   6.449  0.4409 -0.0771 -0.0484
   78SLPC   O13 7087   2.098   3.786   6.464  0.2721  0.2314  0.2942
   78SLPC   O14 7088   2.324   3.694   6.441 -0.5298 -0.1376  0.5525
   78SLPC   O12 7089   2.264   3.909   6.332  0.0810 -1.0158  0.7439
   78SLPC   O11 7090   2.291   3.898   6.577  0.5689 -0.4913  0.4468
   78SLPC    C1 7091   2.420   3.912   6.612 -0.0547 -0.2145  0.5549
   78SLPC    HA 7092   2.488   3.914   6.524  0.5346 -0.2315  1.0100
   78SLPC    HB 7093   2.452   4.012   6.648 -0.1486  0.5956 -1.4477
   78SLPC    C2 7094   2.464   3.814   6.718  0.7247  0.5064  0.3085
   78SLPC    HS 7095   2.418   3.714   6.700  1.8991 -1.1340  4.9596
   78SLPC   O21 7096   2.414   3.870   6.841 -0.2737  0.5708  0.0573
   78SLPC   C21 7097   2.291   3.838   6.874 -0.4855 -0.2672  0.0997
   78SLPC   O22 7098   2.222   3.765   6.808  0.3307 -0.0615  0.0501
   78SLPC   C22 7099   2.249   3.904   7.002  0.2844  0.8497 -0.2302
   78SLPC   H2R 7100   2.282   4.011   7.003  0.4848  0.7923  0.8786
   78SLPC   H2S 7101   2.138   3.898   7.002  0.1956  2.1172 -1.1303
   78SLPC    C3 7102   2.613   3.789   6.735 -0.1378 -0.1281 -0.0634
   78SLPC    HX 7103   2.666   3.886   6.739  1.7336 -1.0692 -0.8345
   78SLPC    HY 7104   2.654   3.737   6.646 -2.6368 -0.2817 -1.2114
   78SLPC   O31 7105   2.640   3.709   6.863  0.6376  0.3166  0.4395
   78SLPC   C31 7106   2.719   3.762   6.951 -0.7954 -0.0100  0.3808
   78SLPC   O32 7107   2.785   3.864   6.944  0.0067  0.0252 -0.1453
   78SLPC   C32 7108   2.708   3.667   7.071 -0.1343 -0.2774 -0.2473
   78SLPC   H2X 7109   2.698   3.559   7.044 -1.5499 -0.1933 -0.1540
   78SLPC   H2Y 7110   2.611   3.699   7.114  1.0014  1.2576  1.2919
   78SLPC   C23 7111   2.307   3.830   7.119  0.0950 -0.1713 -0.7480
   78SLPC   H3R 7112   2.415   3.805   7.118 -0.2183 -1.7146  0.5846
   78SLPC   H3S 7113   2.254   3.733   7.127 -1.0954  0.5400  0.5500
   78SLPC   C24 7114   2.278   3.907   7.248 -0.1600  0.4232 -0.4151
   78SLPC   H4R 7115   2.174   3.941   7.265  0.0885  0.5252  1.0516
   78SLPC   H4S 7116   2.340   3.998   7.238 -0.4487  0.6375 -0.2646
   78SLPC   C25 7117   2.304   3.827   7.379 -0.9271 -0.3384 -0.1577
   78SLPC   H5R 7118   2.404   3.778   7.380 -0.6092  0.3032  0.0811
   78SLPC   H5S 7119   2.232   3.743   7.379  0.2766 -1.4018 -0.4792
   78SLPC   C26 7120   2.279   3.919   7.507 -0.9155  0.1052  0.7814
   78SLPC   H6R 7121   2.171   3.923   7.531 -1.3805  0.1899 -1.2159
   78SLPC   H6S 7122   2.321   4.020   7.488 -0.5478 -0.0255  0.8849
   78SLPC   C27 7123   2.349   3.858   7.629 -0.3372  0.8876  0.3118
   78SLPC   H7R 7124   2.460   3.863   7.616  0.2389 -0.0472  3.7485
   78SLPC   H7S 7125   2.327   3.750   7.642  1.7208  0.2729 -0.7510
   78SLPC   C28 7126   2.303   3.942   7.753  0.0638 -0.3465 -0.5285
   78SLPC   H8R 7127   2.194   3.929   7.775  0.1532 -2.2194 -1.0665
   78SLPC   H8S 7128   2.328   4.049   7.738  0.4764 -0.3403  0.1607
   78SLPC   C29 7129   2.390   3.902   7.872  0.6593 -0.1034  0.4229
   78SLPC   H9R 7130   2.494   3.866   7.860  1.2055  1.3929  0.3370
   78SLPC  C210 7131   2.342   3.895   7.993 -0.7667  0.2747  0.0687
   78SLPC  H10R 7132   2.418   3.880   8.072 -1.5334  0.4460  0.8516
   78SLPC  C211 7133   2.203   3.915   8.045 -0.6315  0.0003 -0.3958
   78SLPC  H11R 7134   2.167   3.821   8.093 -3.2929  0.4518 -1.3571
   78SLPC  H11S 7135   2.135   3.919   7.957 -0.0910 -1.0325 -0.8839
   78SLPC  C212 7136   2.180   4.024   8.149 -0.5155 -1.3078  0.5811
   78SLPC  H12R 7137   2.134   4.114   8.107 -1.3698 -1.8546  0.3225
   78SLPC  C213 7138   2.189   4.016   8.285  0.5526  0.5877  0.0638
   78SLPC  H13R 7139   2.180   4.105   8.350  0.3728  0.2283  0.5356
   78SLPC  C214 7140   2.222   3.901   8.366 -0.1203 -0.5627 -0.2721
   78SLPC  H14R 7141   2.249   3.808   8.311  2.0787  1.0676 -2.1170
   78SLPC  H14S 7142   2.143   3.879   8.441  0.4776  1.3623  1.0012
   78SLPC  C215 7143   2.350   3.936   8.441  1.2387  0.5963  0.2349
   78SLPC  H15R 7144   2.366   3.874   8.532  0.6063  1.3514  0.8828
   78SLPC  H15S 7145   2.358   4.043   8.471 -1.9639  1.8749 -2.7884
   78SLPC  C216 7146   2.483   3.899   8.369  0.2209  0.5172 -0.1964
   78SLPC  H16R 7147   2.489   3.960   8.276  2.3937  2.3048  1.0117
   78SLPC  H16S 7148   2.488   3.792   8.342  1.7113  1.0348 -2.2249
   78SLPC  C217 7149   2.606   3.942   8.447 -0.2736 -0.2131 -0.3148
   78SLPC  H17R 7150   2.586   3.903   8.549  2.1004 -0.7596  0.0099
   78SLPC  H17S 7151   2.595   4.052   8.445 -3.6462 -0.4011  1.3341
   78SLPC  C218 7152   2.738   3.885   8.405 -0.0311  0.2971 -0.3973
   78SLPC  H18R 7153   2.747   3.880   8.295  1.1641 -1.1405 -0.2564
   78SLPC  H18S 7154   2.749   3.780   8.440 -0.3418  0.3013 -0.2866
   78SLPC  H18T 7155   2.818   3.949   8.450 -0.1521 -0.3326  0.7437
   78SLPC   C33 7156   2.814   3.690   7.184 -0.4282  0.7116  0.7677
   78SLPC   H3X 7157   2.845   3.796   7.202  4.3194 -0.2703 -0.2374
   78SLPC   H3Y 7158   2.905   3.644   7.140  0.9632  2.1015  2.0461
   78SLPC   C34 7159   2.794   3.624   7.310 -0.0038 -0.1475 -0.6350
   78SLPC   H4X 7160   2.870   3.665   7.381  0.0963 -1.1390 -0.1531
   78SLPC   H4Y 7161   2.802   3.513   7.303 -1.3843 -0.2044 -1.6057
   78SLPC   C35 7162   2.657   3.660   7.378  0.0369 -0.4782  0.5801
   78SLPC   H5X 7163   2.582   3.632   7.301  2.1345  0.3006 -1.9017
   78SLPC   H5Y 7164   2.653   3.770   7.385 -0.8779 -0.5318  1.0649
   78SLPC   C36 7165   2.628   3.624   7.524  0.4018 -0.2609 -0.4430
   78SLPC   H6X 7166   2.623   3.514   7.540  2.9493 -0.4466 -0.5792
   78SLPC   H6Y 7167   2.523   3.654   7.545  0.6362  1.4541 -1.5892
   78SLPC   C37 7168   2.720   3.684   7.634 -0.4809  0.4340  0.3410
   78SLPC   H7X 7169   2.702   3.793   7.640  0.9418  0.8923 -2.5073
   78SLPC   H7Y 7170   2.826   3.659   7.613  0.0461  2.6733  0.1589
   78SLPC   C38 7171   2.677   3.626   7.767  0.7402  0.6365  0.3440
   78SLPC   H8X 7172   2.673   3.515   7.768 -1.3649  0.6375 -1.6968
   78SLPC   H8Y 7173   2.568   3.643   7.777  0.7293  0.1889  1.0994
   78SLPC   C39 7174   2.762   3.684   7.883  0.0201  0.0302  0.2203
   78SLPC   H9X 7175   2.694   3.680   7.971  1.9785  0.8159  1.8374
   78SLPC   H9Y 7176   2.782   3.789   7.855 -0.1793  0.0451  0.1307
   78SLPC  C310 7177   2.886   3.613   7.930 -0.5515  0.4657  0.3920
   78SLPC  H10X 7178   2.960   3.601   7.848 -0.8521  0.4777  0.1166
   78SLPC  H10Y 7179   2.864   3.511   7.968  3.0755 -1.6315 -2.4745
   78SLPC  C311 7180   2.949   3.675   8.047 -0.3570 -0.6120  0.2362
   78SLPC  H11X 7181   2.883   3.672   8.136 -0.8782  0.1435 -0.1125
   78SLPC  H11Y 7182   2.971   3.782   8.028  1.4746 -0.9543  0.2391
   78SLPC  C312 7183   3.080   3.600   8.081 -0.1408  0.2212  0.1638
   78SLPC  H12X 7184   3.170   3.624   8.021  1.5910 -2.2894  1.5555
   78SLPC  H12Y 7185   3.056   3.492   8.076  1.5243 -0.1509 -0.6867
   78SLPC  C313 7186   3.115   3.608   8.232  0.3998 -0.2526  0.5567
   78SLPC  H13X 7187   3.022   3.585   8.288 -0.2908  0.2988 -0.3344
   78SLPC  H13Y 7188   3.155   3.705   8.267  0.2214  0.4039 -0.9504
   78SLPC  C314 7189   3.211   3.498   8.269 -0.2179  0.4293 -0.1407
   78SLPC  H14X 7190   3.211   3.429   8.182 -0.3081 -1.7049  1.4855
   78SLPC  H14Y 7191   3.176   3.436   8.354  0.7481 -0.3980 -0.3210
   78SLPC  C315 7192   3.355   3.547   8.295 -0.5858 -0.8662 -0.1944
   78SLPC  H15X 7193   3.358   3.615   8.383  2.3145 -1.0890 -0.0114
   78SLPC  H15Y 7194   3.397   3.601   8.207  1.6395 -2.8152 -0.4343
   78SLPC  C316 7195   3.455   3.433   8.321  0.3593 -0.4825  0.0207
   78SLPC  H16X 7196   3.456   3.353   8.244  0.9462  1.6032 -2.2730
   78SLPC  H16Y 7197   3.430   3.394   8.422  3.9422  0.8864  1.6167
   78SLPC  C317 7198   3.600   3.486   8.338 -0.4518 -0.2088 -0.1002
   78SLPC  H17X 7199   3.624   3.548   8.249  0.4306  0.9749  0.9177
   78SLPC  H17Y 7200   3.649   3.387   8.333  0.5058  0.2176  0.5076
   78SLPC  C318 7201   3.639   3.549   8.474  0.0868 -0.2961  0.2677
   78SLPC  H18X 7202   3.625   3.472   8.552  0.0612 -2.2883 -1.6057
   78SLPC  H18Y 7203   3.563   3.628   8.489 -0.8864 -1.4837  1.8825
   78SLPC  H18Z 7204   3.739   3.599   8.480  0.5464 -1.2648  0.9037
   79SLPC     N 7205   5.469   0.564   5.910 -0.3000 -0.5688 -0.4314
   79SLPC   C13 7206   5.426   0.618   6.044 -0.3232  0.1473  0.2258
   79SLPC  H13A 7207   5.388   0.530   6.092 -3.1571  1.0357 -0.1356
   79SLPC  H13B 7208   5.515   0.663   6.085  1.0734 -1.4445 -0.9479
   79SLPC  H13C 7209   5.352   0.697   6.033 -1.1945 -0.6025  0.5762
   79SLPC   C14 7210   5.551   0.670   5.843  0.1364  0.4377 -0.0562
   79SLPC  H14A 7211   5.639   0.706   5.894  0.8553 -1.1726 -0.1030
   79SLPC  H14B 7212   5.582   0.631   5.748 -1.7410 -0.1835 -0.4531
   79SLPC  H14C 7213   5.485   0.754   5.826  0.0726  0.3552 -0.2149
   79SLPC   C15 7214   5.352   0.532   5.815 -0.0675 -0.3854 -0.2577
   79SLPC  H15A 7215   5.389   0.494   5.721 -0.4583  2.4128 -1.6626
   79SLPC  H15B 7216   5.294   0.455   5.864  1.6878 -3.8232 -3.1184
   79SLPC  H15C 7217   5.297   0.625   5.809  0.0225 -0.3974 -1.5630
   79SLPC   C12 7218   5.549   0.433   5.936  0.4451 -0.7945 -0.4424
   79SLPC  H12A 7219   5.585   0.388   5.845  0.8573  0.3391 -0.8585
   79SLPC  H12B 7220   5.482   0.362   5.982 -0.2453  0.4396  0.5173
   79SLPC   C11 7221   5.671   0.457   6.027 -0.2585  0.0729 -0.0879
   79SLPC  H11A 7222   5.713   0.555   5.996  0.4204 -0.5991 -1.3787
   79SLPC  H11B 7223   5.744   0.375   6.010  0.2804  0.1336  1.8138
   79SLPC     P 7224   5.731   0.472   6.274  0.1527  0.3626 -0.1998
   79SLPC   O13 7225   5.802   0.343   6.297  0.1053 -0.9490  0.3714
   79SLPC   O14 7226   5.812   0.589   6.241 -0.2803 -0.6799  0.5717
   79SLPC   O12 7227   5.619   0.447   6.161  0.0932 -0.3403  0.7374
   79SLPC   O11 7228   5.648   0.499   6.402 -0.1290  0.6595  0.4420
   79SLPC    C1 7229   5.509   0.464   6.403 -1.4748  0.3241  0.6159
   79SLPC    HA 7230   5.456   0.523   6.326 -2.2270  0.2937  1.1022
   79SLPC    HB 7231   5.492   0.356   6.389 -1.8411  0.6339 -1.6241
   79SLPC    C2 7232   5.458   0.499   6.543 -0.3338 -0.0410 -0.3342
   79SLPC    HS 7233   5.356   0.456   6.550 -0.7470  0.7148 -1.3615
   79SLPC   O21 7234   5.447   0.633   6.567 -0.3677 -0.8599 -0.2552
   79SLPC   C21 7235   5.354   0.700   6.512  0.3439 -0.2350  0.4502
   79SLPC   O22 7236   5.286   0.654   6.420 -0.0587 -0.2176  0.6449
   79SLPC   C22 7237   5.339   0.844   6.567  0.3012 -0.2467  0.1188
   79SLPC   H2R 7238   5.436   0.895   6.549  0.2136 -0.8519 -2.4520
   79SLPC   H2S 7239   5.265   0.902   6.507 -0.3327 -0.3271  0.8020
   79SLPC    C3 7240   5.548   0.433   6.651 -0.7120  0.3560  0.4365
   79SLPC    HX 7241   5.633   0.504   6.660 -0.2775  0.7157 -4.2581
   79SLPC    HY 7242   5.584   0.335   6.613  0.5613  0.2701  1.7364
   79SLPC   O31 7243   5.481   0.422   6.777 -0.3495  0.3741  0.6114
   79SLPC   C31 7244   5.379   0.339   6.787  0.6354  0.2330 -0.9049
   79SLPC   O32 7245   5.329   0.276   6.695  0.0401 -0.6046  0.3531
   79SLPC   C32 7246   5.317   0.334   6.923  0.5917 -0.1118 -0.0691
   79SLPC   H2X 7247   5.285   0.232   6.953 -2.2013  0.7779  0.2022
   79SLPC   H2Y 7248   5.217   0.381   6.936  1.6819  1.8722  1.8144
   79SLPC   C23 7249   5.288   0.832   6.711 -0.7429 -0.1375 -0.4236
   79SLPC   H3R 7250   5.267   0.935   6.749 -1.3539 -0.2625 -0.4133
   79SLPC   H3S 7251   5.357   0.777   6.778 -0.5822 -1.8427 -1.9380
   79SLPC   C24 7252   5.154   0.760   6.716  0.7447 -0.0259 -0.7302
   79SLPC   H4R 7253   5.168   0.650   6.716 -0.1605 -0.2517  2.5684
   79SLPC   H4S 7254   5.094   0.788   6.626 -0.3493  2.6809  0.7331
   79SLPC   C25 7255   5.073   0.787   6.852 -0.4304 -0.4043  0.5151
   79SLPC   H5R 7256   4.976   0.734   6.860 -0.8419  0.1644 -0.5138
   79SLPC   H5S 7257   5.054   0.897   6.847  2.4194  0.1602  0.4097
   79SLPC   C26 7258   5.158   0.748   6.980 -0.4133  0.3348 -0.0666
   79SLPC   H6R 7259   5.259   0.792   6.981 -0.1404 -0.1811  2.5811
   79SLPC   H6S 7260   5.178   0.639   6.972 -0.5752  0.3061 -0.0928
   79SLPC   C27 7261   5.089   0.790   7.117 -0.1645 -0.0940  0.2161
   79SLPC   H7R 7262   4.998   0.727   7.111  0.0162 -0.3745  0.3518
   79SLPC   H7S 7263   5.052   0.894   7.121  0.8494  0.2546  0.8046
   79SLPC   C28 7264   5.171   0.761   7.240 -0.0059  0.6702  0.2652
   79SLPC   H8R 7265   5.235   0.674   7.214  0.4757  0.9686  0.4336
   79SLPC   H8S 7266   5.103   0.731   7.322 -0.1095  2.3078  0.8166
   79SLPC   C29 7267   5.254   0.883   7.266 -0.1628 -0.6089 -0.1035
   79SLPC   H9R 7268   5.315   0.919   7.182 -1.1924  0.1218 -0.5466
   79SLPC  C210 7269   5.270   0.948   7.382  0.6771  0.5209 -0.5936
   79SLPC  H10R 7270   5.331   1.039   7.385  0.2164  0.8163  0.1301
   79SLPC  C211 7271   5.209   0.903   7.513  0.6980 -0.1600  0.0546
   79SLPC  H11R 7272   5.282   0.826   7.547 -1.1228 -3.4107 -2.7543
   79SLPC  H11S 7273   5.115   0.848   7.491  1.0597 -0.7703  0.0084
   79SLPC  C212 7274   5.183   1.007   7.615 -0.0739 -0.1834  0.1392
   79SLPC  H12R 7275   5.144   1.102   7.576 -0.3190 -0.4287 -0.2129
   79SLPC  C213 7276   5.211   1.009   7.749 -0.0669 -0.0970 -0.3855
   79SLPC  H13R 7277   5.191   1.097   7.812  0.0033 -0.0497 -0.4285
   79SLPC  C214 7278   5.268   0.896   7.831 -0.1454  0.2014  0.1855
   79SLPC  H14R 7279   5.227   0.797   7.801 -0.9798  0.8281 -0.8442
   79SLPC  H14S 7280   5.236   0.899   7.937 -0.3996 -2.1270  0.2135
   79SLPC  C215 7281   5.424   0.891   7.832  0.4132 -0.5968 -0.5145
   79SLPC  H15R 7282   5.446   0.845   7.734  0.1279 -0.1609 -0.7874
   79SLPC  H15S 7283   5.456   0.817   7.909 -1.3107 -0.4476  0.3872
   79SLPC  C216 7284   5.493   1.023   7.850  0.0800 -0.5279  0.3196
   79SLPC  H16R 7285   5.482   1.082   7.756 -0.4879 -1.1044  0.0184
   79SLPC  H16S 7286   5.600   0.995   7.848 -0.0884 -1.1834 -1.5988
   79SLPC  C217 7287   5.459   1.094   7.991 -0.6101  0.1302  0.6690
   79SLPC  H17R 7288   5.351   1.088   8.016 -0.8863  3.2015  0.6103
   79SLPC  H17S 7289   5.483   1.202   7.986 -0.5207  0.2446  2.7613
   79SLPC  C218 7290   5.547   1.032   8.099  0.2250 -0.0596  0.4667
   79SLPC  H18R 7291   5.653   1.030   8.069 -0.1629 -0.3938 -0.9639
   79SLPC  H18S 7292   5.519   0.925   8.117  0.9704 -0.2582  0.4856
   79SLPC  H18T 7293   5.526   1.091   8.191 -2.3787  1.7516 -1.1476
   79SLPC   C33 7294   5.408   0.408   7.027 -0.1490 -0.5555 -0.7149
   79SLPC   H3X 7295   5.397   0.516   7.003 -0.9631 -0.2202  0.9795
   79SLPC   H3Y 7296   5.514   0.386   7.003  0.1670  1.0825 -0.9877
   79SLPC   C34 7297   5.385   0.385   7.178  0.2093  0.0921  0.3421
   79SLPC   H4X 7298   5.402   0.277   7.198  2.1701  0.4032  0.5926
   79SLPC   H4Y 7299   5.279   0.407   7.202 -0.2412 -1.0303 -0.5224
   79SLPC   C35 7300   5.481   0.464   7.271  1.1465 -0.5911 -0.1104
   79SLPC   H5X 7301   5.471   0.571   7.246 -0.7150 -0.9976 -1.3867
   79SLPC   H5Y 7302   5.586   0.428   7.266  1.1557 -0.7142  0.7795
   79SLPC   C36 7303   5.436   0.454   7.425  0.6098 -0.6506  0.1978
   79SLPC   H6X 7304   5.476   0.356   7.459  2.3353  0.1854  0.7184
   79SLPC   H6Y 7305   5.326   0.463   7.436  0.8212  0.5223  1.4902
   79SLPC   C37 7306   5.501   0.575   7.498  0.7204  0.6306 -0.5243
   79SLPC   H7X 7307   5.433   0.661   7.487  1.4066  1.3105  0.4028
   79SLPC   H7Y 7308   5.595   0.605   7.446 -0.1627  0.3334 -2.3646
   79SLPC   C38 7309   5.513   0.544   7.650 -0.0619  0.2982 -0.2577
   79SLPC   H8X 7310   5.537   0.642   7.696 -0.8779 -0.1939  1.2579
   79SLPC   H8Y 7311   5.612   0.493   7.651  0.1702  0.5795 -2.3331
   79SLPC   C39 7312   5.404   0.461   7.729 -0.7970 -1.2311  0.3466
   79SLPC   H9X 7313   5.382   0.359   7.691 -1.2523 -1.2754  0.7149
   79SLPC   H9Y 7314   5.309   0.518   7.733 -0.1082 -0.1513  2.6519
   79SLPC  C310 7315   5.448   0.411   7.862 -0.7232  0.0710  0.1466
   79SLPC  H10X 7316   5.475   0.501   7.921  1.1971  0.5502 -1.3526
   79SLPC  H10Y 7317   5.543   0.354   7.853 -0.1269  0.6231  2.4115
   79SLPC  C311 7318   5.340   0.322   7.927 -0.1007  0.1585  0.4606
   79SLPC  H11X 7319   5.337   0.227   7.869 -0.6589 -0.4934  1.5126
   79SLPC  H11Y 7320   5.243   0.375   7.913 -0.9921 -1.6977 -0.9162
   79SLPC  C312 7321   5.380   0.283   8.069 -0.3746  0.1104 -0.3222
   79SLPC  H12X 7322   5.373   0.374   8.133  0.5414 -1.4890  2.1756
   79SLPC  H12Y 7323   5.487   0.257   8.056 -0.4382  0.4471 -1.6385
   79SLPC  C313 7324   5.294   0.165   8.130 -0.3934  0.4920 -0.8313
   79SLPC  H13X 7325   5.347   0.149   8.226 -1.4029 -1.2244 -0.5337
   79SLPC  H13Y 7326   5.304   0.083   8.056  0.3083 -0.0803 -0.1142
   79SLPC  C314 7327   5.152   0.219   8.146 -0.7423  0.9141  0.1811
   79SLPC  H14X 7328   5.108   0.223   8.044  0.3995 -1.3168 -0.4770
   79SLPC  H14Y 7329   5.150   0.321   8.188 -0.9711  1.1589 -0.4100
   79SLPC  C315 7330   5.080   0.121   8.241 -0.2138 -0.1686  0.6506
   79SLPC  H15X 7331   5.139   0.117   8.335  1.4370  0.3506 -0.3164
   79SLPC  H15Y 7332   5.071   0.023   8.189  1.1779  0.5893 -1.1206
   79SLPC  C316 7333   4.938   0.157   8.278  0.2766  0.4531 -0.1310
   79SLPC  H16X 7334   4.900   0.056   8.302  2.2750  0.1819  2.2988
   79SLPC  H16Y 7335   4.887   0.213   8.196  0.4750 -0.5970 -1.0062
   79SLPC  C317 7336   4.934   0.238   8.414 -0.0476  1.0290 -0.0287
   79SLPC  H17X 7337   4.832   0.276   8.434 -0.3700 -0.5010  1.5777
   79SLPC  H17Y 7338   5.016   0.313   8.408  0.7861  0.4043  2.2872
   79SLPC  C318 7339   4.961   0.157   8.548 -1.0031 -0.1459 -0.5009
   79SLPC  H18X 7340   5.063   0.121   8.569 -0.4416  0.7726 -1.5788
   79SLPC  H18Y 7341   4.896   0.068   8.560  2.0096 -2.5477 -0.8964
   79SLPC  H18Z 7342   4.931   0.229   8.628 -0.6308 -1.6070  1.0092
   80SLPC     N 7343   0.549   4.164   6.240  0.1137  0.1204  0.0840
   80SLPC   C13 7344   0.416   4.106   6.264 -0.2280  0.3384 -0.3503
   80SLPC  H13A 7345   0.390   4.111   6.369 -0.8379  1.2378 -0.5268
   80SLPC  H13B 7346   0.343   4.168   6.214 -0.1860 -0.2085 -1.1082
   80SLPC  H13C 7347   0.391   4.003   6.241 -2.5816  0.2479  2.0851
   80SLPC   C14 7348   0.526   4.309   6.253 -0.0451  0.0667  0.2630
   80SLPC  H14A 7349   0.443   4.350   6.197 -1.3276 -2.5208  0.1285
   80SLPC  H14B 7350   0.516   4.343   6.355  2.3751 -1.7561  1.1742
   80SLPC  H14C 7351   0.612   4.369   6.228  0.8637  0.1519  3.2769
   80SLPC   C15 7352   0.599   4.122   6.102 -0.0236 -0.2103 -0.6024
   80SLPC  H15A 7353   0.521   4.123   6.027 -0.1198 -0.2654 -0.5036
   80SLPC  H15B 7354   0.677   4.181   6.057  0.4714 -0.3476  0.0508
   80SLPC  H15C 7355   0.651   4.028   6.108  1.8427  0.8428  1.3084
   80SLPC   C12 7356   0.644   4.109   6.337  0.2282  0.4679  0.0094
   80SLPC  H12A 7357   0.656   4.001   6.337 -2.2060  0.0611 -2.5815
   80SLPC  H12B 7358   0.604   4.135   6.433  2.1816  0.4094  0.8850
   80SLPC   C11 7359   0.785   4.179   6.330  0.0022 -0.3540  0.0801
   80SLPC  H11A 7360   0.829   4.170   6.432  0.8868 -1.0582 -0.3476
   80SLPC  H11B 7361   0.774   4.289   6.325 -1.3594 -0.4937 -0.2704
   80SLPC     P 7362   0.943   3.998   6.242  0.2664  0.1007  0.2391
   80SLPC   O13 7363   0.857   3.881   6.228 -0.4036  0.0910 -0.0686
   80SLPC   O14 7364   1.060   4.000   6.150 -0.4132 -0.1192  0.8886
   80SLPC   O12 7365   0.866   4.133   6.223 -0.2525  0.4125  0.6092
   80SLPC   O11 7366   0.989   3.993   6.389  0.5011  0.3263  0.0403
   80SLPC    C1 7367   1.091   4.080   6.441 -0.8884  0.2210  0.0580
   80SLPC    HA 7368   1.175   4.082   6.370 -0.5788  0.9252  0.4404
   80SLPC    HB 7369   1.038   4.178   6.449  0.8593  1.1343  0.8625
   80SLPC    C2 7370   1.140   4.030   6.586  0.5622  0.0430 -0.0079
   80SLPC    HS 7371   1.211   3.947   6.562 -0.5804  0.0039 -4.0086
   80SLPC   O21 7372   1.028   3.981   6.668  0.5114  0.2046  0.0069
   80SLPC   C21 7373   1.010   3.852   6.677  0.6626  0.1352 -0.3577
   80SLPC   O22 7374   1.071   3.767   6.614 -0.2458  0.3211 -0.4198
   80SLPC   C22 7375   0.877   3.824   6.752 -0.4822 -0.6402 -0.0747
   80SLPC   H2R 7376   0.800   3.875   6.690  0.0193  1.2457  0.7527
   80SLPC   H2S 7377   0.861   3.715   6.766 -1.0699 -0.4308  0.9777
   80SLPC    C3 7378   1.221   4.143   6.662  0.8661  0.2413  0.6787
   80SLPC    HX 7379   1.150   4.228   6.663  1.2279  0.5761 -0.3027
   80SLPC    HY 7380   1.313   4.164   6.605  1.0460  2.0122  1.5764
   80SLPC   O31 7381   1.250   4.135   6.798  0.3407  0.5694 -0.5388
   80SLPC   C31 7382   1.328   4.032   6.836 -0.6073 -0.2992  0.0658
   80SLPC   O32 7383   1.367   3.944   6.765 -0.6563  0.3063 -0.1958
   80SLPC   C32 7384   1.361   4.058   6.981 -0.4636 -0.3356 -0.5149
   80SLPC   H2X 7385   1.268   4.097   7.028 -0.0099  1.0049 -0.6945
   80SLPC   H2Y 7386   1.443   4.131   6.994 -0.5656  0.0346 -1.8290
   80SLPC   C23 7387   0.875   3.878   6.890 -0.2096 -0.2150 -0.1040
   80SLPC   H3R 7388   0.771   3.908   6.913 -0.4316  1.6065 -3.0082
   80SLPC   H3S 7389   0.932   3.973   6.898 -0.2988 -0.1122 -0.6540
   80SLPC   C24 7390   0.930   3.773   6.993  0.1942 -0.1763  0.6077
   80SLPC   H4R 7391   1.026   3.729   6.958  0.7303  0.2657  1.4664
   80SLPC   H4S 7392   0.849   3.700   7.008  0.7153 -0.6578  1.1207
   80SLPC   C25 7393   0.970   3.842   7.128  0.5506 -0.2096  0.2981
   80SLPC   H5R 7394   0.878   3.891   7.166  0.8265  1.9068 -1.5236
   80SLPC   H5S 7395   1.036   3.928   7.103  0.7407 -0.2195  0.7590
   80SLPC   C26 7396   1.033   3.740   7.220 -0.1430  0.0669 -0.7106
   80SLPC   H6R 7397   1.139   3.738   7.189 -0.1409  1.8328 -0.8849
   80SLPC   H6S 7398   0.982   3.643   7.202 -2.5657  0.7647  1.6950
   80SLPC   C27 7399   1.023   3.779   7.363 -0.7101  0.3727 -0.3323
   80SLPC   H7R 7400   0.918   3.796   7.394 -0.1940 -0.6657  2.2434
   80SLPC   H7S 7401   1.074   3.878   7.370 -0.0092  0.0024 -0.0535
   80SLPC   C28 7402   1.086   3.665   7.446  0.2350  0.0525  0.3604
   80SLPC   H8R 7403   1.157   3.617   7.375 -0.5927  0.0809 -0.5007
   80SLPC   H8S 7404   1.011   3.585   7.462 -0.1867  0.5306  0.8130
   80SLPC   C29 7405   1.165   3.703   7.570  0.0634  0.2339  0.3290
   80SLPC   H9R 7406   1.266   3.661   7.578  0.0980  0.5509  1.7954
   80SLPC  C210 7407   1.110   3.765   7.678 -0.1181  0.2311 -0.3878
   80SLPC  H10R 7408   1.176   3.790   7.763  1.5608 -3.1344 -0.5494
   80SLPC  C211 7409   0.979   3.834   7.687 -0.4680  0.2460 -0.6218
   80SLPC  H11R 7410   0.936   3.840   7.585 -0.7009 -2.2978 -0.7333
   80SLPC  H11S 7411   0.999   3.939   7.719 -2.1053 -0.4857  3.4232
   80SLPC  C212 7412   0.872   3.787   7.782  0.7657 -0.4472 -0.8918
   80SLPC  H12R 7413   0.788   3.725   7.749 -0.2826 -0.2968  1.3377
   80SLPC  C213 7414   0.876   3.809   7.915 -0.2361 -0.2330  1.4245
   80SLPC  H13R 7415   0.784   3.766   7.957 -2.1266  0.5831 -1.5370
   80SLPC  C214 7416   0.984   3.877   7.990 -0.5178  0.2301 -0.8899
   80SLPC  H14R 7417   0.951   3.981   8.010 -2.8840 -1.0034  2.7749
   80SLPC  H14S 7418   1.079   3.882   7.932 -0.7366  2.5485 -1.1468
   80SLPC  C215 7419   1.037   3.815   8.122 -1.0157  0.2761  0.2274
   80SLPC  H15R 7420   0.970   3.845   8.205 -1.7047 -1.4710  0.3371
   80SLPC  H15S 7421   1.134   3.862   8.147 -0.0934 -1.8640  0.9089
   80SLPC  C216 7422   1.062   3.661   8.111 -0.5517 -0.1210  0.2765
   80SLPC  H16R 7423   1.094   3.632   8.009  1.5250 -2.4880  1.4736
   80SLPC  H16S 7424   0.960   3.622   8.129 -1.4956  1.8179 -0.5591
   80SLPC  C217 7425   1.182   3.617   8.196 -0.6862 -0.0494 -0.2522
   80SLPC  H17R 7426   1.265   3.684   8.163  0.2161 -0.5454  0.9363
   80SLPC  H17S 7427   1.206   3.510   8.173  0.0806  0.3483 -1.3965
   80SLPC  C218 7428   1.166   3.622   8.342 -0.0269 -0.0094 -0.1376
   80SLPC  H18R 7429   1.254   3.598   8.406  0.5572  0.4130 -0.7779
   80SLPC  H18S 7430   1.085   3.557   8.382  0.6842 -1.7382 -1.4081
   80SLPC  H18T 7431   1.136   3.724   8.373  0.9752  0.1513  0.3677
   80SLPC   C33 7432   1.370   3.925   7.064 -0.3368 -0.0866  0.1370
   80SLPC   H3X 7433   1.464   3.870   7.043 -1.6577 -2.6561  0.5080
   80SLPC   H3Y 7434   1.286   3.858   7.035  0.1639  0.2830 -2.4112
   80SLPC   C34 7435   1.385   3.937   7.221  0.2094  0.1010  0.1606
   80SLPC   H4X 7436   1.394   3.840   7.275 -3.2114  0.6884  2.1044
   80SLPC   H4Y 7437   1.288   3.971   7.263 -1.5038 -2.8577 -1.0967
   80SLPC   C35 7438   1.502   4.031   7.265  0.0274  0.3069  0.6041
   80SLPC   H5X 7439   1.509   4.121   7.199 -4.4986 -0.3926 -1.2213
   80SLPC   H5Y 7440   1.590   3.965   7.253 -0.1137  0.1457  0.4491
   80SLPC   C36 7441   1.474   4.075   7.411 -0.2777  0.0983 -0.0181
   80SLPC   H6X 7442   1.370   4.113   7.404 -0.6939 -1.0221 -0.1157
   80SLPC   H6Y 7443   1.537   4.164   7.431  0.6860 -1.2167  3.4226
   80SLPC   C37 7444   1.489   3.968   7.511 -0.2219  0.0814 -1.4725
   80SLPC   H7X 7445   1.589   3.920   7.517 -0.6560 -0.6809  1.7428
   80SLPC   H7Y 7446   1.439   3.870   7.493  1.5945 -1.5852  1.5325
   80SLPC   C38 7447   1.462   4.023   7.652 -0.0448 -0.0331 -0.1818
   80SLPC   H8X 7448   1.352   4.022   7.668  0.1892 -2.3202  2.0628
   80SLPC   H8Y 7449   1.485   4.131   7.668  1.6830 -0.5451  1.0770
   80SLPC   C39 7450   1.533   3.937   7.764  0.3740 -0.4922  1.2120
   80SLPC   H9X 7451   1.640   3.967   7.764  0.8580 -1.6108 -3.1630
   80SLPC   H9Y 7452   1.531   3.827   7.748 -0.4819 -0.3046 -0.1462
   80SLPC  C310 7453   1.468   3.971   7.900 -0.2905 -0.0543  0.0146
   80SLPC  H10X 7454   1.359   3.962   7.883 -0.1003  1.7882 -2.9960
   80SLPC  H10Y 7455   1.488   4.079   7.918 -1.6154  0.3356 -0.7774
   80SLPC  C311 7456   1.529   3.885   8.007  0.2870  0.0714 -0.2755
   80SLPC  H11X 7457   1.639   3.875   8.001  0.5058  1.5584  0.6354
   80SLPC  H11Y 7458   1.487   3.785   7.986 -0.6645 -0.0202  1.7424
   80SLPC  C312 7459   1.498   3.933   8.150 -0.4433  0.2284 -1.0982
   80SLPC  H12X 7460   1.394   3.969   8.165 -0.2719  0.4467 -0.3969
   80SLPC  H12Y 7461   1.559   4.022   8.173 -1.1412  0.0738  1.6981
   80SLPC  C313 7462   1.531   3.819   8.251  0.2278 -0.0703  0.4803
   80SLPC  H13X 7463   1.637   3.834   8.280 -0.5917  3.2253  2.2726
   80SLPC  H13Y 7464   1.512   3.725   8.195 -3.1295  2.2437 -2.7055
   80SLPC  C314 7465   1.450   3.832   8.379 -0.0895  0.0823  0.3044
   80SLPC  H14X 7466   1.494   3.761   8.452  2.2625  0.7225 -0.3850
   80SLPC  H14Y 7467   1.345   3.807   8.353 -0.5083  2.1256 -0.1129
   80SLPC  C315 7468   1.469   3.972   8.451 -1.1554  0.1729 -0.4058
   80SLPC  H15X 7469   1.407   4.053   8.407 -1.0224  0.6181  0.2141
   80SLPC  H15Y 7470   1.579   3.986   8.449 -0.5204 -3.0914  2.4126
   80SLPC  C316 7471   1.430   3.947   8.607 -0.3783 -0.5113  0.0511
   80SLPC  H16X 7472   1.435   4.048   8.654 -0.7026 -0.1754 -0.6246
   80SLPC  H16Y 7473   1.513   3.896   8.660 -0.7260 -0.5213  0.5943
   80SLPC  C317 7474   1.297   3.886   8.606  0.9726 -0.5587 -0.7792
   80SLPC  H17X 7475   1.305   3.775   8.600 -1.7807 -0.9878  1.1584
   80SLPC  H17Y 7476   1.237   3.913   8.517  3.5060  1.5717 -1.9606
   80SLPC  C318 7477   1.203   3.924   8.726 -0.1322 -0.7851  0.8336
   80SLPC  H18X 7478   1.188   4.034   8.735 -1.0512 -0.7855 -0.4146
   80SLPC  H18Y 7479   1.235   3.889   8.827 -0.4635 -2.1996  0.4680
   80SLPC  H18Z 7480   1.102   3.880   8.713 -0.6663  0.3818  0.8301
   81SAPS     N 7481   2.014   5.909  11.305  1.0618 -0.0339  0.1109
   81SAPS   HN1 7482   2.058   5.977  11.240 -1.1773  1.2863 -0.1486
   81SAPS   HN2 7483   1.915   5.938  11.316  1.0613 -0.4204  1.2791
   81SAPS   HN3 7484   2.057   5.910  11.399  1.2623  0.2372  0.0150
   81SAPS   C12 7485   2.037   5.768  11.249 -0.5194 -0.1073 -0.6049
   81SAPS  H12A 7486   2.144   5.765  11.235 -0.7478  0.7580 -2.9578
   81SAPS   C13 7487   1.991   5.657  11.344 -0.3005  1.0104 -0.4768
   81SAPS  O13A 7488   1.917   5.672  11.441  0.4480 -0.8597  0.2150
   81SAPS  O13B 7489   2.009   5.538  11.303  0.4645  0.9391 -0.4130
   81SAPS   C11 7490   1.971   5.750  11.114  0.0704  0.0314  0.5581
   81SAPS  H11A 7491   1.861   5.765  11.108 -0.0543 -0.6990  0.8219
   81SAPS  H11B 7492   1.986   5.645  11.081  1.0289 -0.1008  1.3848
   81SAPS     P 7493   1.987   5.877  10.878 -0.1494 -0.0555 -0.0171
   81SAPS   O13 7494   1.990   6.025  10.881 -0.1797  0.3451  0.1416
   81SAPS   O14 7495   2.068   5.812  10.766  0.0702 -0.5218  0.0961
   81SAPS   O12 7496   2.043   5.831  11.021  0.3091  0.0453 -0.1355
   81SAPS   O11 7497   1.836   5.824  10.883  0.8042 -0.1486  0.2155
   81SAPS    C1 7498   1.805   5.691  10.841 -0.1135  0.3883 -0.8226
   81SAPS    HA 7499   1.885   5.619  10.868 -0.9916 -0.0738  0.6717
   81SAPS    HB 7500   1.706   5.658  10.881 -0.5353  0.5736 -1.6903
   81SAPS    C2 7501   1.796   5.687  10.684 -0.2883 -0.2579  0.0248
   81SAPS    HS 7502   1.891   5.725  10.642 -0.8984  1.5619  0.2100
   81SAPS   O21 7503   1.683   5.767  10.640 -0.1542  0.0840  0.3612
   81SAPS   C21 7504   1.712   5.847  10.540  0.4537  0.1867  0.7716
   81SAPS   O22 7505   1.823   5.881  10.506  0.2229 -0.0482 -0.0152
   81SAPS   C22 7506   1.579   5.880  10.466 -0.1996 -0.2300  0.4604
   81SAPS   H2R 7507   1.540   5.783  10.428  0.4707  0.1018 -1.1578
   81SAPS   H2S 7508   1.518   5.918  10.551 -1.9960  0.0618 -0.9059
   81SAPS    C3 7509   1.777   5.548  10.628 -0.1966 -0.1695  0.0004
   81SAPS    HX 7510   1.692   5.510  10.690  0.4404 -0.8986  0.4508
   81SAPS    HY 7511   1.859   5.478  10.655  0.7541  0.5798 -0.8807
   81SAPS   O31 7512   1.746   5.533  10.487  0.1218 -0.3519  0.0482
   81SAPS   C31 7513   1.844   5.549  10.407  0.0925 -0.5382  0.7585
   81SAPS   O32 7514   1.957   5.569  10.444 -0.0430 -0.6293 -0.4180
   81SAPS   C32 7515   1.792   5.552  10.269  0.2432  0.4622 -0.2090
   81SAPS   H2X 7516   1.722   5.637  10.258 -0.3348 -0.2290 -2.2935
   81SAPS   H2Y 7517   1.733   5.459  10.256 -0.6696  0.7610  1.5297
   81SAPS   C23 7518   1.612   5.985  10.362 -0.6444 -0.2185 -0.1587
   81SAPS   H3R 7519   1.692   5.957  10.290 -0.4185  3.5810 -1.6304
   81SAPS   H3S 7520   1.668   6.061  10.421  2.4742 -1.7652 -0.8837
   81SAPS   C24 7521   1.491   6.044  10.292 -0.5919  0.0041 -0.2450
   81SAPS   H4R 7522   1.416   6.077  10.368 -2.2163 -1.4217 -1.1508
   81SAPS   H4S 7523   1.439   5.969  10.229 -0.3275 -1.9626  1.7514
   81SAPS   C25 7524   1.552   6.158  10.211  0.5117  0.3266  0.5839
   81SAPS   H5R 7525   1.576   6.250  10.267 -0.9979  1.1631 -0.0658
   81SAPS   C26 7526   1.575   6.156  10.076 -0.1918 -0.9417  0.1973
   81SAPS   H6R 7527   1.616   6.242  10.020  0.6010 -1.3927  0.0736
   81SAPS   C27 7528   1.557   6.038   9.983  0.4246 -0.5510 -0.7550
   81SAPS   H7R 7529   1.467   6.052   9.919 -0.1569  1.4562  0.4305
   81SAPS   H7S 7530   1.524   5.955  10.049  0.3770 -0.7270 -0.9947
   81SAPS   C28 7531   1.681   6.011   9.904  0.3227 -0.3353  0.1359
   81SAPS   H8R 7532   1.754   5.945   9.953  1.2187  0.3219 -0.2918
   81SAPS   C29 7533   1.697   6.058   9.777  0.3594 -0.3003  0.0508
   81SAPS   H9R 7534   1.786   6.028   9.718 -0.4959 -2.0511 -0.4410
   81SAPS  C210 7535   1.596   6.142   9.704 -0.5962 -0.1945  0.2904
   81SAPS  H10R 7536   1.567   6.231   9.763 -0.5922  1.1235 -1.6244
   81SAPS  H10S 7537   1.502   6.081   9.696  0.5324 -2.0737  0.6628
   81SAPS  C211 7538   1.629   6.194   9.569  0.2830  0.0256  0.2721
   81SAPS  H11R 7539   1.577   6.140   9.488  1.0177 -1.4411  0.7438
   81SAPS  C212 7540   1.716   6.292   9.536  0.2804  0.1627 -0.6289
   81SAPS  H12R 7541   1.727   6.333   9.434  0.3289 -0.6526 -0.9681
   81SAPS  C213 7542   1.788   6.361   9.644  0.6796 -0.3194  0.0127
   81SAPS  H13R 7543   1.886   6.309   9.649  1.6231  1.4768  1.2815
   81SAPS  H13S 7544   1.732   6.341   9.738 -1.0394 -1.0904 -1.1142
   81SAPS  C214 7545   1.804   6.512   9.629  0.3867 -0.2942  0.0805
   81SAPS  H14R 7546   1.777   6.559   9.533  0.0974 -0.7212 -0.0497
   81SAPS  C215 7547   1.837   6.598   9.725 -0.3094  0.0925  0.4443
   81SAPS  H15R 7548   1.855   6.700   9.686 -1.3268  0.1161  0.0244
   81SAPS  C216 7549   1.888   6.580   9.861 -0.1420 -0.0792 -0.2835
   81SAPS  H16R 7550   1.985   6.634   9.871 -0.2644  0.0222  0.4207
   81SAPS  H16S 7551   1.921   6.477   9.885 -3.2866 -1.0312  0.3547
   81SAPS  C217 7552   1.796   6.627   9.979 -0.1058  0.1012  0.5624
   81SAPS  H17R 7553   1.843   6.600  10.075  1.2982 -0.6290 -0.3045
   81SAPS  H17S 7554   1.702   6.570   9.966 -0.9655  1.2327  1.5344
   81SAPS  C218 7555   1.766   6.774   9.986 -0.2647 -0.3908 -0.1390
   81SAPS  H18R 7556   1.704   6.813   9.902  2.1643  1.1771 -1.3165
   81SAPS  H18S 7557   1.859   6.835   9.992 -1.0974  0.7225  2.2506
   81SAPS  C219 7558   1.690   6.817  10.115 -0.6827 -1.0830  0.0162
   81SAPS  H19R 7559   1.768   6.819  10.193 -0.5086  1.2457 -0.1542
   81SAPS  H19S 7560   1.612   6.740  10.134  1.5912 -3.7415 -0.8614
   81SAPS  C220 7561   1.636   6.961  10.104 -0.2895 -0.3421 -0.0144
   81SAPS  H20R 7562   1.596   6.997  10.201  0.6206  0.5253  0.0549
   81SAPS  H20S 7563   1.558   6.978  10.027  1.6580 -0.6740 -2.1844
   81SAPS  H20T 7564   1.717   7.032  10.076 -2.3774  1.7714 -0.9821
   81SAPS   C33 7565   1.896   5.567  10.156 -0.5171  0.1287 -0.6793
   81SAPS   H3X 7566   1.956   5.481  10.121 -3.8129 -2.7167  0.1303
   81SAPS   H3Y 7567   1.966   5.652  10.174 -0.3271 -0.0251 -0.6924
   81SAPS   C34 7568   1.819   5.607  10.033  0.0269  0.2346  0.9406
   81SAPS   H4X 7569   1.759   5.699  10.050  1.5328  1.8608 -1.8476
   81SAPS   H4Y 7570   1.748   5.522  10.017  1.0003 -0.0650 -2.6258
   81SAPS   C35 7571   1.900   5.618   9.903  0.0094 -0.2804  0.2630
   81SAPS   H5X 7572   1.948   5.519   9.891  1.0570 -0.2304  3.2850
   81SAPS   H5Y 7573   1.973   5.698   9.926  1.6122 -1.1433 -1.5987
   81SAPS   C36 7574   1.829   5.671   9.774 -0.1403  0.4627 -0.1138
   81SAPS   H6X 7575   1.803   5.779   9.776  0.6373  0.6571 -0.1592
   81SAPS   H6Y 7576   1.729   5.624   9.790  1.4730 -2.3147  3.1214
   81SAPS   C37 7577   1.887   5.616   9.644 -0.3728 -0.4112  0.6983
   81SAPS   H7X 7578   1.929   5.514   9.654 -2.0604 -1.1980  0.0172
   81SAPS   H7Y 7579   1.974   5.681   9.620 -0.0020 -0.7135  1.2071
   81SAPS   C38 7580   1.795   5.605   9.526 -0.3124 -0.1326  0.1853
   81SAPS   H8X 7581   1.857   5.598   9.434 -1.4370 -0.4028 -0.5715
   81SAPS   H8Y 7582   1.743   5.702   9.513 -0.1590 -0.2997 -2.2439
   81SAPS   C39 7583   1.699   5.480   9.527  0.0462  0.2469  0.6051
   81SAPS   H9X 7584   1.623   5.505   9.604 -0.4302  0.6803  0.0037
   81SAPS   H9Y 7585   1.760   5.391   9.554 -1.6827 -0.8234  1.1615
   81SAPS  C310 7586   1.616   5.463   9.393  0.0076 -0.6447  0.0919
   81SAPS  H10X 7587   1.540   5.544   9.380 -1.5566 -1.9580  0.6573
   81SAPS  H10Y 7588   1.542   5.381   9.406 -0.9934  0.4683  1.9164
   81SAPS  C311 7589   1.705   5.458   9.267  0.7797  0.5093 -0.3141
   81SAPS  H11X 7590   1.778   5.542   9.265  2.3758 -0.6344  2.8640
   81SAPS  H11Y 7591   1.635   5.461   9.181 -1.4960  2.8043  1.4429
   81SAPS  C312 7592   1.786   5.324   9.267  0.0415  0.2227  0.2514
   81SAPS  H12X 7593   1.709   5.246   9.285 -1.5107  1.9226  1.3236
   81SAPS  H12Y 7594   1.844   5.320   9.362  0.5158  1.9558  0.0652
   81SAPS  C313 7595   1.877   5.321   9.146  0.4440  0.0030 -0.1317
   81SAPS  H13X 7596   1.936   5.415   9.148 -1.6992  1.5161 -2.2408
   81SAPS  H13Y 7597   1.810   5.329   9.058  1.6083  3.3914 -0.8374
   81SAPS  C314 7598   1.969   5.193   9.146 -0.0333  0.1310  0.2632
   81SAPS  H14X 7599   1.913   5.113   9.093  2.0490  0.3579 -2.5112
   81SAPS  H14Y 7600   1.999   5.172   9.251 -2.1278  0.0001  0.8754
   81SAPS  C315 7601   2.095   5.218   9.055  0.3097 -0.2235 -0.2914
   81SAPS  H15X 7602   2.144   5.308   9.099  1.5793 -1.3372  0.6420
   81SAPS  H15Y 7603   2.061   5.240   8.952  1.0790  1.7853 -0.1663
   81SAPS  C316 7604   2.198   5.108   9.053 -0.3877 -0.0969 -0.7386
   81SAPS  H16X 7605   2.197   5.055   9.151  1.7008  0.4781 -0.3575
   81SAPS  H16Y 7606   2.295   5.161   9.045 -1.4191  2.1551  0.8032
   81SAPS  C317 7607   2.186   5.002   8.938 -0.2041  0.7636  0.2730
   81SAPS  H17X 7608   2.080   4.970   8.938  0.4918 -1.8863 -1.9607
   81SAPS  H17Y 7609   2.240   4.908   8.959 -0.9689  0.4682  0.9733
   81SAPS  C318 7610   2.206   5.064   8.798  0.1239  0.0237 -0.3825
   81SAPS  H18X 7611   2.290   5.136   8.814 -2.9121  3.5143  1.2767
   81SAPS  H18Y 7612   2.126   5.126   8.752 -2.4782 -2.9380 -0.1131
   81SAPS  H18Z 7613   2.244   4.987   8.727 -2.4097 -2.6647  0.9845
   82SAPS     N 7614   0.585   3.776  11.349 -0.1906  0.0611  0.1184
   82SAPS   HN1 7615   0.618   3.679  11.369 -0.7698 -0.4996 -1.4841
   82SAPS   HN2 7616   0.662   3.838  11.315  0.0314 -0.2781 -0.0097
   82SAPS   HN3 7617   0.542   3.809  11.437 -1.7277 -0.1103 -0.5342
   82SAPS   C12 7618   0.459   3.779  11.269  0.2457 -0.0763  0.2079
   82SAPS  H12A 7619   0.431   3.676  11.256 -2.1665  0.6685 -1.0168
   82SAPS   C13 7620   0.343   3.841  11.343  0.5007  0.0527 -0.8705
   82SAPS  O13A 7621   0.362   3.903  11.454  0.5309  0.0889 -0.2486
   82SAPS  O13B 7622   0.228   3.832  11.291 -0.3826  0.1737 -0.9493
   82SAPS   C11 7623   0.488   3.835  11.128 -0.2866 -0.2401 -0.2377
   82SAPS  H11A 7624   0.388   3.837  11.078 -0.2009  1.4111 -0.3963
   82SAPS  H11B 7625   0.557   3.762  11.082  1.2788  0.9360  0.1698
   82SAPS     P 7626   0.556   4.061  11.013 -0.0467  0.4090 -0.0851
   82SAPS   O13 7627   0.500   4.194  11.043  0.4212 -0.2358 -0.7413
   82SAPS   O14 7628   0.698   4.052  10.973 -0.0773 -0.2389  0.4067
   82SAPS   O12 7629   0.540   3.971  11.137  0.1463  0.5042  0.3260
   82SAPS   O11 7630   0.462   4.010  10.899 -0.3790 -0.2963 -0.1917
   82SAPS    C1 7631   0.500   3.904  10.815  0.4454 -0.4574  0.1366
   82SAPS    HA 7632   0.581   3.848  10.868  1.1624  0.7356  0.3434
   82SAPS    HB 7633   0.417   3.831  10.805  0.2362 -0.0236 -1.6443
   82SAPS    C2 7634   0.550   3.968  10.678  0.6090  0.8385  0.1954
   82SAPS    HS 7635   0.650   4.012  10.699  0.2242  0.9674  1.8539
   82SAPS   O21 7636   0.466   4.069  10.640 -0.1474 -0.2932  0.2456
   82SAPS   C21 7637   0.515   4.162  10.557  0.0409 -0.1547 -0.2812
   82SAPS   O22 7638   0.621   4.163  10.508 -0.1008  0.5294  0.0980
   82SAPS   C22 7639   0.399   4.257  10.531  0.0625  0.5194 -0.1773
   82SAPS   H2R 7640   0.314   4.230  10.597  1.7781 -1.2817  1.3927
   82SAPS   H2S 7641   0.430   4.362  10.550 -0.9392  1.2213 -2.0676
   82SAPS    C3 7642   0.554   3.847  10.579  0.5380 -0.5369  0.0213
   82SAPS    HX 7643   0.448   3.812  10.578  0.8016 -1.6318  2.3118
   82SAPS    HY 7644   0.615   3.775  10.637 -0.5262 -1.4222  0.0723
   82SAPS   O31 7645   0.600   3.869  10.448 -0.0130 -0.7248 -0.1784
   82SAPS   C31 7646   0.732   3.854  10.435 -0.3051 -0.2354 -0.2738
   82SAPS   O32 7647   0.816   3.837  10.528  0.5253  0.4364  0.5536
   82SAPS   C32 7648   0.774   3.857  10.284  0.6949  0.1105 -0.1116
   82SAPS   H2X 7649   0.840   3.771  10.258 -1.2505 -1.5312  0.1354
   82SAPS   H2Y 7650   0.854   3.934  10.283  2.7210 -1.8830 -0.1510
   82SAPS   C23 7651   0.345   4.249  10.384  0.1664  0.5132  0.7928
   82SAPS   H3R 7652   0.308   4.145  10.371  0.9987  0.2620  0.3487
   82SAPS   H3S 7653   0.426   4.256  10.308 -0.7939 -0.2764 -0.3385
   82SAPS   C24 7654   0.232   4.338  10.336  0.3719 -0.2862 -0.6570
   82SAPS   H4R 7655   0.149   4.322  10.408  0.7864 -2.0289 -0.5292
   82SAPS   H4S 7656   0.194   4.282  10.248 -0.2011 -1.0752  0.0766
   82SAPS   C25 7657   0.259   4.488  10.315  0.2216  0.6609  0.3770
   82SAPS   H5R 7658   0.237   4.542  10.409  0.9777 -1.4720  1.8546
   82SAPS   C26 7659   0.314   4.549  10.204 -0.1040 -0.0265 -0.8525
   82SAPS   H6R 7660   0.325   4.658  10.203  0.1591 -0.0329  0.3280
   82SAPS   C27 7661   0.359   4.469  10.082 -0.0797  0.1919 -0.8228
   82SAPS   H7R 7662   0.423   4.381  10.103  1.6687  1.2485 -1.5394
   82SAPS   H7S 7663   0.432   4.536  10.033 -1.1134  0.0047 -2.7146
   82SAPS   C28 7664   0.243   4.438   9.986 -0.2729  0.5249 -0.5131
   82SAPS   H8R 7665   0.143   4.465  10.023  1.0631  0.0508  4.1498
   82SAPS   C29 7666   0.264   4.384   9.865 -0.1454 -0.1037 -0.0838
   82SAPS   H9R 7667   0.172   4.354   9.812  0.2027 -2.6728  0.6049
   82SAPS  C210 7668   0.390   4.347   9.793  0.2145  0.2929  0.4102
   82SAPS  H10R 7669   0.380   4.240   9.764 -0.6702  0.4571  0.0670
   82SAPS  H10S 7670   0.476   4.358   9.861  0.7366 -2.0056  0.2296
   82SAPS  C211 7671   0.419   4.410   9.653 -0.3409 -0.2688  0.0056
   82SAPS  H11R 7672   0.504   4.479   9.647 -0.1521 -0.5053 -0.0426
   82SAPS  C212 7673   0.355   4.377   9.534 -0.4491 -1.0461 -0.1875
   82SAPS  H12R 7674   0.392   4.440   9.452 -0.2362  0.7867  1.2330
   82SAPS  C213 7675   0.246   4.276   9.497  0.2125  0.2363 -0.3408
   82SAPS  H13R 7676   0.221   4.212   9.583  0.7332 -0.7931 -0.9421
   82SAPS  H13S 7677   0.284   4.198   9.427 -0.1736 -0.0055 -0.2828
   82SAPS  C214 7678   0.115   4.338   9.453 -0.0875 -0.3060  0.0231
   82SAPS  H14R 7679   0.053   4.383   9.533 -1.3878  1.6267 -1.9642
   82SAPS  C215 7680   0.079   4.366   9.326 -0.1391 -0.3306 -0.0914
   82SAPS  H15R 7681  -0.012   4.427   9.308 -0.6796 -1.0409  0.1893
   82SAPS  C216 7682   0.154   4.332   9.202 -0.7405  0.2955  0.9222
   82SAPS  H16R 7683   0.137   4.228   9.168  0.3566 -0.1207  1.5907
   82SAPS  H16S 7684   0.261   4.337   9.231 -0.4752  1.2299 -0.1319
   82SAPS  C217 7685   0.130   4.436   9.090 -0.0595  0.3516 -0.0646
   82SAPS  H17R 7686   0.236   4.443   9.058  0.6288 -2.0621  1.4378
   82SAPS  H17S 7687   0.104   4.541   9.116  1.0751  0.5106  0.4713
   82SAPS  C218 7688   0.052   4.383   8.964  0.6134  0.1729  0.3761
   82SAPS  H18R 7689  -0.057   4.389   8.986  0.7385 -0.1050  1.1153
   82SAPS  H18S 7690   0.078   4.275   8.957 -0.1327  0.0977 -3.4351
   82SAPS  C219 7691   0.096   4.446   8.838  0.1207  0.8359 -0.0621
   82SAPS  H19R 7692   0.207   4.450   8.834  0.5217 -3.6413  0.4657
   82SAPS  H19S 7693   0.052   4.547   8.828 -1.4642  0.4929  2.5514
   82SAPS  C220 7694   0.047   4.354   8.721  0.0833  0.5391 -0.1078
   82SAPS  H20R 7695   0.035   4.251   8.760  2.1283  0.0747 -0.5475
   82SAPS  H20S 7696   0.118   4.346   8.635 -0.5464  3.0403 -0.9347
   82SAPS  H20T 7697  -0.051   4.388   8.681 -1.0453 -4.0247 -1.8507
   82SAPS   C33 7698   0.666   3.888  10.175  0.0691 -0.2323 -0.6411
   82SAPS   H3X 7699   0.597   3.967  10.211 -0.0395 -0.2342 -0.8431
   82SAPS   H3Y 7700   0.595   3.803  10.175 -1.3062  0.8670  0.1295
   82SAPS   C34 7701   0.717   3.907  10.034  0.5173  0.3127 -0.2988
   82SAPS   H4X 7702   0.803   3.839  10.018  0.1867 -0.3040  0.5010
   82SAPS   H4Y 7703   0.748   4.013  10.022  0.3455  0.3752 -0.1946
   82SAPS   C35 7704   0.608   3.871   9.928 -0.1666 -0.9214  0.4692
   82SAPS   H5X 7705   0.521   3.939   9.939 -0.1645 -0.3481 -2.4324
   82SAPS   H5Y 7706   0.559   3.773   9.942 -1.1282 -0.6110 -0.5477
   82SAPS   C36 7707   0.664   3.881   9.787  0.7844  0.3747  0.2677
   82SAPS   H6X 7708   0.748   3.810   9.773 -0.3284 -0.5550 -2.2693
   82SAPS   H6Y 7709   0.713   3.978   9.767  0.3520  0.0121 -3.2880
   82SAPS   C37 7710   0.559   3.867   9.672  0.2783  0.2281  0.2276
   82SAPS   H7X 7711   0.482   3.943   9.696  1.3995  1.0518  1.2919
   82SAPS   H7Y 7712   0.523   3.762   9.664  0.1891  0.3300 -0.8583
   82SAPS   C38 7713   0.619   3.908   9.534 -0.6062 -0.2353  0.1372
   82SAPS   H8X 7714   0.707   3.843   9.512 -0.5691 -0.5134  1.0702
   82SAPS   H8Y 7715   0.645   4.014   9.551  2.0315 -1.1333  2.4658
   82SAPS   C39 7716   0.520   3.888   9.422 -0.4948 -0.5404 -0.1109
   82SAPS   H9X 7717   0.439   3.963   9.427  0.3742  0.3452  1.7547
   82SAPS   H9Y 7718   0.484   3.783   9.420  0.0125 -0.7163 -0.5104
   82SAPS  C310 7719   0.584   3.901   9.285  0.3809 -0.1836 -0.3939
   82SAPS  H10X 7720   0.670   3.830   9.282 -1.4868 -2.6426  0.5659
   82SAPS  H10Y 7721   0.620   4.006   9.282  1.3553 -0.4353  1.2083
   82SAPS  C311 7722   0.488   3.865   9.171  0.1763 -0.1976 -0.3661
   82SAPS  H11X 7723   0.391   3.918   9.187  0.3114  1.2822 -3.5040
   82SAPS  H11Y 7724   0.465   3.757   9.171 -0.3383 -0.0934 -0.0170
   82SAPS  C312 7725   0.542   3.898   9.030 -0.1370 -0.6115 -0.6119
   82SAPS  H12X 7726   0.640   3.845   9.028  0.3983  0.3238 -2.9674
   82SAPS  H12Y 7727   0.563   4.007   9.020 -0.4346 -0.4549  0.4042
   82SAPS  C313 7728   0.437   3.849   8.925 -0.1347  0.8659 -0.0351
   82SAPS  H13X 7729   0.339   3.898   8.943  0.5050  1.8063  1.0069
   82SAPS  H13Y 7730   0.420   3.739   8.934  1.7827  0.5698  0.2343
   82SAPS  C314 7731   0.488   3.883   8.783  0.8120  0.3236 -0.7294
   82SAPS  H14X 7732   0.560   3.803   8.758 -0.4535 -2.0151  2.4789
   82SAPS  H14Y 7733   0.542   3.979   8.767  0.6620  0.0803 -3.1576
   82SAPS  C315 7734   0.373   3.876   8.677 -0.5613  0.2099  0.3831
   82SAPS  H15X 7735   0.315   3.970   8.689 -0.0589  0.4628  0.8205
   82SAPS  H15Y 7736   0.302   3.790   8.678 -0.9088  0.4440 -0.9858
   82SAPS  C316 7737   0.435   3.868   8.538 -0.5340 -0.3452  0.2810
   82SAPS  H16X 7738   0.481   3.770   8.511 -1.3428  0.3900 -4.7030
   82SAPS  H16Y 7739   0.508   3.950   8.525 -0.6403 -0.3974 -0.7498
   82SAPS  C317 7740   0.338   3.904   8.425  0.8614 -0.0867 -0.3134
   82SAPS  H17X 7741   0.239   3.853   8.434  0.0251  1.3289 -1.1177
   82SAPS  H17Y 7742   0.384   3.881   8.326  2.7502  3.1125 -0.2931
   82SAPS  C318 7743   0.303   4.056   8.426  0.1613 -0.1183 -0.9699
   82SAPS  H18X 7744   0.259   4.091   8.522  3.8896  0.1574  0.8359
   82SAPS  H18Y 7745   0.233   4.084   8.345 -2.6946 -1.2540  0.9430
   82SAPS  H18Z 7746   0.391   4.122   8.409  0.5137 -0.4754 -0.5744
   83SAPS     N 7747   3.254   5.459  10.754  0.0790  0.1980 -0.0452
   83SAPS   HN1 7748   3.271   5.442  10.653 -2.2752  2.0274 -0.8172
   83SAPS   HN2 7749   3.157   5.492  10.770 -0.3365 -1.4584  1.1738
   83SAPS   HN3 7750   3.324   5.532  10.779 -0.4178  1.6849 -2.6876
   83SAPS   C12 7751   3.287   5.330  10.817 -0.4466  0.6115 -0.3357
   83SAPS  H12A 7752   3.272   5.334  10.924 -3.5694  1.5381 -0.6952
   83SAPS   C13 7753   3.200   5.222  10.750 -0.2837  0.5551 -0.0880
   83SAPS  O13A 7754   3.113   5.252  10.671 -0.0150  0.0244  0.1582
   83SAPS  O13B 7755   3.212   5.101  10.789 -0.5217 -0.3425  0.2315
   83SAPS   C11 7756   3.437   5.294  10.791  0.2579 -0.1479 -0.4917
   83SAPS  H11A 7757   3.462   5.287  10.683  3.1624 -1.9123  0.1854
   83SAPS  H11B 7758   3.453   5.190  10.826  1.6188  0.3763  0.4834
   83SAPS     P 7759   3.653   5.338  10.920  0.2494 -0.3575  0.0085
   83SAPS   O13 7760   3.716   5.451  10.986 -0.3145  0.0663  0.3423
   83SAPS   O14 7761   3.642   5.220  11.002  0.4931  0.5678 -0.1088
   83SAPS   O12 7762   3.516   5.384  10.864 -0.1827 -0.0629 -0.0025
   83SAPS   O11 7763   3.732   5.293  10.790 -0.3206 -0.2351  0.1720
   83SAPS    C1 7764   3.732   5.350  10.665 -0.0146 -0.5341 -0.7863
   83SAPS    HA 7765   3.633   5.359  10.613  1.1881 -2.1475 -3.5919
   83SAPS    HB 7766   3.761   5.456  10.684 -2.7186 -0.2317  2.5970
   83SAPS    C2 7767   3.825   5.282  10.568  0.0782  0.2635 -0.5500
   83SAPS    HS 7768   3.822   5.342  10.475 -1.5741 -0.0224 -0.7062
   83SAPS   O21 7769   3.782   5.149  10.542 -0.2369  0.5022 -0.4138
   83SAPS   C21 7770   3.674   5.134  10.471  0.9569 -0.5640  0.1523
   83SAPS   O22 7771   3.594   5.222  10.435 -0.0085 -0.1868 -0.4455
   83SAPS   C22 7772   3.663   4.988  10.428  0.0811 -0.2663 -0.0273
   83SAPS   H2R 7773   3.759   4.953  10.386  1.3430  1.1714  1.5222
   83SAPS   H2S 7774   3.646   4.940  10.527  1.2304 -0.3248  0.1447
   83SAPS    C3 7775   3.973   5.283  10.621 -0.2510  0.4905  0.3095
   83SAPS    HX 7776   3.970   5.227  10.717 -0.8594 -0.3527 -0.1880
   83SAPS    HY 7777   4.004   5.383  10.656 -3.9326  2.6630 -1.9654
   83SAPS   O31 7778   4.075   5.243  10.526  0.0675  0.3992  0.2106
   83SAPS   C31 7779   4.110   5.108  10.538  1.0349 -0.5306 -0.0477
   83SAPS   O32 7780   4.097   5.046  10.641 -0.4765 -0.0578  0.6383
   83SAPS   C32 7781   4.159   5.058  10.407 -0.1380 -0.7256  0.1091
   83SAPS   H2X 7782   4.210   4.961  10.429 -0.7755 -1.0711  0.0935
   83SAPS   H2Y 7783   4.242   5.123  10.372 -0.4476  0.5910  1.7037
   83SAPS   C23 7784   3.539   4.967  10.340 -0.0667 -0.2906  0.0932
   83SAPS   H3R 7785   3.450   5.020  10.381  0.9628  2.2647 -0.7525
   83SAPS   H3S 7786   3.522   4.857  10.337  3.2489 -0.8889 -0.2309
   83SAPS   C24 7787   3.564   5.020  10.198  0.1122 -0.5277  0.0993
   83SAPS   H4R 7788   3.667   4.989  10.173  0.9947  1.6958  0.7750
   83SAPS   H4S 7789   3.558   5.131  10.208 -1.9920 -0.6541  0.7218
   83SAPS   C25 7790   3.460   4.986  10.097 -0.8105  0.1340  0.0163
   83SAPS   H5R 7791   3.362   4.974  10.145 -0.5491 -1.1834  0.2515
   83SAPS   C26 7792   3.482   4.960   9.966 -0.7342 -0.2065  0.0512
   83SAPS   H6R 7793   3.396   4.952   9.898 -1.3447 -0.3291  0.8398
   83SAPS   C27 7794   3.622   4.973   9.896  0.6599  0.4792 -1.2422
   83SAPS   H7R 7795   3.618   4.894   9.817 -1.9770 -2.7544  1.7909
   83SAPS   H7S 7796   3.701   4.938   9.966  0.6288  0.9646 -0.9615
   83SAPS   C28 7797   3.641   5.115   9.845  0.8202 -0.2010  0.4386
   83SAPS   H8R 7798   3.682   5.192   9.913  0.9424  1.3808 -1.3402
   83SAPS   C29 7799   3.603   5.153   9.718  0.1101 -0.0690 -0.5142
   83SAPS   H9R 7800   3.615   5.259   9.690  1.0834 -0.6614 -2.4504
   83SAPS  C210 7801   3.550   5.071   9.601  0.0078 -0.4226 -0.8164
   83SAPS  H10R 7802   3.459   5.128   9.571 -1.2573 -1.1966  1.3314
   83SAPS  H10S 7803   3.514   4.973   9.638 -2.4865  0.3672 -0.9707
   83SAPS  C211 7804   3.654   5.050   9.491 -0.4155 -0.0497  0.2789
   83SAPS  H11R 7805   3.746   5.000   9.526  0.0685  0.1928 -0.5978
   83SAPS  C212 7806   3.652   5.093   9.364 -0.1879  0.5015 -0.0433
   83SAPS  H12R 7807   3.740   5.072   9.302  0.7650  0.1870  1.3727
   83SAPS  C213 7808   3.541   5.158   9.288  0.4711 -0.0455 -0.0689
   83SAPS  H13R 7809   3.448   5.157   9.349  2.1347  0.7135  2.6611
   83SAPS  H13S 7810   3.529   5.118   9.185  0.1004 -0.1348  0.0100
   83SAPS  C214 7811   3.573   5.303   9.263 -0.6112  0.1774 -0.2197
   83SAPS  H14R 7812   3.575   5.365   9.354 -2.1082  3.3158 -2.1618
   83SAPS  C215 7813   3.628   5.345   9.150  0.7806  0.3770 -0.1028
   83SAPS  H15R 7814   3.630   5.452   9.122  1.7121  0.2581 -0.5233
   83SAPS  C216 7815   3.657   5.255   9.026  0.4482 -0.4555 -0.5803
   83SAPS  H16R 7816   3.564   5.207   8.989 -0.1103  0.9320 -1.0621
   83SAPS  H16S 7817   3.718   5.166   9.051 -0.8071 -0.9508  0.8859
   83SAPS  C217 7818   3.733   5.353   8.932  0.1615  0.1163  0.8311
   83SAPS  H17R 7819   3.644   5.407   8.893 -1.7553 -2.6580  1.0128
   83SAPS  H17S 7820   3.775   5.298   8.845 -0.8607 -0.4257  0.6637
   83SAPS  C218 7821   3.853   5.430   8.989  0.6322  0.1712 -0.1657
   83SAPS  H18R 7822   3.931   5.357   9.020  0.5548  0.4970  0.8610
   83SAPS  H18S 7823   3.821   5.481   9.083 -2.2010  1.0480 -1.4731
   83SAPS  C219 7824   3.906   5.540   8.902 -0.2131  0.1250 -0.2177
   83SAPS  H19R 7825   3.823   5.613   8.889 -1.1291 -0.9034 -0.3469
   83SAPS  H19S 7826   3.940   5.502   8.803  0.3857 -1.5724  0.6017
   83SAPS  C220 7827   4.015   5.613   8.972  0.1044 -0.2512 -0.3404
   83SAPS  H20R 7828   4.111   5.560   8.959 -0.4763 -1.2625 -0.6141
   83SAPS  H20S 7829   4.006   5.630   9.082  0.6374  4.3606 -0.8078
   83SAPS  H20T 7830   4.032   5.717   8.938  2.2263 -0.7010 -0.7728
   83SAPS   C33 7831   4.049   5.047  10.299 -0.1889  0.2849  0.0451
   83SAPS   H3X 7832   4.012   5.147  10.267 -0.8812  0.0659  0.1616
   83SAPS   H3Y 7833   3.964   4.988  10.339 -0.1592 -0.1376 -0.5104
   83SAPS   C34 7834   4.086   4.952  10.180  0.2613  0.2787 -0.6075
   83SAPS   H4X 7835   4.153   4.878  10.229 -0.2515  0.4045  0.2889
   83SAPS   H4Y 7836   4.146   5.011  10.107 -0.2847 -0.4645 -1.6787
   83SAPS   C35 7837   3.971   4.861  10.115 -0.3510 -0.3782  0.1206
   83SAPS   H5X 7838   3.897   4.937  10.081 -0.4343 -0.2747  0.5212
   83SAPS   H5Y 7839   3.925   4.794  10.190 -1.3236 -0.2539 -0.3406
   83SAPS   C36 7840   4.019   4.794   9.984 -0.3716 -0.6967  0.1177
   83SAPS   H6X 7841   3.962   4.700   9.971 -0.6203 -0.5123 -0.1304
   83SAPS   H6Y 7842   4.124   4.759   9.996  0.3627  0.8466 -1.3833
   83SAPS   C37 7843   4.004   4.886   9.859 -0.0077  0.4473  0.9213
   83SAPS   H7X 7844   4.076   4.971   9.860 -0.1672  0.6198 -0.6137
   83SAPS   H7Y 7845   3.905   4.936   9.859 -0.3558 -0.2367  0.5695
   83SAPS   C38 7846   4.020   4.832   9.712  0.0517  0.2546 -0.3967
   83SAPS   H8X 7847   3.937   4.762   9.689  0.5563 -0.7265  0.6384
   83SAPS   H8Y 7848   4.110   4.766   9.707  0.6660  1.0637 -0.2546
   83SAPS   C39 7849   4.049   4.934   9.603  0.5261  0.3232  0.5322
   83SAPS   H9X 7850   4.128   5.004   9.636  0.2322  0.6525  0.5381
   83SAPS   H9Y 7851   3.961   4.996   9.575  0.0198  0.3966  2.1734
   83SAPS  C310 7852   4.093   4.858   9.473 -0.0335 -0.4145 -0.5021
   83SAPS  H10X 7853   4.017   4.779   9.458  2.4681 -3.1564  0.3439
   83SAPS  H10Y 7854   4.186   4.802   9.496 -0.3890 -1.1242 -0.7880
   83SAPS  C311 7855   4.106   4.938   9.344 -0.9505 -0.4622 -0.5285
   83SAPS  H11X 7856   4.175   5.024   9.361  0.4926 -1.8007  0.7115
   83SAPS  H11Y 7857   4.005   4.972   9.313 -0.8183 -1.2054 -1.8565
   83SAPS  C312 7858   4.162   4.865   9.225 -0.2428  0.1672  0.1534
   83SAPS  H12X 7859   4.095   4.776   9.222 -0.9234  0.6557  0.7152
   83SAPS  H12Y 7860   4.262   4.824   9.250 -0.6013 -1.8325 -1.3962
   83SAPS  C313 7861   4.188   4.951   9.101  0.0820  0.2500  0.3925
   83SAPS  H13X 7862   4.240   4.889   9.025  3.0092  1.3577  1.3577
   83SAPS  H13Y 7863   4.261   5.034   9.114  0.2420  0.0692  0.6433
   83SAPS  C314 7864   4.056   5.002   9.028  0.1224  0.4977  0.2069
   83SAPS  H14X 7865   4.014   5.085   9.089  0.5492  1.1554 -0.3761
   83SAPS  H14Y 7866   3.988   4.914   9.029  3.6387 -2.5184 -1.4002
   83SAPS  C315 7867   4.070   5.050   8.882 -0.6294  1.0060  0.2253
   83SAPS  H15X 7868   3.974   5.083   8.837 -0.9256  1.6106  1.2729
   83SAPS  H15Y 7869   4.104   4.962   8.824  1.7111  1.4155  0.8609
   83SAPS  C316 7870   4.162   5.167   8.855  0.1113 -0.2412 -0.8175
   83SAPS  H16X 7871   4.259   5.164   8.910  0.5573 -1.5549 -1.6488
   83SAPS  H16Y 7872   4.111   5.261   8.887  0.4250  0.6717 -2.8376
   83SAPS  C317 7873   4.190   5.202   8.703  0.0091  0.6666  0.0752
   83SAPS  H17X 7874   4.255   5.291   8.687  0.1523  0.6531  0.5556
   83SAPS  H17Y 7875   4.092   5.223   8.656  0.4406 -0.1997 -1.2518
   83SAPS  C318 7876   4.261   5.082   8.625  0.1974  0.1989 -0.5747
   83SAPS  H18X 7877   4.289   5.115   8.523  0.0223 -1.0217 -1.0369
   83SAPS  H18Y 7878   4.182   5.004   8.620 -0.6662  1.0165  0.0461
   83SAPS  H18Z 7879   4.354   5.037   8.668  0.2609  1.5410  0.7629
   84SAPS     N 7880   4.111   5.324  11.199 -0.0630 -0.1058  0.6418
   84SAPS   HN1 7881   4.194   5.385  11.214 -0.4289  1.4241 -2.7300
   84SAPS   HN2 7882   4.056   5.388  11.138  0.4718 -0.5006 -0.2811
   84SAPS   HN3 7883   4.050   5.311  11.282  0.4704  1.6434  1.3679
   84SAPS   C12 7884   4.150   5.202  11.127 -0.2439 -0.4773 -0.6730
   84SAPS  H12A 7885   4.221   5.143  11.184 -0.4596  0.3575  0.4879
   84SAPS   C13 7886   4.022   5.108  11.105 -0.4697  0.7060 -0.5906
   84SAPS  O13A 7887   3.912   5.135  11.159 -0.4828  0.0402  0.0840
   84SAPS  O13B 7888   4.043   4.994  11.048  0.8218 -0.1386 -0.5568
   84SAPS   C11 7889   4.214   5.259  11.000 -0.3404 -0.1047  0.1331
   84SAPS  H11A 7890   4.139   5.310  10.936 -1.5313 -1.9719 -0.0153
   84SAPS  H11B 7891   4.230   5.166  10.941  0.6430 -1.2852  2.1650
   84SAPS     P 7892   4.474   5.263  10.990  0.1966  0.8510 -0.0437
   84SAPS   O13 7893   4.581   5.362  11.015 -0.1881  0.2565 -0.5659
   84SAPS   O14 7894   4.488   5.128  11.056  0.0708  0.3594  0.8118
   84SAPS   O12 7895   4.340   5.330  11.031 -0.4146 -0.3467 -0.1287
   84SAPS   O11 7896   4.465   5.234  10.831  0.0646 -0.0899 -0.3047
   84SAPS    C1 7897   4.406   5.346  10.762  0.6543  0.9368  0.8213
   84SAPS    HA 7898   4.350   5.302  10.677  0.3042  0.6214  1.2098
   84SAPS    HB 7899   4.330   5.401  10.821 -0.5253 -1.1631  1.3839
   84SAPS    C2 7900   4.511   5.445  10.712  0.1530 -0.0656  0.6975
   84SAPS    HS 7901   4.563   5.479  10.804  0.1145 -0.7676  0.9812
   84SAPS   O21 7902   4.436   5.548  10.635 -0.1626 -0.6127  0.1528
   84SAPS   C21 7903   4.505   5.640  10.582 -0.0926 -0.9487  0.4501
   84SAPS   O22 7904   4.624   5.663  10.585  0.3978  0.4686  0.0850
   84SAPS   C22 7905   4.412   5.730  10.507  0.7585 -0.1925 -0.1752
   84SAPS   H2R 7906   4.306   5.698  10.512  0.7638 -0.0545  1.1901
   84SAPS   H2S 7907   4.407   5.832  10.552  0.2038  0.4096 -1.5270
   84SAPS    C3 7908   4.619   5.373  10.627  0.2550  0.7467  0.6306
   84SAPS    HX 7909   4.675   5.314  10.702  1.4608  2.7599  1.4077
   84SAPS    HY 7910   4.696   5.443  10.587 -1.0054  2.8768  1.7187
   84SAPS   O31 7911   4.558   5.303  10.520 -0.1013  0.3240  0.0557
   84SAPS   C31 7912   4.638   5.200  10.486  0.7760 -0.2369 -0.2324
   84SAPS   O32 7913   4.746   5.181  10.532  0.1088  0.4442 -0.0646
   84SAPS   C32 7914   4.574   5.098  10.401 -0.1644 -0.2789  0.7855
   84SAPS   H2X 7915   4.484   5.055  10.451 -0.8172 -0.3380 -0.3997
   84SAPS   H2Y 7916   4.634   5.008  10.377 -1.7293 -0.4454 -3.1060
   84SAPS   C23 7917   4.454   5.754  10.362  0.5009  0.5523 -0.2177
   84SAPS   H3R 7918   4.562   5.777  10.346  0.2090  2.9029  0.6960
   84SAPS   H3S 7919   4.401   5.850  10.341  3.2234  2.3122  0.3877
   84SAPS   C24 7920   4.408   5.650  10.257 -0.2988 -0.0526 -0.0047
   84SAPS   H4R 7921   4.340   5.575  10.303 -0.5432  0.1041 -0.1117
   84SAPS   H4S 7922   4.503   5.602  10.224 -0.1740  1.5955 -2.2759
   84SAPS   C25 7923   4.336   5.714  10.144  0.2392 -0.1120  0.3230
   84SAPS   H5R 7924   4.244   5.770  10.169  0.8585  0.2695  1.8749
   84SAPS   C26 7925   4.386   5.731  10.016  0.4691  0.0195 -0.7471
   84SAPS   H6R 7926   4.332   5.792   9.942 -0.0555  0.3716 -0.0912
   84SAPS   C27 7927   4.522   5.691   9.967 -0.7379 -0.1888  0.4012
   84SAPS   H7R 7928   4.506   5.623   9.881  1.1689 -0.2913  0.0710
   84SAPS   H7S 7929   4.573   5.622  10.038 -0.7704  0.2078  0.8212
   84SAPS   C28 7930   4.620   5.804   9.933 -0.9503 -0.5018  0.2711
   84SAPS   H8R 7931   4.664   5.862  10.015 -1.2037  2.6063 -1.6346
   84SAPS   C29 7932   4.657   5.844   9.811  0.7445  0.4640  0.0513
   84SAPS   H9R 7933   4.743   5.911   9.792  2.2891 -1.4406 -0.0247
   84SAPS  C210 7934   4.599   5.784   9.686 -0.1937  0.1176 -0.3850
   84SAPS  H10R 7935   4.493   5.756   9.704  0.5044 -1.5193  1.6869
   84SAPS  H10S 7936   4.653   5.689   9.663  0.0232 -0.3681  1.8579
   84SAPS  C211 7937   4.596   5.879   9.570 -0.4544 -0.5454  0.2019
   84SAPS  H11R 7938   4.503   5.936   9.560 -0.1107  0.5181  2.3864
   84SAPS  C212 7939   4.687   5.904   9.469 -0.0857 -0.8879 -0.1071
   84SAPS  H12R 7940   4.652   5.959   9.380  1.3734  0.2116 -0.0247
   84SAPS  C213 7941   4.821   5.831   9.471 -1.0137 -0.8842  0.1565
   84SAPS  H13R 7942   4.829   5.755   9.390  0.4976 -1.0559  0.4378
   84SAPS  H13S 7943   4.845   5.786   9.570  0.1017 -0.1705  0.2261
   84SAPS  C214 7944   4.919   5.939   9.449  0.7009 -0.1317 -0.9682
   84SAPS  H14R 7945   4.960   5.976   9.545  0.7289 -0.0075 -1.0288
   84SAPS  C215 7946   4.951   6.003   9.344  0.1831  0.0195 -0.3121
   84SAPS  H15R 7947   5.026   6.083   9.346  0.6679 -0.3969 -1.2967
   84SAPS  C216 7948   4.898   5.956   9.204  0.5233  0.0404 -0.2543
   84SAPS  H16R 7949   4.818   5.878   9.204  1.3274 -0.8114 -1.3304
   84SAPS  H16S 7950   4.983   5.905   9.154  1.3824  2.6497 -1.5987
   84SAPS  C217 7951   4.865   6.073   9.115  0.1016  0.0159  0.1074
   84SAPS  H17R 7952   4.956   6.137   9.117  0.6874 -0.8246  2.2982
   84SAPS  H17S 7953   4.770   6.125   9.142 -1.2158 -0.7747 -2.6645
   84SAPS  C218 7954   4.855   6.023   8.965  0.0512  0.3664  0.2483
   84SAPS  H18R 7955   4.780   5.941   8.963 -1.5268  1.7095 -2.5726
   84SAPS  H18S 7956   4.950   5.974   8.936 -1.2057 -2.1848  0.1841
   84SAPS  C219 7957   4.825   6.145   8.873  0.7486  0.8889 -0.0487
   84SAPS  H19R 7958   4.896   6.229   8.886  0.2428  1.2363  0.5267
   84SAPS  H19S 7959   4.730   6.191   8.910  1.0326  0.7436  0.8984
   84SAPS  C220 7960   4.816   6.108   8.727  0.0496  0.5016 -0.7015
   84SAPS  H20R 7961   4.745   6.024   8.714  1.3545 -0.8205  0.3940
   84SAPS  H20S 7962   4.916   6.074   8.692 -0.2632 -2.3418  0.8945
   84SAPS  H20T 7963   4.781   6.189   8.659  0.6695  0.3321 -1.2394
   84SAPS   C33 7964   4.529   5.161  10.264  1.1691  0.6237 -0.0628
   84SAPS   H3X 7965   4.476   5.258  10.276 -2.0669 -1.1785  1.5181
   84SAPS   H3Y 7966   4.450   5.093  10.227  2.4343 -2.7465  2.8531
   84SAPS   C34 7967   4.644   5.165  10.173  0.2840 -0.5352  0.3620
   84SAPS   H4X 7968   4.699   5.070  10.155  1.3736 -0.1800  1.6460
   84SAPS   H4Y 7969   4.712   5.238  10.222 -0.8591 -0.5949  2.1032
   84SAPS   C35 7970   4.610   5.239  10.040  0.1698 -0.3065 -0.1525
   84SAPS   H5X 7971   4.532   5.317  10.054 -0.0505 -0.0947 -2.2972
   84SAPS   H5Y 7972   4.554   5.173   9.969 -1.4550  1.6849 -0.8151
   84SAPS   C36 7973   4.736   5.286   9.972 -0.2193  0.6673  0.0522
   84SAPS   H6X 7974   4.816   5.209   9.980 -1.7415 -0.9005  0.5408
   84SAPS   H6Y 7975   4.779   5.382  10.010  0.2711  0.3536  0.2963
   84SAPS   C37 7976   4.700   5.310   9.827 -0.3144  0.2858  0.4161
   84SAPS   H7X 7977   4.625   5.391   9.816  0.0774  0.5733 -0.1347
   84SAPS   H7Y 7978   4.646   5.221   9.787 -0.8669  0.4628  0.7450
   84SAPS   C38 7979   4.830   5.342   9.752  0.3089 -0.0563  0.3047
   84SAPS   H8X 7980   4.904   5.260   9.760 -0.2451 -0.4976  1.0775
   84SAPS   H8Y 7981   4.870   5.432   9.803  1.0581 -0.2139  0.0058
   84SAPS   C39 7982   4.805   5.360   9.596  0.1642 -0.2683  0.2557
   84SAPS   H9X 7983   4.721   5.432   9.579 -0.8947 -1.4323  0.4337
   84SAPS   H9Y 7984   4.766   5.261   9.565 -0.0067 -0.2071  0.2738
   84SAPS  C310 7985   4.935   5.396   9.519 -0.2400  0.1434 -0.9297
   84SAPS  H10X 7986   4.996   5.303   9.523  0.9027  0.8978  0.2384
   84SAPS  H10Y 7987   4.992   5.484   9.556 -1.2394  0.4892 -0.1505
   84SAPS  C311 7988   4.888   5.437   9.378 -0.2686  0.3643  0.1657
   84SAPS  H11X 7989   4.819   5.524   9.387 -1.9599 -0.5030 -3.0793
   84SAPS  H11Y 7990   4.834   5.355   9.327 -0.5908  1.0642 -0.6366
   84SAPS  C312 7991   4.997   5.489   9.290 -0.2662  0.1053 -0.4733
   84SAPS  H12X 7992   5.029   5.579   9.346 -0.0418 -1.1041  1.4067
   84SAPS  H12Y 7993   4.938   5.519   9.201 -0.0396 -0.2791 -0.7562
   84SAPS  C313 7994   5.114   5.401   9.257 -0.0717  0.1315 -0.0963
   84SAPS  H13X 7995   5.084   5.295   9.243 -0.2715  0.0935  0.5922
   84SAPS  H13Y 7996   5.173   5.395   9.351  1.0926  1.3826 -0.7075
   84SAPS  C314 7997   5.212   5.445   9.143 -0.1423 -0.7402  0.5414
   84SAPS  H14X 7998   5.297   5.374   9.136 -0.4771 -1.1483  0.4980
   84SAPS  H14Y 7999   5.254   5.546   9.162 -0.2052 -0.9022  1.6338
   84SAPS  C315 8000   5.141   5.442   9.010  0.4251  0.6759 -0.4422
   84SAPS  H15X 8001   5.048   5.504   9.008 -1.2700 -1.6827  0.5299
   84SAPS  H15Y 8002   5.111   5.338   8.984  3.8860 -0.0569 -2.1046
   84SAPS  C316 8003   5.238   5.490   8.901  0.1075 -0.0714 -0.2564
   84SAPS  H16X 8004   5.318   5.413   8.905 -0.2564 -0.4115  2.5473
   84SAPS  H16Y 8005   5.281   5.590   8.919  1.0509  0.2353 -3.5241
   84SAPS  C317 8006   5.187   5.497   8.761 -0.0064 -0.1963 -0.2631
   84SAPS  H17X 8007   5.271   5.507   8.688  2.1968  1.5357  2.3054
   84SAPS  H17Y 8008   5.135   5.592   8.738  1.9037  0.3169 -3.1225
   84SAPS  C318 8009   5.109   5.375   8.704  0.0790 -0.4540 -0.5077
   84SAPS  H18X 8010   5.079   5.411   8.603 -0.1711 -0.7475 -0.5390
   84SAPS  H18Y 8011   5.020   5.351   8.767  1.4747  0.6419  2.0351
   84SAPS  H18Z 8012   5.175   5.288   8.688  0.0903 -0.7567  0.9811
   85SAPS     N 8013   1.545   0.845  11.101 -0.1469 -0.6317 -0.6116
   85SAPS   HN1 8014   1.583   0.801  11.187 -0.0118 -1.8313 -1.2638
   85SAPS   HN2 8015   1.442   0.833  11.102 -0.5122  2.0019 -0.9739
   85SAPS   HN3 8016   1.585   0.780  11.030  2.1680 -1.6785  1.5073
   85SAPS   C12 8017   1.587   0.984  11.073  0.2824 -0.0132 -0.5581
   85SAPS  H12A 8018   1.540   1.016  10.981 -1.2545  1.1520  0.5721
   85SAPS   C13 8019   1.545   1.081  11.188 -0.0067 -0.1658  0.3368
   85SAPS  O13A 8020   1.510   1.046  11.303 -0.0493  0.5279  0.2187
   85SAPS  O13B 8021   1.553   1.205  11.168  0.3232 -0.2350  0.1361
   85SAPS   C11 8022   1.741   0.999  11.050 -0.0066 -0.8934  1.1588
   85SAPS  H11A 8023   1.787   1.009  11.151 -3.7326 -1.3587  3.0563
   85SAPS  H11B 8024   1.760   1.091  10.991  2.7398 -2.1910 -0.1890
   85SAPS     P 8025   1.900   0.920  10.872  0.6318 -0.3158  0.1185
   85SAPS   O13 8026   2.007   0.990  10.937 -0.1768 -0.4456 -0.0048
   85SAPS   O14 8027   1.944   0.798  10.802 -0.2700 -0.3576 -0.1247
   85SAPS   O12 8028   1.789   0.886  10.987 -0.4494  0.3490  0.1075
   85SAPS   O11 8029   1.830   1.025  10.775 -0.4356 -0.2909 -0.0066
   85SAPS    C1 8030   1.707   1.010  10.708 -0.2499 -0.3746  0.2458
   85SAPS    HA 8031   1.694   0.902  10.685  0.9424 -0.1019 -1.9659
   85SAPS    HB 8032   1.618   1.044  10.766  1.1315  2.5472  0.7946
   85SAPS    C2 8033   1.715   1.078  10.567 -0.8684 -0.0707  1.5564
   85SAPS    HS 8034   1.640   1.037  10.496 -0.6686 -0.4092  1.5405
   85SAPS   O21 8035   1.848   1.048  10.516  0.7768 -0.3940  0.1801
   85SAPS   C21 8036   1.867   0.921  10.486 -0.0759  0.0380  0.3857
   85SAPS   O22 8037   1.789   0.836  10.463 -0.2361  0.4500  0.0789
   85SAPS   C22 8038   2.017   0.902  10.465 -0.3673 -0.4905  0.1268
   85SAPS   H2R 8039   2.064   0.901  10.566  0.0270  0.5498 -0.0391
   85SAPS   H2S 8040   2.036   0.798  10.430  2.4711 -0.7124  1.9625
   85SAPS    C3 8041   1.696   1.238  10.570  0.0311 -0.0542 -0.6517
   85SAPS    HX 8042   1.784   1.274  10.628  1.0515 -1.1477 -1.4799
   85SAPS    HY 8043   1.613   1.257  10.641 -0.6820  0.0793 -1.5003
   85SAPS   O31 8044   1.666   1.306  10.449  0.0051 -0.3069  0.0478
   85SAPS   C31 8045   1.772   1.337  10.380 -0.1838 -0.3523  0.2263
   85SAPS   O32 8046   1.885   1.338  10.420  0.3720 -0.6803 -1.3512
   85SAPS   C32 8047   1.727   1.392  10.249  0.2205 -0.3416  0.1836
   85SAPS   H2X 8048   1.817   1.446  10.210 -0.9494  2.7930  1.4608
   85SAPS   H2Y 8049   1.648   1.470  10.258  0.6592  0.1078  0.1761
   85SAPS   C23 8050   2.078   1.020  10.380  0.3854  0.6276  0.1207
   85SAPS   H3R 8051   2.045   1.113  10.431 -1.4048 -0.7792  1.6522
   85SAPS   H3S 8052   2.042   1.025  10.275  0.8872 -0.4691 -0.1147
   85SAPS   C24 8053   2.236   1.032  10.373 -0.6766 -0.3504  0.1497
   85SAPS   H4R 8054   2.271   1.085  10.464 -1.7419 -0.8685  0.8812
   85SAPS   H4S 8055   2.275   1.088  10.285  0.7740 -2.9836 -0.9907
   85SAPS   C25 8056   2.295   0.891  10.364 -0.0163  0.0338  0.6408
   85SAPS   H5R 8057   2.305   0.828  10.454 -0.6312 -0.0008  0.6948
   85SAPS   C26 8058   2.335   0.835  10.252 -0.4044  0.1196 -0.0572
   85SAPS   H6R 8059   2.370   0.732  10.267 -3.9425 -0.9040  2.9071
   85SAPS   C27 8060   2.322   0.885  10.112 -1.0060  0.3891  0.4859
   85SAPS   H7R 8061   2.376   0.811  10.049 -1.9920  0.4206 -0.4291
   85SAPS   H7S 8062   2.378   0.978  10.090 -3.1027  1.7036  0.3977
   85SAPS   C28 8063   2.179   0.894  10.065  0.4606 -1.1114  0.1164
   85SAPS   H8R 8064   2.098   0.862  10.133  1.4624 -1.3709  1.2067
   85SAPS   C29 8065   2.132   0.932   9.942  0.0296  0.3315 -0.0718
   85SAPS   H9R 8066   2.025   0.932   9.919  0.5134 -0.4180 -2.6606
   85SAPS  C210 8067   2.224   0.969   9.831  0.5535  0.4447 -0.5492
   85SAPS  H10R 8068   2.194   0.903   9.747  0.7805  1.4033 -1.4048
   85SAPS  H10S 8069   2.329   0.939   9.851  0.5116  0.8352  0.2822
   85SAPS  C211 8070   2.221   1.110   9.775 -0.0245 -0.3671  0.0478
   85SAPS  H11R 8071   2.212   1.187   9.854  0.9877 -0.8404  0.6477
   85SAPS  C212 8072   2.239   1.147   9.649  0.1676  0.2790 -0.1273
   85SAPS  H12R 8073   2.245   1.255   9.628  0.6438  0.4186  0.6883
   85SAPS  C213 8074   2.271   1.057   9.528  0.1940  0.2046 -0.5322
   85SAPS  H13R 8075   2.248   1.109   9.432  2.1773  0.0687 -1.1329
   85SAPS  H13S 8076   2.218   0.959   9.527 -0.8253  0.7292 -2.5459
   85SAPS  C214 8077   2.417   1.015   9.517  0.3107  0.1105 -0.4214
   85SAPS  H14R 8078   2.462   1.009   9.618 -1.5899 -1.4062  0.3920
   85SAPS  C215 8079   2.485   0.989   9.407  0.1401  0.0843 -0.0006
   85SAPS  H15R 8080   2.594   0.977   9.406  0.3875  1.9066  0.7627
   85SAPS  C216 8081   2.423   0.999   9.268  0.5377 -0.4085 -0.6706
   85SAPS  H16R 8082   2.315   1.023   9.270  0.4875 -0.3320  3.0016
   85SAPS  H16S 8083   2.423   0.895   9.229  2.5070 -1.5416  2.0426
   85SAPS  C217 8084   2.488   1.082   9.162  0.3494 -0.3506  0.3193
   85SAPS  H17R 8085   2.599   1.080   9.162  0.5835  3.3637 -2.2533
   85SAPS  H17S 8086   2.454   1.187   9.174 -0.4245 -0.6065  0.3820
   85SAPS  C218 8087   2.453   1.026   9.019  0.1485 -0.9687  0.6086
   85SAPS  H18R 8088   2.342   1.026   9.014 -0.0431  1.9613  2.6027
   85SAPS  H18S 8089   2.500   0.925   9.017  0.0385 -1.0862  2.4481
   85SAPS  C219 8090   2.506   1.108   8.907  0.5219  0.3765 -0.5737
   85SAPS  H19R 8091   2.616   1.094   8.903  0.7283  1.4402  0.7439
   85SAPS  H19S 8092   2.482   1.212   8.939 -0.0507  0.6184 -1.7181
   85SAPS  C220 8093   2.447   1.084   8.774  0.0993 -0.4677 -0.8025
   85SAPS  H20R 8094   2.521   1.108   8.695  2.7649 -2.8494  0.7915
   85SAPS  H20S 8095   2.365   1.159   8.768 -0.2451 -0.8449 -0.8972
   85SAPS  H20T 8096   2.397   0.989   8.743 -0.0391 -0.0977 -1.7557
   85SAPS   C33 8097   1.678   1.285  10.148  0.5509 -0.0596 -0.3418
   85SAPS   H3X 8098   1.646   1.326  10.050 -2.0572 -0.9613  0.0457
   85SAPS   H3Y 8099   1.594   1.234  10.199  0.8466  2.0759  2.5356
   85SAPS   C34 8100   1.784   1.173  10.128 -0.5205  0.0855  0.6566
   85SAPS   H4X 8101   1.850   1.161  10.216  2.6448 -1.0868 -1.6849
   85SAPS   H4Y 8102   1.843   1.212  10.043 -0.2165 -0.9314  0.3903
   85SAPS   C35 8103   1.732   1.038  10.075  0.4240  0.5635  0.2359
   85SAPS   H5X 8104   1.665   1.002  10.156  2.7057 -0.7516  1.6752
   85SAPS   H5Y 8105   1.824   0.976  10.073  1.0534  1.4575  0.7328
   85SAPS   C36 8106   1.655   1.048   9.942 -0.0331 -0.2440 -0.5230
   85SAPS   H6X 8107   1.571   1.120   9.942  0.4450  0.3587 -1.9500
   85SAPS   H6Y 8108   1.613   0.949   9.916 -0.9242 -0.9810  3.1301
   85SAPS   C37 8109   1.762   1.065   9.832 -0.0295 -0.2381 -0.0598
   85SAPS   H7X 8110   1.840   0.986   9.841  1.7685  1.6239  2.3333
   85SAPS   H7Y 8111   1.819   1.157   9.860  0.1102 -0.7132  1.2851
   85SAPS   C38 8112   1.706   1.091   9.693  0.0032 -1.0587  1.0180
   85SAPS   H8X 8113   1.655   1.189   9.700  0.3330 -0.9064  1.2738
   85SAPS   H8Y 8114   1.629   1.013   9.673 -0.1479 -0.0110 -3.9672
   85SAPS   C39 8115   1.798   1.079   9.573 -0.2958 -0.6779  0.1106
   85SAPS   H9X 8116   1.888   1.142   9.583  0.3981 -1.6623  0.2422
   85SAPS   H9Y 8117   1.743   1.114   9.483  0.4293 -1.5462 -0.6874
   85SAPS  C310 8118   1.853   0.936   9.548  0.6676  0.5019 -0.1209
   85SAPS  H10X 8119   1.766   0.867   9.542  0.7103  0.5017 -0.7612
   85SAPS  H10Y 8120   1.915   0.910   9.636 -1.7145  0.7853  1.7376
   85SAPS  C311 8121   1.920   0.930   9.410  0.4222  0.2667  0.0333
   85SAPS  H11X 8122   1.986   0.841   9.409 -1.6863 -1.3867  0.8968
   85SAPS  H11Y 8123   1.973   1.027   9.400 -0.6351  0.8605  0.0030
   85SAPS  C312 8124   1.825   0.922   9.292 -0.6154 -0.4770  0.2089
   85SAPS  H12X 8125   1.745   0.999   9.296 -1.9718 -1.8432  0.2866
   85SAPS  H12Y 8126   1.778   0.822   9.292 -3.5601  0.8019  0.0692
   85SAPS  C313 8127   1.914   0.917   9.162  0.0247 -0.1112  0.0979
   85SAPS  H13X 8128   1.979   0.827   9.171 -0.5549 -0.4813  0.6433
   85SAPS  H13Y 8129   1.977   1.006   9.142  0.5733 -0.9754 -2.3600
   85SAPS  C314 8130   1.839   0.902   9.031 -0.0052 -0.4351  0.0414
   85SAPS  H14X 8131   1.824   1.004   8.989 -2.7248 -0.2370  1.2828
   85SAPS  H14Y 8132   1.739   0.856   9.044  0.5776 -1.8851 -0.4055
   85SAPS  C315 8133   1.908   0.822   8.923  0.2182  0.2477  0.1209
   85SAPS  H15X 8134   1.910   0.712   8.942 -1.6513 -0.1927 -1.8468
   85SAPS  H15Y 8135   2.008   0.862   8.897  0.2887  0.5255  0.7866
   85SAPS  C316 8136   1.822   0.821   8.789 -0.0635 -0.8920 -0.1505
   85SAPS  H16X 8137   1.717   0.792   8.812 -0.0682 -2.7577 -2.1632
   85SAPS  H16Y 8138   1.865   0.738   8.729 -0.0032  0.7559 -2.5031
   85SAPS  C317 8139   1.838   0.944   8.704  0.2372  0.5871  0.9228
   85SAPS  H17X 8140   1.940   0.962   8.664  0.3347 -2.0217 -0.1657
   85SAPS  H17Y 8141   1.800   1.032   8.761 -1.6604  0.9900 -0.8472
   85SAPS  C318 8142   1.739   0.921   8.584 -0.0357  0.4593  0.1953
   85SAPS  H18X 8143   1.744   0.820   8.538 -0.5597  0.9040 -0.8685
   85SAPS  H18Y 8144   1.771   0.965   8.487  2.2491 -0.3884  0.4983
   85SAPS  H18Z 8145   1.637   0.948   8.618 -0.2916  2.3132 -1.8109
   86SAPS     N 8146   3.517   2.546  11.175  0.2812  0.2718  0.0032
   86SAPS   HN1 8147   3.570   2.558  11.264  0.5586 -1.0108  0.0227
   86SAPS   HN2 8148   3.582   2.513  11.101  2.0510  1.2222  1.0662
   86SAPS   HN3 8149   3.475   2.636  11.144  1.9384  0.8046 -0.7748
   86SAPS   C12 8150   3.413   2.442  11.200  0.3295  0.5664  0.1311
   86SAPS  H12A 8151   3.454   2.350  11.241 -1.7576 -0.4277  0.1331
   86SAPS   C13 8152   3.312   2.476  11.308  0.2186 -0.3740 -0.7218
   86SAPS  O13A 8153   3.323   2.583  11.377 -0.0549  0.4691 -0.4914
   86SAPS  O13B 8154   3.227   2.389  11.336 -0.1164  0.2549 -0.5499
   86SAPS   C11 8155   3.336   2.412  11.065 -0.5497 -0.3281  0.0724
   86SAPS  H11A 8156   3.276   2.502  11.038 -0.6744 -0.4629 -0.1022
   86SAPS  H11B 8157   3.270   2.327  11.091 -0.9548  0.1203  0.5479
   86SAPS     P 8158   3.384   2.330  10.816  0.4243  0.1249 -0.1444
   86SAPS   O13 8159   3.471   2.223  10.772  0.0587  0.1538 -0.6193
   86SAPS   O14 8160   3.236   2.303  10.812 -0.3389 -0.0855  0.2326
   86SAPS   O12 8161   3.421   2.387  10.955 -0.1828 -0.0736  0.1943
   86SAPS   O11 8162   3.411   2.442  10.711 -0.3710  0.0601  0.4058
   86SAPS    C1 8163   3.544   2.487  10.689  0.4064  0.0347  0.7554
   86SAPS    HA 8164   3.551   2.591  10.726  0.5922  0.8313 -1.3439
   86SAPS    HB 8165   3.622   2.432  10.745  1.6929 -0.6012 -1.5137
   86SAPS    C2 8166   3.565   2.493  10.536  0.0418  0.0954 -0.3791
   86SAPS    HS 8167   3.673   2.515  10.523 -0.3064  1.9561 -0.3712
   86SAPS   O21 8168   3.480   2.600  10.477  0.0697 -0.5731 -0.5342
   86SAPS   C21 8169   3.522   2.649  10.360  0.1357 -0.5943  0.1331
   86SAPS   O22 8170   3.627   2.620  10.307  0.3953  0.0071 -0.5596
   86SAPS   C22 8171   3.425   2.754  10.307  0.0762  0.1603 -0.0309
   86SAPS   H2R 8172   3.323   2.731  10.344  0.4601 -1.3622  0.1700
   86SAPS   H2S 8173   3.460   2.848  10.354 -1.5357  0.1717  1.2334
   86SAPS    C3 8174   3.526   2.356  10.470 -0.3365  0.1519 -0.3007
   86SAPS    HX 8175   3.416   2.343  10.484 -0.3931 -1.0501 -1.5645
   86SAPS    HY 8176   3.574   2.271  10.523 -0.1866 -0.1914 -0.9714
   86SAPS   O31 8177   3.553   2.339  10.332  0.1974  0.1164 -0.2323
   86SAPS   C31 8178   3.667   2.310  10.288 -0.2710 -0.5240 -0.5678
   86SAPS   O32 8179   3.772   2.284  10.347 -0.0484 -0.2738 -0.0192
   86SAPS   C32 8180   3.659   2.310  10.135  0.0758 -0.0434 -0.1400
   86SAPS   H2X 8181   3.631   2.411  10.098  2.2826  0.4044 -0.7502
   86SAPS   H2Y 8182   3.578   2.241  10.103 -0.9276  1.3845 -0.7656
   86SAPS   C23 8183   3.425   2.774  10.157  0.2631 -0.3484  0.1715
   86SAPS   H3R 8184   3.439   2.684  10.092 -1.0454 -0.5523  0.1383
   86SAPS   H3S 8185   3.503   2.848  10.129  0.1471 -0.2240  0.1800
   86SAPS   C24 8186   3.288   2.833  10.119 -0.3119 -0.4970 -0.4973
   86SAPS   H4R 8187   3.262   2.907  10.197  1.0553 -0.2123 -0.2928
   86SAPS   H4S 8188   3.204   2.764  10.142 -1.0957  0.6470  0.2012
   86SAPS   C25 8189   3.286   2.903   9.986  0.3842  0.5535  0.6662
   86SAPS   H5R 8190   3.267   3.011   9.987 -0.3753  0.4319  0.1346
   86SAPS   C26 8191   3.288   2.830   9.869 -0.8111 -0.0002 -0.1206
   86SAPS   H6R 8192   3.272   2.892   9.779 -1.0313 -0.2953 -0.2884
   86SAPS   C27 8193   3.283   2.682   9.840  0.7350  0.2316  0.2044
   86SAPS   H7R 8194   3.215   2.642   9.918 -0.8889  2.9732  0.3219
   86SAPS   H7S 8195   3.380   2.632   9.860  1.8161  1.3405 -1.9364
   86SAPS   C28 8196   3.233   2.639   9.705  1.0160  0.2024 -0.1163
   86SAPS   H8R 8197   3.135   2.591   9.706  1.4695 -0.7570  1.4857
   86SAPS   C29 8198   3.299   2.646   9.591  0.4529 -0.0932 -0.5367
   86SAPS   H9R 8199   3.247   2.615   9.499  0.3476 -1.1640 -0.1268
   86SAPS  C210 8200   3.440   2.696   9.565  0.2717 -0.2142 -0.3638
   86SAPS  H10R 8201   3.495   2.695   9.661 -0.5849  1.4434  0.1827
   86SAPS  H10S 8202   3.450   2.794   9.512 -1.0010 -1.5263 -3.2986
   86SAPS  C211 8203   3.515   2.594   9.490  0.3347 -0.8397 -0.5769
   86SAPS  H11R 8204   3.538   2.499   9.540 -0.2742 -1.6390 -1.7758
   86SAPS  C212 8205   3.556   2.590   9.359  0.4326  0.7751 -0.0050
   86SAPS  H12R 8206   3.636   2.518   9.336  1.6912  2.2566 -0.4291
   86SAPS  C213 8207   3.533   2.698   9.257  0.4183  0.3306  0.9816
   86SAPS  H13R 8208   3.615   2.676   9.185 -0.6396  0.2882 -0.2432
   86SAPS  H13S 8209   3.551   2.802   9.292  0.9304  1.0036 -1.1332
   86SAPS  C214 8210   3.400   2.677   9.186 -0.1790  0.2926 -0.2008
   86SAPS  H14R 8211   3.314   2.676   9.254 -0.2733 -0.6949 -0.3247
   86SAPS  C215 8212   3.367   2.659   9.058 -0.1112 -0.7103 -0.2984
   86SAPS  H15R 8213   3.261   2.655   9.029  0.3859 -0.2819 -2.3426
   86SAPS  C216 8214   3.453   2.657   8.935 -0.3807 -0.2525 -0.1105
   86SAPS  H16R 8215   3.508   2.754   8.934  0.7191 -0.8557 -0.3562
   86SAPS  H16S 8216   3.394   2.636   8.844  0.6659 -0.7132 -0.7009
   86SAPS  C217 8217   3.581   2.560   8.921 -0.2965 -0.7969 -0.8413
   86SAPS  H17R 8218   3.563   2.471   8.984 -1.1110  0.7688  1.2737
   86SAPS  H17S 8219   3.660   2.605   8.985  0.0129  1.7829 -2.8870
   86SAPS  C218 8220   3.622   2.528   8.775  0.3959 -0.1559  0.0905
   86SAPS  H18R 8221   3.552   2.447   8.743  2.4184 -1.9425  0.0058
   86SAPS  H18S 8222   3.726   2.491   8.774 -0.3164 -2.3622  0.9568
   86SAPS  C219 8223   3.615   2.652   8.682  0.1809  0.6074  0.1595
   86SAPS  H19R 8224   3.510   2.690   8.680  0.5999  1.8187  0.6752
   86SAPS  H19S 8225   3.622   2.607   8.580 -1.6578 -1.6496  0.9241
   86SAPS  C220 8226   3.715   2.759   8.719 -0.7901 -0.6761  0.1725
   86SAPS  H20R 8227   3.815   2.716   8.739 -0.1618  1.1188  1.1000
   86SAPS  H20S 8228   3.684   2.807   8.813 -0.1351 -0.3443  0.2264
   86SAPS  H20T 8229   3.717   2.841   8.644  0.3614  0.0564  0.9686
   86SAPS   C33 8230   3.787   2.270  10.066 -0.4088 -0.3746  0.1779
   86SAPS   H3X 8231   3.799   2.161  10.086 -0.4959 -0.7139 -1.4845
   86SAPS   H3Y 8232   3.879   2.320  10.103 -0.3213 -0.6149  0.2916
   86SAPS   C34 8233   3.786   2.284   9.912  0.0154 -0.8581 -0.1669
   86SAPS   H4X 8234   3.878   2.238   9.869  0.1312  1.0346 -2.1042
   86SAPS   H4Y 8235   3.779   2.390   9.880 -2.4154 -0.0603  2.5865
   86SAPS   C35 8236   3.674   2.202   9.850  0.6511  0.0732 -0.1193
   86SAPS   H5X 8237   3.578   2.214   9.905 -0.2378  0.4797 -1.6923
   86SAPS   H5Y 8238   3.691   2.094   9.872  4.1644  0.3175 -1.1119
   86SAPS   C36 8239   3.646   2.212   9.701  0.6644 -0.1774 -0.1213
   86SAPS   H6X 8240   3.668   2.319   9.681  1.5922 -0.2328  0.5540
   86SAPS   H6Y 8241   3.537   2.198   9.685  0.3540  1.6801  0.0926
   86SAPS   C37 8242   3.743   2.131   9.613  0.6603  0.2431  0.0207
   86SAPS   H7X 8243   3.722   2.022   9.616 -0.9349  0.4511 -1.3579
   86SAPS   H7Y 8244   3.843   2.161   9.649  0.5876 -1.4322  1.7710
   86SAPS   C38 8245   3.737   2.175   9.463  0.1296 -0.2658  0.4866
   86SAPS   H8X 8246   3.752   2.284   9.447 -0.1616 -0.1474  0.9990
   86SAPS   H8Y 8247   3.633   2.166   9.425  0.3090  2.9540 -1.0612
   86SAPS   C39 8248   3.838   2.098   9.373  0.3541 -0.0636 -0.3832
   86SAPS   H9X 8249   3.807   1.992   9.374 -0.4914  0.1671 -1.2052
   86SAPS   H9Y 8250   3.941   2.107   9.414 -0.0724  0.7610  0.5475
   86SAPS  C310 8251   3.834   2.148   9.224  0.0668 -0.1269  0.4505
   86SAPS  H10X 8252   3.883   2.248   9.226 -1.8577  0.8480  1.4195
   86SAPS  H10Y 8253   3.733   2.163   9.181 -0.4494  1.5844  2.1303
   86SAPS  C311 8254   3.914   2.067   9.128  0.0675  0.0429  0.4419
   86SAPS  H11X 8255   3.868   1.966   9.128 -2.5205  1.0878 -1.3579
   86SAPS  H11Y 8256   4.011   2.055   9.181 -0.9212 -1.4845  2.0412
   86SAPS  C312 8257   3.922   2.131   8.984  0.3871 -0.2649  0.0787
   86SAPS  H12X 8258   3.831   2.187   8.952  0.3204 -1.0448 -1.1591
   86SAPS  H12Y 8259   3.926   2.044   8.915 -3.4537 -0.4682 -0.0831
   86SAPS  C313 8260   4.053   2.210   8.967 -0.7168 -0.0712  0.0602
   86SAPS  H13X 8261   4.142   2.167   9.018 -0.3855  0.5905  0.0519
   86SAPS  H13Y 8262   4.045   2.316   8.998 -0.9547 -0.1946  0.4328
   86SAPS  C314 8263   4.088   2.221   8.812  0.3730  0.6153  0.4875
   86SAPS  H14X 8264   3.992   2.222   8.757 -0.9296  0.1796  2.6135
   86SAPS  H14Y 8265   4.143   2.129   8.785 -3.4992 -1.5417 -0.8759
   86SAPS  C315 8266   4.172   2.349   8.788  0.0094  0.1706 -0.1492
   86SAPS  H15X 8267   4.263   2.343   8.852 -1.4336 -2.1406  1.8454
   86SAPS  H15Y 8268   4.106   2.435   8.813 -1.4893 -1.4227  1.7099
   86SAPS  C316 8269   4.207   2.358   8.640 -0.0855  0.2118  0.3704
   86SAPS  H16X 8270   4.282   2.282   8.611 -1.1686 -1.1634  1.0443
   86SAPS  H16Y 8271   4.253   2.456   8.616  0.9533 -0.1600  0.8087
   86SAPS  C317 8272   4.093   2.339   8.535 -0.9708 -0.5840 -0.1893
   86SAPS  H17X 8273   4.061   2.234   8.515  0.6069 -0.5478 -3.7812
   86SAPS  H17Y 8274   4.138   2.375   8.440 -0.7153 -1.6741 -0.5008
   86SAPS  C318 8275   3.970   2.428   8.559  0.2735  0.1445  0.3339
   86SAPS  H18X 8276   3.904   2.420   8.470  2.0150  2.6376 -1.2902
   86SAPS  H18Y 8277   4.001   2.534   8.563  0.3357  0.1924 -0.9901
   86SAPS  H18Z 8278   3.913   2.401   8.650 -0.0212  0.1952  0.1644
   87SAPS     N 8279   6.158   1.918  11.167  0.0967  0.1862  0.3570
   87SAPS   HN1 8280   6.190   1.823  11.193 -0.9919 -0.3687 -0.2796
   87SAPS   HN2 8281   6.232   1.979  11.208 -0.5220 -0.5872  2.8247
   87SAPS   HN3 8282   6.066   1.938  11.213 -0.2853  0.0313 -0.3386
   87SAPS   C12 8283   6.152   1.942  11.025 -0.1634 -0.0808 -0.6615
   87SAPS  H12A 8284   6.182   2.043  11.002  2.5054 -0.4353  0.8036
   87SAPS   C13 8285   6.256   1.853  10.944 -0.0484  0.2497  0.3538
   87SAPS  O13A 8286   6.354   1.805  11.013 -0.3649 -0.3156  0.1513
   87SAPS  O13B 8287   6.254   1.853  10.819  0.1201  0.1034 -0.1851
   87SAPS   C11 8288   6.013   1.912  10.965  0.1472 -0.2456 -0.1458
   87SAPS  H11A 8289   6.001   1.802  10.954 -0.8708 -0.0981 -0.5391
   87SAPS  H11B 8290   6.019   1.938  10.857 -0.1595 -1.0823 -0.3729
   87SAPS     P 8291   5.836   2.100  10.990 -0.0200 -0.1862 -0.1830
   87SAPS   O13 8292   5.699   2.092  11.049 -0.0943  0.0248 -0.4557
   87SAPS   O14 8293   5.912   2.222  11.023  1.0936 -0.0350 -0.5070
   87SAPS   O12 8294   5.912   1.972  11.042  0.6722  0.4765  0.4690
   87SAPS   O11 8295   5.827   2.088  10.834  0.6291  0.3869  0.5091
   87SAPS    C1 8296   5.741   1.994  10.771  0.7506 -0.0097 -0.2297
   87SAPS    HA 8297   5.740   1.899  10.828 -1.0614 -1.1598 -2.0604
   87SAPS    HB 8298   5.640   2.034  10.749  1.1901 -0.2772 -3.0935
   87SAPS    C2 8299   5.794   1.936  10.640 -0.5762 -0.6076 -0.1529
   87SAPS    HS 8300   5.878   1.866  10.657 -1.3383 -1.2429  1.1277
   87SAPS   O21 8301   5.827   2.046  10.552  0.6274  0.4549  0.4374
   87SAPS   C21 8302   5.936   2.029  10.477 -1.1535 -0.5017  0.1671
   87SAPS   O22 8303   6.016   1.936  10.479  0.0688  0.3256 -0.5766
   87SAPS   C22 8304   5.960   2.139  10.371  0.1610  0.1382  0.2002
   87SAPS   H2R 8305   5.900   2.224  10.411  0.2225 -1.0071  2.9676
   87SAPS   H2S 8306   6.067   2.169  10.372  0.2800 -0.2373 -0.5877
   87SAPS    C3 8307   5.697   1.839  10.566 -0.1824 -0.1672 -0.3015
   87SAPS    HX 8308   5.601   1.891  10.548  0.4953  0.4030 -2.6254
   87SAPS    HY 8309   5.673   1.749  10.627 -1.6289  0.0862 -0.4667
   87SAPS   O31 8310   5.748   1.800  10.439 -0.4883  0.1269 -0.4998
   87SAPS   C31 8311   5.676   1.702  10.378 -0.0770 -0.0615  0.0261
   87SAPS   O32 8312   5.575   1.658  10.428  0.5471 -0.1495 -0.0333
   87SAPS   C32 8313   5.741   1.659  10.244 -0.9482 -0.6391 -0.2246
   87SAPS   H2X 8314   5.815   1.583  10.275  0.6111  1.0721  0.4552
   87SAPS   H2Y 8315   5.791   1.750  10.206 -0.4175  0.2181  2.2940
   87SAPS   C23 8316   5.896   2.102  10.235  0.3185  0.5246  0.2692
   87SAPS   H3R 8317   5.787   2.084  10.249  0.7849 -0.3182  3.4636
   87SAPS   H3S 8318   5.946   2.007  10.207 -0.6467  0.3516 -1.0148
   87SAPS   C24 8319   5.927   2.219  10.131 -0.6995  0.4483  0.2143
   87SAPS   H4R 8320   5.958   2.174  10.034 -0.9392  2.0201 -0.6255
   87SAPS   H4S 8321   6.020   2.273  10.159 -0.6266  0.2024  0.4501
   87SAPS   C25 8322   5.823   2.320  10.113 -0.4604 -0.0387 -0.9335
   87SAPS   H5R 8323   5.802   2.381  10.203  1.2467 -0.3353 -0.3077
   87SAPS   C26 8324   5.762   2.352   9.999  0.3663 -0.2118  0.0838
   87SAPS   H6R 8325   5.697   2.441   9.993 -0.1104 -0.6222 -1.4460
   87SAPS   C27 8326   5.758   2.295   9.860  0.8455 -0.0736 -0.1840
   87SAPS   H7R 8327   5.858   2.319   9.816  0.0190  1.2113 -1.4628
   87SAPS   H7S 8328   5.682   2.348   9.798  0.8048  0.4686  0.3271
   87SAPS   C28 8329   5.724   2.148   9.861  0.8429 -0.2864  0.1772
   87SAPS   H8R 8330   5.715   2.093   9.956 -0.8644  2.2328  1.6008
   87SAPS   C29 8331   5.658   2.092   9.756  0.6191 -0.2002  0.0788
   87SAPS   H9R 8332   5.629   1.986   9.759 -0.0512 -0.0377 -0.5289
   87SAPS  C210 8333   5.628   2.165   9.623  0.0836  0.5250  0.1461
   87SAPS  H10R 8334   5.718   2.221   9.590  2.2271 -1.8504  1.5988
   87SAPS  H10S 8335   5.551   2.243   9.638 -0.4656 -0.0234  0.2429
   87SAPS  C211 8336   5.579   2.059   9.523  0.5994 -0.6448 -1.1731
   87SAPS  H11R 8337   5.507   1.988   9.566 -0.9665  1.7560  0.4067
   87SAPS  C212 8338   5.613   2.049   9.398 -0.3244  0.1351  0.2017
   87SAPS  H12R 8339   5.600   1.956   9.341 -1.2109  1.4056 -1.8092
   87SAPS  C213 8340   5.709   2.142   9.322  0.4173  0.2292 -0.5476
   87SAPS  H13R 8341   5.812   2.134   9.362  0.3504  0.8795 -0.2231
   87SAPS  H13S 8342   5.696   2.248   9.353 -0.4073  0.1786 -0.6952
   87SAPS  C214 8343   5.707   2.139   9.169  0.5041 -0.0196 -0.4581
   87SAPS  H14R 8344   5.649   2.222   9.127 -1.0712 -1.2007 -0.6914
   87SAPS  C215 8345   5.758   2.041   9.083  0.5364 -1.0989 -0.2720
   87SAPS  H15R 8346   5.721   2.044   8.979  2.0797  0.3942 -0.8318
   87SAPS  C216 8347   5.834   1.924   9.125  0.0970 -0.1344 -0.0895
   87SAPS  H16R 8348   5.798   1.846   9.054 -1.4148  1.8362 -1.5726
   87SAPS  H16S 8349   5.822   1.893   9.231  0.4846 -0.6605 -0.1948
   87SAPS  C217 8350   5.996   1.935   9.109 -0.0262  0.4113 -0.2046
   87SAPS  H17R 8351   6.044   1.850   9.162 -2.4258  0.1235  1.6917
   87SAPS  H17S 8352   6.035   2.028   9.154  1.8776 -0.9781  1.2011
   87SAPS  C218 8353   6.034   1.940   8.959  1.1688 -0.2662 -0.0869
   87SAPS  H18R 8354   6.040   2.047   8.927  1.1460  0.2056  1.3962
   87SAPS  H18S 8355   5.956   1.886   8.902 -0.0316  1.6553 -0.3606
   87SAPS  C219 8356   6.174   1.880   8.930  0.6837 -0.3213  0.5353
   87SAPS  H19R 8357   6.173   1.772   8.953  1.7913 -0.2030  1.2454
   87SAPS  H19S 8358   6.254   1.915   8.999  0.9779 -0.7528  0.4130
   87SAPS  C220 8359   6.230   1.911   8.788  0.0712  0.7123  0.3642
   87SAPS  H20R 8360   6.235   2.021   8.769 -3.4119  0.6166 -2.1701
   87SAPS  H20S 8361   6.160   1.865   8.716  1.4433 -0.8732 -0.0143
   87SAPS  H20T 8362   6.333   1.869   8.784 -0.1529 -0.2381  2.9821
   87SAPS   C33 8363   5.654   1.589  10.134  0.4567  0.2013  0.5691
   87SAPS   H3X 8364   5.575   1.658  10.097  0.1855 -0.2422  0.3230
   87SAPS   H3Y 8365   5.615   1.495  10.178  1.1468 -0.2312  0.2711
   87SAPS   C34 8366   5.730   1.536  10.009  0.0317 -0.4038  0.2160
   87SAPS   H4X 8367   5.666   1.465   9.951 -0.3679 -1.2162  1.6062
   87SAPS   H4Y 8368   5.815   1.474  10.046 -0.4186 -0.6899  0.7946
   87SAPS   C35 8369   5.775   1.641   9.904  0.0523 -0.9582  0.0974
   87SAPS   H5X 8370   5.877   1.683   9.909 -0.9427  1.8633 -0.9683
   87SAPS   H5Y 8371   5.714   1.734   9.910 -0.1799 -1.1335  0.4567
   87SAPS   C36 8372   5.749   1.589   9.762  0.3537  0.2397 -0.1621
   87SAPS   H6X 8373   5.639   1.578   9.746 -0.6431  4.3731  2.2664
   87SAPS   H6Y 8374   5.795   1.489   9.774  0.7597  0.4133 -0.2585
   87SAPS   C37 8375   5.822   1.671   9.652 -0.0725 -0.3257  0.4996
   87SAPS   H7X 8376   5.927   1.700   9.677  0.0867 -0.6992  0.2653
   87SAPS   H7Y 8377   5.767   1.767   9.641  0.2448  0.1668  2.8663
   87SAPS   C38 8378   5.837   1.585   9.526 -0.3598  0.5447  0.0305
   87SAPS   H8X 8379   5.736   1.544   9.503 -0.7314  0.1816  2.1056
   87SAPS   H8Y 8380   5.910   1.504   9.548 -1.0540  0.2425  1.3438
   87SAPS   C39 8381   5.881   1.660   9.403 -0.6280 -0.4366 -0.3504
   87SAPS   H9X 8382   5.982   1.701   9.428 -1.3865 -0.3746  3.2756
   87SAPS   H9Y 8383   5.810   1.742   9.380 -0.5111 -0.2602 -0.0894
   87SAPS  C310 8384   5.891   1.569   9.269  0.0638  0.3144 -0.1804
   87SAPS  H10X 8385   5.924   1.642   9.192 -0.4629  0.7474  0.0039
   87SAPS  H10Y 8386   5.796   1.524   9.233 -0.5328  0.2341  1.4532
   87SAPS  C311 8387   5.999   1.457   9.277  0.2515  0.2988 -0.1509
   87SAPS  H11X 8388   5.956   1.360   9.309 -0.2826  0.8214  0.7354
   87SAPS  H11Y 8389   6.070   1.493   9.354 -0.1840 -0.1306  0.4569
   87SAPS  C312 8390   6.068   1.444   9.143 -0.2349 -0.7451 -0.6905
   87SAPS  H12X 8391   6.109   1.540   9.105  1.4727 -2.0761 -2.3545
   87SAPS  H12Y 8392   6.000   1.417   9.059  0.5962  1.0490 -2.0068
   87SAPS  C313 8393   6.181   1.347   9.141  0.0340 -0.0198  1.0205
   87SAPS  H13X 8394   6.143   1.250   9.178  1.3748 -0.1677  2.0932
   87SAPS  H13Y 8395   6.274   1.362   9.200  1.8727 -2.3882 -1.0596
   87SAPS  C314 8396   6.241   1.344   9.000  0.9901  0.5872 -0.4320
   87SAPS  H14X 8397   6.165   1.343   8.919 -1.7071  2.5039  1.8822
   87SAPS  H14Y 8398   6.301   1.250   9.003  1.7670  1.0989  0.7121
   87SAPS  C315 8399   6.343   1.460   8.972 -0.1584  0.2322 -0.2409
   87SAPS  H15X 8400   6.415   1.474   9.056  1.9188  1.5762 -2.1032
   87SAPS  H15Y 8401   6.285   1.554   8.956 -0.8294  0.0270  0.9089
   87SAPS  C316 8402   6.422   1.453   8.843  0.2042  0.4547  0.3794
   87SAPS  H16X 8403   6.500   1.374   8.847  1.6290  1.8358  0.7020
   87SAPS  H16Y 8404   6.478   1.547   8.828 -2.1618  2.6326  3.6339
   87SAPS  C317 8405   6.332   1.423   8.718  0.1854 -0.3462  0.4905
   87SAPS  H17X 8406   6.312   1.316   8.697  1.5097 -0.6239  0.5645
   87SAPS  H17Y 8407   6.410   1.451   8.643 -0.5978 -2.6529 -1.3028
   87SAPS  C318 8408   6.205   1.506   8.713 -0.4480 -0.5499 -0.1339
   87SAPS  H18X 8409   6.142   1.510   8.805  0.6328  2.0707  0.5867
   87SAPS  H18Y 8410   6.133   1.484   8.631  0.3845  2.2605 -1.7524
   87SAPS  H18Z 8411   6.237   1.612   8.705  2.0828 -1.3409 -1.7829
   88SAPS     N 8412   1.270   1.637  11.086 -0.0691 -0.2207 -0.5927
   88SAPS   HN1 8413   1.354   1.690  11.057  0.6795  0.0016  1.7511
   88SAPS   HN2 8414   1.291   1.571  11.163  0.8761  0.2972 -0.3879
   88SAPS   HN3 8415   1.228   1.592  11.002 -1.8016  0.7124 -0.2846
   88SAPS   C12 8416   1.165   1.736  11.144 -0.0071  0.7761  0.2989
   88SAPS  H12A 8417   1.080   1.686  11.189  0.5674 -0.2239  0.2875
   88SAPS   C13 8418   1.229   1.820  11.252  0.0860  0.2147  0.4633
   88SAPS  O13A 8419   1.359   1.810  11.257 -0.2388 -0.4353  0.3961
   88SAPS  O13B 8420   1.172   1.920  11.301 -0.5348 -0.2128  0.4661
   88SAPS   C11 8421   1.109   1.815  11.019  0.1574  0.2915  0.9142
   88SAPS  H11A 8422   1.177   1.858  10.942 -1.7978 -0.7695 -1.5502
   88SAPS  H11B 8423   1.061   1.902  11.068 -1.3046  0.0547 -0.0302
   88SAPS     P 8424   1.041   1.648  10.825  0.0916 -0.1111  0.3063
   88SAPS   O13 8425   1.155   1.560  10.859  0.1323 -0.1904 -0.0516
   88SAPS   O14 8426   0.917   1.577  10.793  0.1088  0.1273  0.0923
   88SAPS   O12 8427   1.011   1.733  10.948 -0.1322  0.2111 -0.4647
   88SAPS   O11 8428   1.085   1.759  10.713 -0.4912  0.0300  0.2830
   88SAPS    C1 8429   0.990   1.858  10.671  0.1290 -0.2892  0.5097
   88SAPS    HA 8430   0.914   1.872  10.751  2.6194  1.6641  2.6818
   88SAPS    HB 8431   1.040   1.951  10.640 -0.2020  0.0909  1.0954
   88SAPS    C2 8432   0.905   1.815  10.544 -0.7383 -0.0165 -0.1253
   88SAPS    HS 8433   0.858   1.715  10.555 -1.8989  0.4760 -0.4809
   88SAPS   O21 8434   0.992   1.818  10.434 -0.0466 -0.0689  0.3505
   88SAPS   C21 8435   1.064   1.700  10.411  0.3509 -0.2274 -0.1219
   88SAPS   O22 8436   1.043   1.594  10.467 -0.0184  0.7475  0.6322
   88SAPS   C22 8437   1.177   1.739  10.317  0.4486 -0.3547  0.5765
   88SAPS   H2R 8438   1.148   1.835  10.269  1.7787 -1.0770 -1.8461
   88SAPS   H2S 8439   1.270   1.758  10.375 -0.1407 -0.2936  1.5296
   88SAPS    C3 8440   0.791   1.910  10.517  0.4969 -0.4628  0.0451
   88SAPS    HX 8441   0.821   2.015  10.540 -0.1239 -0.0090 -1.1409
   88SAPS    HY 8442   0.701   1.897  10.581  0.1498  0.3922 -0.2581
   88SAPS   O31 8443   0.745   1.897  10.384  1.2865  0.2007  0.2491
   88SAPS   C31 8444   0.804   1.967  10.281 -0.5604  0.3880 -0.4374
   88SAPS   O32 8445   0.888   2.052  10.301  0.1883  0.1252 -0.1697
   88SAPS   C32 8446   0.755   1.914  10.142  0.7169 -0.7534  0.2195
   88SAPS   H2X 8447   0.651   1.880  10.164  1.0830  0.1628  4.0894
   88SAPS   H2Y 8448   0.819   1.831  10.107 -0.7123 -2.4231  1.3977
   88SAPS   C23 8449   1.198   1.621  10.210 -0.5273  0.1132  0.0582
   88SAPS   H3R 8450   1.100   1.592  10.166 -0.0152 -3.1855  0.7797
   88SAPS   H3S 8451   1.236   1.530  10.261 -0.1353  0.2629  0.0343
   88SAPS   C24 8452   1.302   1.660  10.106 -0.5173  0.6194  0.3242
   88SAPS   H4R 8453   1.288   1.765  10.071 -1.7814  0.4527  0.3009
   88SAPS   H4S 8454   1.279   1.592  10.022 -2.7096  0.1761  1.2253
   88SAPS   C25 8455   1.443   1.654  10.154 -0.0051  0.1850  0.2435
   88SAPS   H5R 8456   1.455   1.677  10.261 -1.1883 -1.3685  0.7506
   88SAPS   C26 8457   1.552   1.620  10.083 -0.6883 -0.2512  0.7078
   88SAPS   H6R 8458   1.652   1.631  10.127 -1.0923  1.5047  1.2706
   88SAPS   C27 8459   1.560   1.588   9.932 -0.0972 -0.0045 -0.2095
   88SAPS   H7R 8460   1.486   1.511   9.902 -1.3066  0.9545  0.2508
   88SAPS   H7S 8461   1.661   1.543   9.925 -0.0973 -0.1656  0.6348
   88SAPS   C28 8462   1.541   1.700   9.842 -0.2787  0.3073  0.3874
   88SAPS   H8R 8463   1.481   1.786   9.873 -0.5524  0.8899 -1.6089
   88SAPS   C29 8464   1.609   1.713   9.726  0.3870  0.0606  0.0329
   88SAPS   H9R 8465   1.579   1.802   9.669  2.1988  2.0252  1.9496
   88SAPS  C210 8466   1.712   1.622   9.665  0.1025 -0.6257 -0.1276
   88SAPS  H10R 8467   1.689   1.514   9.678  0.0207 -0.3965  1.9668
   88SAPS  H10S 8468   1.811   1.647   9.709 -0.2828  0.5549  0.0856
   88SAPS  C211 8469   1.733   1.643   9.513 -0.8146  0.0637 -0.2249
   88SAPS  H11R 8470   1.702   1.739   9.468  1.1226  0.5402 -0.6813
   88SAPS  C212 8471   1.792   1.555   9.428  0.6829 -0.0430  0.5483
   88SAPS  H12R 8472   1.826   1.591   9.330  1.8731  1.9872  1.6315
   88SAPS  C213 8473   1.842   1.419   9.463 -0.3597 -0.1981  0.0498
   88SAPS  H13R 8474   1.799   1.348   9.389 -0.4032  1.0847 -1.2183
   88SAPS  H13S 8475   1.809   1.383   9.562 -2.1689  1.4486  0.1051
   88SAPS  C214 8476   1.991   1.406   9.461 -0.4125 -0.5421  0.2220
   88SAPS  H14R 8477   2.045   1.457   9.542  1.7580 -0.1471 -1.3797
   88SAPS  C215 8478   2.067   1.334   9.373 -0.7893 -0.0582 -0.2865
   88SAPS  H15R 8479   2.176   1.338   9.389 -1.0722  1.0930  1.6245
   88SAPS  C216 8480   2.011   1.268   9.250  0.0619  0.0592 -0.3155
   88SAPS  H16R 8481   1.907   1.230   9.243 -0.3812  0.0027  3.9032
   88SAPS  H16S 8482   2.069   1.173   9.249  1.4246  0.8395  0.7509
   88SAPS  C217 8483   2.060   1.332   9.119 -0.2009 -0.0399  0.0383
   88SAPS  H17R 8484   2.171   1.320   9.120 -0.0946  0.4634 -1.8586
   88SAPS  H17S 8485   2.032   1.440   9.118 -0.7292 -0.1019  2.6062
   88SAPS  C218 8486   2.006   1.272   8.993 -0.1953 -0.5540 -0.0797
   88SAPS  H18R 8487   1.896   1.260   8.997 -0.0192 -2.5887 -0.2916
   88SAPS  H18S 8488   2.051   1.171   8.992  1.7339  0.2471  0.5165
   88SAPS  C219 8489   2.044   1.353   8.868  0.2136  0.7782 -0.1244
   88SAPS  H19R 8490   2.153   1.366   8.856  0.3651 -1.1588 -1.3949
   88SAPS  H19S 8491   1.993   1.451   8.868 -2.2916 -0.4132  1.5710
   88SAPS  C220 8492   2.006   1.279   8.736 -0.0743  0.4425  0.6667
   88SAPS  H20R 8493   1.897   1.270   8.718  0.0437  0.5263 -0.1388
   88SAPS  H20S 8494   2.052   1.179   8.724 -0.6300  0.3363 -0.7473
   88SAPS  H20T 8495   2.046   1.338   8.651 -2.0415  1.6451  0.5127
   88SAPS   C33 8496   0.760   2.027  10.039  0.9275  0.3453 -0.1220
   88SAPS   H3X 8497   0.851   2.088  10.024  1.2280 -0.0959 -0.1135
   88SAPS   H3Y 8498   0.682   2.101  10.067  1.3365  0.1865  1.5609
   88SAPS   C34 8499   0.725   1.977   9.897  0.1050  0.0733  0.0826
   88SAPS   H4X 8500   0.621   1.939   9.905  0.7642 -1.6632  1.4297
   88SAPS   H4Y 8501   0.796   1.895   9.870  1.5340  1.2749  0.0713
   88SAPS   C35 8502   0.743   2.082   9.790 -0.1135 -1.0412 -0.5089
   88SAPS   H5X 8503   0.845   2.124   9.801 -1.1335  1.0880  1.6434
   88SAPS   H5Y 8504   0.680   2.174   9.794 -1.5132 -1.9874 -0.0144
   88SAPS   C36 8505   0.723   2.018   9.653  0.8685  0.3098 -0.0874
   88SAPS   H6X 8506   0.616   2.010   9.627  0.7018  1.3731  0.2379
   88SAPS   H6Y 8507   0.770   1.917   9.652  0.5508  0.1522  0.5257
   88SAPS   C37 8508   0.783   2.107   9.544  0.5480 -0.3624  0.4039
   88SAPS   H7X 8509   0.888   2.138   9.562  0.5059 -0.0914  0.2021
   88SAPS   H7Y 8510   0.729   2.205   9.544 -1.8347 -1.6017  0.8661
   88SAPS   C38 8511   0.783   2.041   9.402  0.3400  0.4620  0.8641
   88SAPS   H8X 8512   0.685   2.006   9.363  1.3723  0.4292 -1.9070
   88SAPS   H8Y 8513   0.837   1.944   9.396  0.2604  0.4682 -0.0625
   88SAPS   C39 8514   0.836   2.125   9.291  0.2981 -0.6049  0.0267
   88SAPS   H9X 8515   0.810   2.079   9.194 -2.5114 -1.6833  1.1689
   88SAPS   H9Y 8516   0.945   2.136   9.307  0.1478  1.3852 -0.0480
   88SAPS  C310 8517   0.765   2.261   9.278 -0.5002  0.3479 -0.2173
   88SAPS  H10X 8518   0.819   2.334   9.342 -0.1204  1.5821 -1.8893
   88SAPS  H10Y 8519   0.662   2.249   9.319 -0.5117 -0.1034 -0.3776
   88SAPS  C311 8520   0.763   2.325   9.138  0.7525  0.1247 -0.0191
   88SAPS  H11X 8521   0.696   2.260   9.077 -1.1369  0.5656  1.4747
   88SAPS  H11Y 8522   0.864   2.316   9.093  0.7003 -0.8885  0.0277
   88SAPS  C312 8523   0.728   2.473   9.142  0.3769  0.6838 -0.3189
   88SAPS  H12X 8524   0.793   2.521   9.218  0.1950 -1.3601  1.2325
   88SAPS  H12Y 8525   0.625   2.484   9.182  0.1009 -0.3767 -0.7037
   88SAPS  C313 8526   0.747   2.536   9.006 -0.2500 -0.6235 -0.2089
   88SAPS  H13X 8527   0.847   2.516   8.963  0.7829 -1.4154  2.3799
   88SAPS  H13Y 8528   0.739   2.646   9.019 -1.3865 -0.4800 -1.7930
   88SAPS  C314 8529   0.630   2.492   8.918 -0.7067  0.4965  0.2747
   88SAPS  H14X 8530   0.532   2.488   8.969 -0.7427 -0.1810  0.1585
   88SAPS  H14Y 8531   0.658   2.393   8.876  0.5282  0.4933  1.0637
   88SAPS  C315 8532   0.604   2.575   8.785 -0.6887 -0.6412 -0.3618
   88SAPS  H15X 8533   0.581   2.676   8.825  0.6856 -0.5085  0.1548
   88SAPS  H15Y 8534   0.513   2.535   8.735 -0.5898  1.5411 -2.4613
   88SAPS  C316 8535   0.727   2.587   8.692 -0.7653 -0.1337  0.2948
   88SAPS  H16X 8536   0.743   2.485   8.651  1.8601 -0.5511  2.1558
   88SAPS  H16Y 8537   0.810   2.617   8.759 -1.5401  0.3716  1.0462
   88SAPS  C317 8538   0.717   2.692   8.584  0.7707 -0.1712 -0.0647
   88SAPS  H17X 8539   0.696   2.791   8.630  0.3164 -0.6603  0.8240
   88SAPS  H17Y 8540   0.630   2.666   8.519  1.8001 -1.1611 -1.1032
   88SAPS  C318 8541   0.842   2.704   8.491 -0.2798 -0.4817 -0.2184
   88SAPS  H18X 8542   0.875   2.613   8.438  1.5999 -0.2724  0.5411
   88SAPS  H18Y 8543   0.931   2.740   8.546  0.0040  1.2358 -1.7093
   88SAPS  H18Z 8544   0.818   2.779   8.412 -0.8193  1.7781  1.9272
   89SAPS     N 8545   6.590   1.217  10.894 -0.2395  0.5303 -0.3176
   89SAPS   HN1 8546   6.607   1.235  10.995  2.6791  0.0280 -0.6311
   89SAPS   HN2 8547   6.598   1.118  10.863 -1.3973  0.3122  0.0305
   89SAPS   HN3 8548   6.660   1.279  10.848  0.1654 -1.1558 -2.0980
   89SAPS   C12 8549   6.458   1.267  10.862 -0.3053 -0.1996  0.0401
   89SAPS  H12A 8550   6.405   1.200  10.928 -1.0801  0.8184  0.4699
   89SAPS   C13 8551   6.432   1.412  10.912 -0.2413 -0.4589 -0.0414
   89SAPS  O13A 8552   6.518   1.466  10.983  0.0126  0.2422 -0.0715
   89SAPS  O13B 8553   6.321   1.462  10.898  0.1916  0.1895 -0.2630
   89SAPS   C11 8554   6.441   1.256  10.707 -0.7242 -1.0161 -0.2321
   89SAPS  H11A 8555   6.517   1.320  10.658  0.5621 -1.4089  1.1752
   89SAPS  H11B 8556   6.341   1.298  10.686 -0.7348 -0.4664  0.8501
   89SAPS     P 8557   6.554   1.092  10.550  0.3060  0.1661  0.1162
   89SAPS   O13 8558   6.682   1.132  10.602  0.2592  0.6678 -0.3707
   89SAPS   O14 8559   6.540   0.952  10.499 -0.0858 -0.2509 -0.2670
   89SAPS   O12 8560   6.443   1.125  10.655 -0.1814 -0.4197 -0.0666
   89SAPS   O11 8561   6.514   1.185  10.430 -0.0900  0.2920 -0.0769
   89SAPS    C1 8562   6.390   1.175  10.361 -0.8330 -0.1278 -0.4553
   89SAPS    HA 8563   6.402   1.108  10.273  0.4950  1.6778 -1.7035
   89SAPS    HB 8564   6.316   1.131  10.431  0.9071 -0.7393  1.0879
   89SAPS    C2 8565   6.335   1.308  10.311  1.0906 -0.1330 -0.7294
   89SAPS    HS 8566   6.227   1.283  10.298  0.4076 -0.0316  3.4805
   89SAPS   O21 8567   6.406   1.358  10.192 -0.0946  0.4791  0.5474
   89SAPS   C21 8568   6.390   1.287  10.088  0.2107  0.2851 -0.7455
   89SAPS   O22 8569   6.296   1.206  10.073  0.4549  0.5422  0.6731
   89SAPS   C22 8570   6.497   1.330   9.993  0.0081  0.6493 -0.5901
   89SAPS   H2R 8571   6.471   1.424   9.940 -1.6330  0.8427  0.4990
   89SAPS   H2S 8572   6.591   1.354  10.048 -0.4462  0.7228  0.1647
   89SAPS    C3 8573   6.341   1.421  10.420 -0.2936  0.3410 -0.7310
   89SAPS    HX 8574   6.442   1.413  10.465 -0.3764  0.0932 -0.5869
   89SAPS    HY 8575   6.277   1.394  10.506 -1.6436 -2.2780 -2.3991
   89SAPS   O31 8576   6.326   1.557  10.383 -0.3336 -0.1032  0.2760
   89SAPS   C31 8577   6.213   1.588  10.323  0.2083  0.5348  0.4261
   89SAPS   O32 8578   6.119   1.511  10.310 -0.3488  0.3704 -0.1379
   89SAPS   C32 8579   6.218   1.722  10.265 -0.0228  0.0049 -0.0220
   89SAPS   H2X 8580   6.270   1.792  10.334 -1.9018 -0.2511  1.7556
   89SAPS   H2Y 8581   6.118   1.763  10.241 -0.1729 -1.5040 -2.2802
   89SAPS   C23 8582   6.523   1.223   9.883  0.0562  0.0610  0.0751
   89SAPS   H3R 8583   6.430   1.212   9.822  0.7934  1.1011 -1.2901
   89SAPS   H3S 8584   6.541   1.133   9.946  0.2231  0.8946  1.2434
   89SAPS   C24 8585   6.646   1.249   9.804  0.6031 -0.2006 -0.6407
   89SAPS   H4R 8586   6.730   1.266   9.874  0.0190 -1.1016  0.3001
   89SAPS   H4S 8587   6.632   1.339   9.740  0.4459 -0.2498 -0.6769
   89SAPS   C25 8588   6.698   1.152   9.700 -0.9457 -0.6721 -0.4935
   89SAPS   H5R 8589   6.739   1.061   9.746 -2.7548 -0.5280  1.5990
   89SAPS   C26 8590   6.714   1.164   9.562  0.7256 -0.0927 -0.6551
   89SAPS   H6R 8591   6.757   1.081   9.504  0.2569 -1.8966  1.4569
   89SAPS   C27 8592   6.670   1.284   9.480 -0.2185 -0.1026 -0.8309
   89SAPS   H7R 8593   6.578   1.326   9.526  0.4058  1.4360 -0.9084
   89SAPS   H7S 8594   6.641   1.242   9.381  1.1217  0.6104 -1.5615
   89SAPS   C28 8595   6.768   1.405   9.467  0.1651 -0.3092  0.7448
   89SAPS   H8R 8596   6.778   1.462   9.560 -5.0153 -1.7997  2.5812
   89SAPS   C29 8597   6.830   1.435   9.351  0.1265 -0.6300 -0.0100
   89SAPS   H9R 8598   6.911   1.509   9.345  1.3548 -1.6354  2.5154
   89SAPS  C210 8599   6.814   1.363   9.210  0.3245  0.4677  0.1973
   89SAPS  H10R 8600   6.763   1.266   9.224 -0.8855  0.9781 -0.5481
   89SAPS  H10S 8601   6.918   1.338   9.182  0.4688 -1.0099  1.8228
   89SAPS  C211 8602   6.733   1.456   9.127 -0.2386 -0.1176  0.0377
   89SAPS  H11R 8603   6.626   1.451   9.150 -0.3263  1.5751  0.1434
   89SAPS  C212 8604   6.780   1.536   9.027  0.4983 -0.3286 -0.5349
   89SAPS  H12R 8605   6.713   1.595   8.963 -0.4312  0.0269  0.7149
   89SAPS  C213 8606   6.923   1.557   8.988  0.6434 -0.1778  0.2808
   89SAPS  H13R 8607   6.944   1.471   8.921 -1.4761 -1.3486  1.0307
   89SAPS  H13S 8608   6.989   1.545   9.077 -1.0988  2.7229  2.1106
   89SAPS  C214 8609   6.961   1.674   8.907  0.4112 -0.3417  0.2027
   89SAPS  H14R 8610   6.951   1.776   8.948 -2.9218 -0.5094  0.1293
   89SAPS  C215 8611   6.998   1.679   8.778  0.0102  0.1389 -0.5235
   89SAPS  H15R 8612   7.007   1.774   8.724 -0.7646  0.1141 -0.7090
   89SAPS  C216 8613   7.017   1.556   8.687  0.0807 -0.3826  0.1642
   89SAPS  H16R 8614   7.069   1.477   8.746  0.0080 -2.0194 -1.8400
   89SAPS  H16S 8615   7.093   1.602   8.620 -2.3589  0.9369 -1.8338
   89SAPS  C217 8616   6.894   1.496   8.620  0.6076  0.2936  0.7667
   89SAPS  H17R 8617   6.825   1.464   8.701 -1.6884  2.0369 -0.3738
   89SAPS  H17S 8618   6.914   1.405   8.560 -2.4446  0.8330 -1.2875
   89SAPS  C218 8619   6.812   1.584   8.523  0.3064  0.7048  0.6205
   89SAPS  H18R 8620   6.762   1.669   8.574 -2.0750  0.5121 -1.2342
   89SAPS  H18S 8621   6.729   1.529   8.475  0.9047  0.1724  0.1792
   89SAPS  C219 8622   6.899   1.649   8.421 -0.6121  0.1675  0.0929
   89SAPS  H19R 8623   6.983   1.704   8.470  0.7243 -1.6810 -0.0323
   89SAPS  H19S 8624   6.834   1.715   8.360  1.9827  1.2725 -1.6748
   89SAPS  C220 8625   6.970   1.552   8.334 -0.5119  0.1236 -0.5049
   89SAPS  H20R 8626   7.025   1.587   8.244 -1.1031 -0.2320 -1.0117
   89SAPS  H20S 8627   6.900   1.473   8.300  2.1130 -2.2810 -0.7066
   89SAPS  H20T 8628   7.045   1.492   8.391  1.1331  2.1458 -0.3859
   89SAPS   C33 8629   6.292   1.709  10.135  0.2700 -0.4233  0.0737
   89SAPS   H3X 8630   6.393   1.665  10.150  0.0294 -0.3248  2.3499
   89SAPS   H3Y 8631   6.315   1.814  10.106 -1.1016  0.0110  0.4772
   89SAPS   C34 8632   6.211   1.642  10.025  0.5472 -0.3663 -0.2706
   89SAPS   H4X 8633   6.104   1.674  10.029  0.5349 -0.4541  0.2406
   89SAPS   H4Y 8634   6.206   1.537  10.059  0.5481  0.0145  0.9858
   89SAPS   C35 8635   6.265   1.644   9.882 -0.6539  0.1984  0.0577
   89SAPS   H5X 8636   6.371   1.610   9.872 -0.8258 -0.0533 -1.0081
   89SAPS   H5Y 8637   6.252   1.747   9.845  0.6723  0.4269  0.1498
   89SAPS   C36 8638   6.186   1.545   9.792  0.0838 -0.9397 -0.3515
   89SAPS   H6X 8639   6.083   1.563   9.830  0.7222  0.5059  0.7976
   89SAPS   H6Y 8640   6.223   1.441   9.806  4.2906  0.3663 -0.3652
   89SAPS   C37 8641   6.210   1.575   9.642 -0.1887 -0.3397 -0.4247
   89SAPS   H7X 8642   6.184   1.679   9.613  0.5086  0.3046  1.1749
   89SAPS   H7Y 8643   6.136   1.509   9.592 -1.8182  2.0050 -1.2855
   89SAPS   C38 8644   6.353   1.540   9.598  0.9932  0.1180  0.3199
   89SAPS   H8X 8645   6.367   1.430   9.613 -1.7262 -0.1710  1.3962
   89SAPS   H8Y 8646   6.435   1.601   9.641 -0.2367  1.8066  0.3726
   89SAPS   C39 8647   6.361   1.544   9.441 -0.7701  0.0708  0.2091
   89SAPS   H9X 8648   6.278   1.476   9.411  0.4426 -0.9093 -1.1229
   89SAPS   H9Y 8649   6.461   1.502   9.416 -0.6216  0.6751 -0.2522
   89SAPS  C310 8650   6.364   1.689   9.387 -0.3806 -0.6317 -0.1256
   89SAPS  H10X 8651   6.445   1.732   9.450  1.2327  0.7223 -2.9614
   89SAPS  H10Y 8652   6.270   1.744   9.409  0.0486  1.0241 -2.2162
   89SAPS  C311 8653   6.408   1.701   9.241  0.0190  0.2723  0.2693
   89SAPS  H11X 8654   6.332   1.659   9.172  0.2802 -1.7515  1.1445
   89SAPS  H11Y 8655   6.496   1.635   9.224  1.5887  2.1961  0.5445
   89SAPS  C312 8656   6.453   1.849   9.191 -0.1453  0.1505 -0.2697
   89SAPS  H12X 8657   6.522   1.884   9.271 -0.6162 -0.6699  0.5239
   89SAPS  H12Y 8658   6.363   1.914   9.187 -1.2316 -1.1716  1.1535
   89SAPS  C313 8659   6.509   1.833   9.040  0.0880  0.2647 -0.5763
   89SAPS  H13X 8660   6.436   1.769   8.986 -0.6256 -0.2630  0.9553
   89SAPS  H13Y 8661   6.587   1.756   9.058 -1.3777 -1.1824 -0.1284
   89SAPS  C314 8662   6.561   1.955   8.967  0.6022 -0.3367 -0.5646
   89SAPS  H14X 8663   6.616   2.021   9.037  1.1584 -1.4030  0.0284
   89SAPS  H14Y 8664   6.474   2.014   8.931 -0.0943 -1.1418 -0.2368
   89SAPS  C315 8665   6.639   1.924   8.838 -0.0550  0.5784  0.4109
   89SAPS  H15X 8666   6.592   1.837   8.787 -0.1256 -0.5540  2.3329
   89SAPS  H15Y 8667   6.743   1.895   8.864  1.1729  2.4692 -1.9563
   89SAPS  C316 8668   6.656   2.057   8.758 -0.0592  0.5882  0.3999
   89SAPS  H16X 8669   6.714   2.133   8.814 -1.1618  0.9181  1.1256
   89SAPS  H16Y 8670   6.562   2.114   8.740 -2.0504 -2.5509 -0.0035
   89SAPS  C317 8671   6.733   2.030   8.632  0.1436 -0.1075 -0.3771
   89SAPS  H17X 8672   6.672   1.964   8.567 -0.2482  0.4223 -0.5554
   89SAPS  H17Y 8673   6.833   1.981   8.640 -0.3233 -1.0477 -0.2068
   89SAPS  C318 8674   6.740   2.161   8.559 -0.3826  0.1126 -0.2767
   89SAPS  H18X 8675   6.796   2.148   8.464  0.4424  0.6688  0.1184
   89SAPS  H18Y 8676   6.787   2.240   8.622 -0.7116  0.4125 -0.4046
   89SAPS  H18Z 8677   6.641   2.198   8.526 -0.3874 -1.2720 -1.9304
   90SAPS     N 8678   2.836   3.169  11.155  0.2152 -0.5943  0.0234
   90SAPS   HN1 8679   2.863   3.085  11.100  1.6018  0.8230 -1.5491
   90SAPS   HN2 8680   2.878   3.171  11.250  1.9209  2.0694 -0.6785
   90SAPS   HN3 8681   2.732   3.175  11.156  0.2579  0.3874  0.8068
   90SAPS   C12 8682   2.894   3.294  11.076 -0.6558  0.6187 -0.1746
   90SAPS  H12A 8683   2.843   3.384  11.108  1.0903  1.5659  0.0563
   90SAPS   C13 8684   3.039   3.330  11.115  0.2488  0.3846 -0.2114
   90SAPS  O13A 8685   3.099   3.271  11.208 -0.3708 -0.0003  0.2432
   90SAPS  O13B 8686   3.092   3.430  11.057  0.2179  0.0081  0.0080
   90SAPS   C11 8687   2.865   3.265  10.927 -0.0811 -0.6128 -0.6035
   90SAPS  H11A 8688   2.928   3.175  10.909 -0.2410 -0.9032  0.2422
   90SAPS  H11B 8689   2.885   3.357  10.868 -0.4161 -0.2868 -0.2093
   90SAPS     P 8690   2.671   3.161  10.784 -0.2746  0.0905  0.0916
   90SAPS   O13 8691   2.736   3.033  10.771 -0.1575  0.5344  0.4635
   90SAPS   O14 8692   2.524   3.171  10.801 -0.7117  0.8869  0.8876
   90SAPS   O12 8693   2.733   3.222  10.912 -0.1372 -0.7308 -0.1627
   90SAPS   O11 8694   2.719   3.247  10.669  0.6149  0.0522 -0.4119
   90SAPS    C1 8695   2.636   3.277  10.556 -0.1608  0.4792  0.0667
   90SAPS    HA 8696   2.532   3.303  10.586 -0.0290 -0.4475  1.4384
   90SAPS    HB 8697   2.678   3.370  10.513  0.4307  0.3872  0.4253
   90SAPS    C2 8698   2.654   3.159  10.460 -0.0236  0.5233  0.4044
   90SAPS    HS 8699   2.624   3.065  10.511 -1.0405  0.2683 -0.6298
   90SAPS   O21 8700   2.785   3.152  10.404 -0.6562 -0.1204 -0.3563
   90SAPS   C21 8701   2.848   3.038  10.408 -0.3441 -0.5103 -0.5405
   90SAPS   O22 8702   2.802   2.935  10.456 -0.4859  0.3833  0.3174
   90SAPS   C22 8703   2.991   3.056  10.342  0.1934 -0.6983 -0.5013
   90SAPS   H2R 8704   3.060   3.055  10.430  0.3394  0.6468 -0.5838
   90SAPS   H2S 8705   3.014   2.961  10.287  0.9583 -0.2080 -1.0588
   90SAPS    C3 8706   2.552   3.180  10.343 -0.5851 -0.5744 -0.0588
   90SAPS    HX 8707   2.568   3.279  10.295 -1.9435 -0.5559 -0.5071
   90SAPS    HY 8708   2.451   3.183  10.390 -0.0590  0.4501  1.0496
   90SAPS   O31 8709   2.563   3.068  10.254 -0.7096  0.8390  0.2317
   90SAPS   C31 8710   2.508   3.091  10.135 -1.0300  0.7666 -0.5734
   90SAPS   O32 8711   2.452   3.200  10.112 -0.2448 -0.0843 -0.6189
   90SAPS   C32 8712   2.526   2.970  10.043 -0.8928 -0.9737 -0.2266
   90SAPS   H2X 8713   2.538   2.878  10.104 -1.2217 -1.5011 -0.9406
   90SAPS   H2Y 8714   2.620   2.984   9.987 -0.2201  0.3621  1.1512
   90SAPS   C23 8715   3.019   3.188  10.272 -0.4353 -0.1806  0.3954
   90SAPS   H3R 8716   3.130   3.197  10.274 -0.1981 -2.2351 -0.3905
   90SAPS   H3S 8717   2.977   3.283  10.311  0.8492 -0.1821  1.9226
   90SAPS   C24 8718   3.008   3.184  10.117  0.2725  0.0214  0.5982
   90SAPS   H4R 8719   3.049   3.088  10.079 -1.0831 -0.3632  0.0299
   90SAPS   H4S 8720   3.081   3.254  10.069  0.4623 -1.4518 -1.4071
   90SAPS   C25 8721   2.872   3.196  10.053 -0.1582  0.9313  0.2745
   90SAPS   H5R 8722   2.797   3.242  10.119  0.2047  1.4501  0.3321
   90SAPS   C26 8723   2.838   3.157   9.927  1.4071  0.1416 -0.6898
   90SAPS   H6R 8724   2.733   3.182   9.904  0.5642 -2.5320 -0.0425
   90SAPS   C27 8725   2.913   3.096   9.811  0.1797  0.4775  0.3735
   90SAPS   H7R 8726   3.019   3.076   9.837  1.3353  2.2115 -2.6244
   90SAPS   H7S 8727   2.917   3.186   9.747 -2.3363  0.0517 -0.4811
   90SAPS   C28 8728   2.828   2.977   9.757 -0.0024  0.2837 -0.1108
   90SAPS   H8R 8729   2.765   2.995   9.669 -0.7133 -0.5368  0.2126
   90SAPS   C29 8730   2.826   2.853   9.818  0.6955  0.0276 -0.4626
   90SAPS   H9R 8731   2.776   2.773   9.761 -0.4596  1.3647 -1.3864
   90SAPS  C210 8732   2.890   2.792   9.939  0.0889 -0.2620 -0.2962
   90SAPS  H10R 8733   2.974   2.851   9.981  2.2497 -1.6159 -2.4695
   90SAPS  H10S 8734   2.952   2.709   9.900  1.4756  0.5277  0.1225
   90SAPS  C211 8735   2.791   2.748  10.047  0.0659 -0.0063  0.0124
   90SAPS  H11R 8736   2.798   2.798  10.146  0.7135 -1.3976  0.6978
   90SAPS  C212 8737   2.733   2.624  10.045  0.6309  0.0163  0.2743
   90SAPS  H12R 8738   2.654   2.596  10.116 -1.0403  1.1036 -1.0525
   90SAPS  C213 8739   2.731   2.532   9.923  0.7167  0.1302 -0.5260
   90SAPS  H13R 8740   2.828   2.477   9.925  1.5953  1.6575  0.6334
   90SAPS  H13S 8741   2.734   2.584   9.824 -1.7285 -0.8066 -1.1616
   90SAPS  C214 8742   2.610   2.439   9.919 -0.3017 -0.3636  0.2482
   90SAPS  H14R 8743   2.610   2.381  10.012 -0.2396 -0.5416  0.1374
   90SAPS  C215 8744   2.509   2.420   9.840 -0.3346  0.7413  0.9100
   90SAPS  H15R 8745   2.444   2.334   9.862  1.0029 -0.9210 -1.2341
   90SAPS  C216 8746   2.487   2.489   9.704  0.2023  0.1698  0.1105
   90SAPS  H16R 8747   2.548   2.582   9.717  1.7432 -1.0967  2.7253
   90SAPS  H16S 8748   2.379   2.513   9.692  0.6802  1.4275 -2.4760
   90SAPS  C217 8749   2.535   2.398   9.585  0.1407  0.2561  0.0499
   90SAPS  H17R 8750   2.476   2.304   9.592 -1.0354  1.0037  0.5782
   90SAPS  H17S 8751   2.644   2.384   9.600 -0.3737 -1.7938  2.5729
   90SAPS  C218 8752   2.507   2.467   9.447 -0.1858 -0.1437 -0.2575
   90SAPS  H18R 8753   2.398   2.488   9.445  0.1069  1.4540 -1.3746
   90SAPS  H18S 8754   2.521   2.391   9.366  1.3385 -0.8388  0.6109
   90SAPS  C219 8755   2.592   2.586   9.398  0.4552 -0.5488  0.0471
   90SAPS  H19R 8756   2.700   2.580   9.424  1.2890  1.0914 -2.6307
   90SAPS  H19S 8757   2.569   2.687   9.440 -0.4316  0.2741 -2.2271
   90SAPS  C220 8758   2.593   2.608   9.249  0.1747 -0.0952  0.4367
   90SAPS  H20R 8759   2.499   2.648   9.207  0.5370  0.9647  0.5812
   90SAPS  H20S 8760   2.634   2.519   9.196  0.7237  1.2895 -1.6177
   90SAPS  H20T 8761   2.672   2.685   9.231  0.5756 -0.2385  1.4970
   90SAPS   C33 8762   2.394   2.945   9.960  0.5927 -0.1677  0.2928
   90SAPS   H3X 8763   2.303   2.955  10.022  2.3367  0.2687  2.9489
   90SAPS   H3Y 8764   2.393   2.841   9.922 -0.1964 -0.0146 -0.1213
   90SAPS   C34 8765   2.370   3.024   9.835  0.5957  0.0619 -0.6385
   90SAPS   H4X 8766   2.348   3.132   9.853 -1.5477 -0.4689  0.2374
   90SAPS   H4Y 8767   2.283   2.987   9.776  2.5833 -0.8195 -3.1844
   90SAPS   C35 8768   2.494   3.001   9.737  0.6543 -0.4629 -0.1190
   90SAPS   H5X 8769   2.539   2.901   9.754 -1.2236 -1.1968  0.8328
   90SAPS   H5Y 8770   2.570   3.073   9.772  0.8347 -1.7459  2.3423
   90SAPS   C36 8771   2.458   3.027   9.592  0.7367  1.0394  0.2165
   90SAPS   H6X 8772   2.414   3.128   9.583 -1.0916  0.2941  0.3763
   90SAPS   H6Y 8773   2.371   2.963   9.567  1.1755  0.4611  0.1457
   90SAPS   C37 8774   2.581   3.003   9.505  0.3713 -0.6563  0.0154
   90SAPS   H7X 8775   2.620   2.902   9.528 -1.7219 -1.1926  1.5061
   90SAPS   H7Y 8776   2.657   3.077   9.537 -0.0359  0.7775 -2.0823
   90SAPS   C38 8777   2.555   3.034   9.350 -0.1696  0.5819 -0.5646
   90SAPS   H8X 8778   2.527   3.141   9.340 -0.0968  0.7040  0.4112
   90SAPS   H8Y 8779   2.475   2.967   9.313 -0.6685  1.3648 -0.9343
   90SAPS   C39 8780   2.684   3.004   9.270  1.2108 -0.6363 -0.5440
   90SAPS   H9X 8781   2.717   2.898   9.268 -0.0912 -1.1236 -3.7927
   90SAPS   H9Y 8782   2.762   3.060   9.326 -0.6591  1.3473  0.2348
   90SAPS  C310 8783   2.688   3.055   9.132  0.4035  0.3089 -0.1869
   90SAPS  H10X 8784   2.793   3.059   9.095  0.2826 -0.1439 -0.5872
   90SAPS  H10Y 8785   2.651   3.159   9.136  2.7476  1.1613  1.8805
   90SAPS  C311 8786   2.606   2.973   9.036 -0.8876 -0.6203 -0.2075
   90SAPS  H11X 8787   2.498   2.984   9.060 -0.5534  1.3619  0.5903
   90SAPS  H11Y 8788   2.637   2.868   9.056  0.3151  0.1646  2.5419
   90SAPS  C312 8789   2.616   3.013   8.889 -0.6052  0.5295 -0.1468
   90SAPS  H12X 8790   2.722   3.021   8.855 -0.5978 -1.3653 -0.7201
   90SAPS  H12Y 8791   2.571   3.113   8.877  1.0709  1.2348 -0.9496
   90SAPS  C313 8792   2.556   2.907   8.797  0.5124  0.6595  0.3384
   90SAPS  H13X 8793   2.553   2.938   8.691  0.1409 -0.8611 -0.1118
   90SAPS  H13Y 8794   2.452   2.881   8.828 -0.2866  2.6269 -0.5413
   90SAPS  C314 8795   2.642   2.775   8.786 -0.0914  0.2311 -0.2142
   90SAPS  H14X 8796   2.635   2.729   8.887 -3.2364 -1.3987 -1.0651
   90SAPS  H14Y 8797   2.743   2.816   8.764 -0.2429  0.3052 -0.7951
   90SAPS  C315 8798   2.595   2.665   8.693  0.1375  0.0826 -0.1080
   90SAPS  H15X 8799   2.574   2.710   8.594 -2.6893  2.8007  1.5371
   90SAPS  H15Y 8800   2.494   2.633   8.728 -0.0938  0.2122 -0.6437
   90SAPS  C316 8801   2.681   2.535   8.697  0.0789  0.2344 -0.3641
   90SAPS  H16X 8802   2.685   2.503   8.804  2.1980 -2.3586 -1.0881
   90SAPS  H16Y 8803   2.785   2.564   8.672 -0.8509  0.7100 -4.3098
   90SAPS  C317 8804   2.620   2.428   8.605 -0.1694  0.0537  0.1686
   90SAPS  H17X 8805   2.616   2.468   8.501  0.5592  0.4845  0.3026
   90SAPS  H17Y 8806   2.522   2.386   8.636  0.8452 -1.3734  1.6067
   90SAPS  C318 8807   2.715   2.306   8.599 -0.6365  0.2130 -0.0176
   90SAPS  H18X 8808   2.722   2.265   8.702  0.1218 -0.5590 -0.3604
   90SAPS  H18Y 8809   2.816   2.342   8.569 -0.0078 -0.7250  0.8977
   90SAPS  H18Z 8810   2.682   2.227   8.529 -1.9352 -0.1318  0.9449
   91SAPS     N 8811   2.313   6.274   6.231  0.7213 -0.5846 -0.4227
   91SAPS   HN1 8812   2.263   6.338   6.166 -0.8255 -0.1000  1.1315
   91SAPS   HN2 8813   2.247   6.224   6.294 -0.2977 -0.7881 -1.6287
   91SAPS   HN3 8814   2.358   6.321   6.312 -1.6471  2.0449 -0.4762
   91SAPS   C12 8815   2.386   6.180   6.150 -0.2843  0.4325 -1.4658
   91SAPS  H12A 8816   2.318   6.137   6.078  0.0514  0.1882 -1.6363
   91SAPS   C13 8817   2.509   6.235   6.081 -0.5647 -0.9022  0.5376
   91SAPS  O13A 8818   2.526   6.360   6.072 -0.4160  0.2480  0.0656
   91SAPS  O13B 8819   2.585   6.155   6.025 -0.0462  0.0387  0.0777
   91SAPS   C11 8820   2.444   6.066   6.244  0.0809 -0.3247 -0.0230
   91SAPS  H11A 8821   2.521   6.108   6.312 -0.3165  0.1940  0.1179
   91SAPS  H11B 8822   2.480   5.987   6.175 -1.4347 -2.0094  1.0238
   91SAPS     P 8823   2.342   5.860   6.377 -0.4566 -0.0654 -0.1056
   91SAPS   O13 8824   2.230   5.802   6.309  0.0657  0.1486 -0.1144
   91SAPS   O14 8825   2.468   5.792   6.354  0.3763  0.1300 -0.3053
   91SAPS   O12 8826   2.348   6.009   6.335 -0.0514  0.0742 -0.4788
   91SAPS   O11 8827   2.324   5.870   6.534  0.3888 -0.7313  0.1024
   91SAPS    C1 8828   2.293   5.997   6.605 -0.8775 -0.4587  0.2909
   91SAPS    HA 8829   2.230   6.062   6.542  1.2820 -0.0578 -1.5963
   91SAPS    HB 8830   2.243   5.980   6.703  0.0244  1.3041  1.1034
   91SAPS    C2 8831   2.422   6.082   6.634 -0.3441  0.1267  0.4484
   91SAPS    HS 8832   2.461   6.117   6.536 -3.1226  3.4285  0.2946
   91SAPS   O21 8833   2.516   5.999   6.711  0.2704 -0.1981 -0.2203
   91SAPS   C21 8834   2.641   6.040   6.700  0.3963  0.1684  1.4163
   91SAPS   O22 8835   2.684   6.135   6.632  0.2502  0.4269  0.4028
   91SAPS   C22 8836   2.723   5.960   6.799 -0.0661  0.0778  0.4095
   91SAPS   H2R 8837   2.661   5.892   6.862 -0.3512  0.1229  0.1854
   91SAPS   H2S 8838   2.797   5.908   6.734 -0.5200  0.5178 -0.4892
   91SAPS    C3 8839   2.380   6.220   6.695  0.4306  0.8068  0.4301
   91SAPS    HX 8840   2.306   6.268   6.628  3.2521  2.3220 -1.8392
   91SAPS    HY 8841   2.461   6.297   6.696  1.3228 -0.1047  0.7734
   91SAPS   O31 8842   2.314   6.190   6.819 -0.1802 -0.6762  0.5377
   91SAPS   C31 8843   2.374   6.232   6.929  0.1219 -0.0121  0.0105
   91SAPS   O32 8844   2.473   6.300   6.930 -0.8876 -0.5163  0.7195
   91SAPS   C32 8845   2.310   6.170   7.055  0.0431 -0.6706  0.2362
   91SAPS   H2X 8846   2.329   6.061   7.050 -1.4980 -0.9831  0.5074
   91SAPS   H2Y 8847   2.200   6.182   7.040  0.5541  1.6912 -2.3411
   91SAPS   C23 8848   2.805   6.040   6.900 -0.5304  0.7535  0.2346
   91SAPS   H3R 8849   2.850   6.125   6.845  0.9449 -0.6426 -0.7943
   91SAPS   H3S 8850   2.882   5.971   6.941 -0.7256 -1.0043 -2.1097
   91SAPS   C24 8851   2.728   6.089   7.021  0.5928  0.0233  0.6106
   91SAPS   H4R 8852   2.664   6.176   6.995 -1.4033 -2.1378 -2.3315
   91SAPS   H4S 8853   2.806   6.117   7.096  0.9842 -1.1428  0.6609
   91SAPS   C25 8854   2.640   5.988   7.088 -0.6324 -0.1278  0.5806
   91SAPS   H5R 8855   2.545   5.966   7.037  0.6632 -1.1502 -1.5488
   91SAPS   C26 8856   2.669   5.935   7.204  0.4701 -0.0410  0.2855
   91SAPS   H6R 8857   2.592   5.879   7.260  0.1888  1.1646  1.1576
   91SAPS   C27 8858   2.792   5.957   7.292  0.3248  0.4321 -0.1203
   91SAPS   H7R 8859   2.882   5.977   7.230  1.3110 -2.7819  0.0865
   91SAPS   H7S 8860   2.824   5.858   7.331 -0.8459 -1.0280 -2.5739
   91SAPS   C28 8861   2.757   6.066   7.391 -0.5118  0.4512  0.4278
   91SAPS   H8R 8862   2.671   6.131   7.367 -0.8343  0.5396  1.7345
   91SAPS   C29 8863   2.817   6.084   7.515  0.0267  0.1868  0.6730
   91SAPS   H9R 8864   2.793   6.166   7.585  1.5520  1.2592  0.0107
   91SAPS  C210 8865   2.936   6.012   7.565 -0.0613  0.1325 -0.7902
   91SAPS  H10R 8866   3.011   6.083   7.607 -0.5996  0.3583 -0.1921
   91SAPS  H10S 8867   2.993   5.952   7.491 -1.4798 -0.1396 -1.7206
   91SAPS  C211 8868   2.887   5.918   7.671 -0.2161 -0.2984  0.5630
   91SAPS  H11R 8869   2.875   5.813   7.640 -3.4245  0.9678 -3.2563
   91SAPS  C212 8870   2.864   5.949   7.801 -0.8570  0.2912  0.3651
   91SAPS  H12R 8871   2.863   5.869   7.877 -0.5863  0.4718  0.5599
   91SAPS  C213 8872   2.878   6.090   7.867  1.2461  0.3060 -0.5159
   91SAPS  H13R 8873   2.795   6.093   7.941  1.2063 -1.9268 -0.4152
   91SAPS  H13S 8874   2.860   6.171   7.793  0.5078 -1.8581 -2.8430
   91SAPS  C214 8875   3.004   6.119   7.945  0.2790 -0.1474  1.4239
   91SAPS  H14R 8876   3.086   6.054   7.911 -1.1391 -2.2595  1.8203
   91SAPS  C215 8877   3.018   6.206   8.046 -0.1769 -1.1298  0.1165
   91SAPS  H15R 8878   3.119   6.228   8.084  0.2753  1.5005 -2.3194
   91SAPS  C216 8879   2.906   6.290   8.100  0.7177 -0.2498  0.0471
   91SAPS  H16R 8880   2.813   6.232   8.116  0.4468  0.6280  1.8730
   91SAPS  H16S 8881   2.878   6.375   8.035  0.3815  2.0008  2.9320
   91SAPS  C217 8882   2.943   6.362   8.238  0.0175  1.2628 -0.2049
   91SAPS  H17R 8883   2.843   6.395   8.271 -0.2458 -1.0689  1.5301
   91SAPS  H17S 8884   3.023   6.439   8.228  2.0677 -0.6525  0.6498
   91SAPS  C218 8885   2.983   6.261   8.357  0.2879 -0.2716  0.1554
   91SAPS  H18R 8886   2.902   6.185   8.358 -0.7738  0.7229 -2.1381
   91SAPS  H18S 8887   2.986   6.323   8.449  0.8316 -0.9180  0.5729
   91SAPS  C219 8888   3.125   6.205   8.357 -0.1822  0.8625 -0.7142
   91SAPS  H19R 8889   3.202   6.272   8.314  0.3727  0.4259 -0.4204
   91SAPS  H19S 8890   3.130   6.118   8.288 -0.8738 -0.5404  0.9358
   91SAPS  C220 8891   3.159   6.165   8.504 -0.2565 -0.2412  0.9731
   91SAPS  H20R 8892   3.248   6.099   8.510  1.5076  2.0613  1.4152
   91SAPS  H20S 8893   3.069   6.119   8.551 -0.1172 -1.9419 -0.3092
   91SAPS  H20T 8894   3.196   6.250   8.564  0.4661 -0.3739  0.7221
   91SAPS   C33 8895   2.368   6.221   7.189 -0.3985  0.4127  0.3462
   91SAPS   H3X 8896   2.348   6.329   7.203  0.2601  0.9056 -2.0482
   91SAPS   H3Y 8897   2.479   6.209   7.192 -0.4991 -0.3568  1.5942
   91SAPS   C34 8898   2.308   6.138   7.306 -0.5844  0.4740 -0.7702
   91SAPS   H4X 8899   2.319   6.029   7.286 -2.7263 -0.3372  1.9145
   91SAPS   H4Y 8900   2.201   6.167   7.315 -0.1758  1.7063  0.5033
   91SAPS   C35 8901   2.370   6.179   7.442 -0.4712 -0.0117  0.6996
   91SAPS   H5X 8902   2.377   6.290   7.428 -0.1734 -0.3921 -3.3353
   91SAPS   H5Y 8903   2.476   6.146   7.444  0.3719  2.0875 -1.8907
   91SAPS   C36 8904   2.288   6.135   7.567 -0.7547 -0.7016 -0.1899
   91SAPS   H6X 8905   2.285   6.025   7.553  1.5424 -0.7004 -1.0472
   91SAPS   H6Y 8906   2.185   6.177   7.555 -1.3095 -2.0858 -0.4223
   91SAPS   C37 8907   2.354   6.187   7.695  0.0898  0.1295 -0.0567
   91SAPS   H7X 8908   2.356   6.297   7.681 -2.4871  0.0522 -1.7813
   91SAPS   H7Y 8909   2.461   6.158   7.691  0.5035  1.3082  1.6464
   91SAPS   C38 8910   2.275   6.153   7.823 -0.1463  0.0584 -0.0839
   91SAPS   H8X 8911   2.279   6.043   7.837 -1.9455 -0.1688 -1.0483
   91SAPS   H8Y 8912   2.165   6.163   7.810 -1.1807  0.5247  6.2290
   91SAPS   C39 8913   2.332   6.212   7.948 -0.7660  0.0593 -0.4221
   91SAPS   H9X 8914   2.278   6.159   8.029 -2.8895 -0.0441 -1.8208
   91SAPS   H9Y 8915   2.314   6.320   7.964 -1.1842 -0.2622  1.4885
   91SAPS  C310 8916   2.484   6.187   7.969 -0.1256  0.9905  0.1222
   91SAPS  H10X 8917   2.556   6.242   7.904  0.4132 -0.5849 -0.6582
   91SAPS  H10Y 8918   2.492   6.081   7.938 -3.0254  1.1172 -1.4425
   91SAPS  C311 8919   2.515   6.185   8.127 -0.3882  0.1813  0.2669
   91SAPS  H11X 8920   2.618   6.146   8.143  0.8359  1.2009 -3.7964
   91SAPS  H11Y 8921   2.451   6.108   8.175  0.4906 -0.4369  0.4789
   91SAPS  C312 8922   2.498   6.319   8.194 -0.0844  0.0454  0.0821
   91SAPS  H12X 8923   2.505   6.402   8.121  0.3650 -0.4323 -0.4310
   91SAPS  H12Y 8924   2.586   6.325   8.262  2.0349 -3.9080 -1.9703
   91SAPS  C313 8925   2.361   6.331   8.270  0.0352  0.2041 -0.1316
   91SAPS  H13X 8926   2.279   6.292   8.206 -0.7418  0.3652  0.7498
   91SAPS  H13Y 8927   2.340   6.439   8.288 -0.8036  0.0092  0.1025
   91SAPS  C314 8928   2.372   6.258   8.403  0.2252 -0.0020 -0.7392
   91SAPS  H14X 8929   2.454   6.304   8.463 -1.6011  0.0461  1.8790
   91SAPS  H14Y 8930   2.411   6.155   8.388 -1.5773 -1.0811  1.4754
   91SAPS  C315 8931   2.245   6.277   8.492 -0.5448  0.1695  0.1437
   91SAPS  H15X 8932   2.154   6.268   8.429  0.5255  0.4865 -1.5172
   91SAPS  H15Y 8933   2.262   6.382   8.522 -0.0316  0.6066 -1.5642
   91SAPS  C316 8934   2.256   6.193   8.614  0.7066 -0.3529  1.0196
   91SAPS  H16X 8935   2.337   6.242   8.672  0.5805  1.7988 -0.5056
   91SAPS  H16Y 8936   2.297   6.093   8.589  2.0501  0.0634  1.5061
   91SAPS  C317 8937   2.124   6.174   8.694 -0.0115  0.5145 -0.5711
   91SAPS  H17X 8938   2.047   6.166   8.615 -2.0414  0.3688  1.3117
   91SAPS  H17Y 8939   2.113   6.273   8.744  1.6880  0.1922  0.5250
   91SAPS  C318 8940   2.132   6.057   8.794 -0.1579  0.5459  0.0080
   91SAPS  H18X 8941   2.138   5.966   8.730 -0.8670  1.5277 -1.5448
   91SAPS  H18Y 8942   2.038   6.050   8.853 -0.7143  1.4419 -0.7303
   91SAPS  H18Z 8943   2.222   6.067   8.858  0.6240 -1.5967 -0.6661
   92SAPS     N 8944   3.785   5.581   6.139  0.3622  0.8423 -0.3908
   92SAPS   HN1 8945   3.696   5.635   6.138  0.2989  0.7306 -0.8718
   92SAPS   HN2 8946   3.761   5.484   6.110  0.4345  1.0595 -1.1966
   92SAPS   HN3 8947   3.830   5.575   6.233 -0.2584  0.2546 -0.1174
   92SAPS   C12 8948   3.879   5.647   6.056  0.0072  0.0571  0.2911
   92SAPS  H12A 8949   3.973   5.599   6.079 -0.0220 -1.2190 -1.9756
   92SAPS   C13 8950   3.870   5.639   5.902  0.6458 -0.0674 -0.2429
   92SAPS  O13A 8951   3.775   5.573   5.852 -0.6073  0.0011  0.1544
   92SAPS  O13B 8952   3.973   5.670   5.832 -0.4635  0.0802 -0.0212
   92SAPS   C11 8953   3.883   5.801   6.095 -0.2077 -0.2222 -0.4949
   92SAPS  H11A 8954   3.783   5.845   6.078  0.2011  1.2916  0.7787
   92SAPS  H11B 8955   3.966   5.858   6.049 -1.2965  1.7334 -0.1162
   92SAPS     P 8956   4.053   5.826   6.304  0.3773 -0.1700 -0.4003
   92SAPS   O13 8957   4.126   5.695   6.295 -0.2651  0.5205  0.5571
   92SAPS   O14 8958   4.114   5.952   6.248  0.5204 -0.1016  0.2591
   92SAPS   O12 8959   3.906   5.810   6.239  0.0895 -0.1448 -0.0879
   92SAPS   O11 8960   4.017   5.861   6.458 -0.2628 -0.4019 -0.2022
   92SAPS    C1 8961   3.933   5.975   6.492 -0.5717 -0.2203  0.7420
   92SAPS    HA 8962   3.956   6.057   6.421 -0.1050 -0.4934  0.5713
   92SAPS    HB 8963   3.829   5.952   6.459  0.4327  2.0512 -5.1826
   92SAPS    C2 8964   3.935   6.010   6.641  0.6277 -0.0792 -0.0642
   92SAPS    HS 8965   3.848   6.073   6.669  0.8888  0.5612 -0.6580
   92SAPS   O21 8966   4.055   6.082   6.674 -0.2390 -0.5646  0.3439
   92SAPS   C21 8967   4.048   6.210   6.649  0.2933  0.4889  0.0564
   92SAPS   O22 8968   3.960   6.265   6.581 -0.0605 -0.0013  0.0756
   92SAPS   C22 8969   4.173   6.289   6.694  0.3543  0.3091 -0.2573
   92SAPS   H2R 8970   4.258   6.223   6.720 -0.4239 -0.4415  0.4737
   92SAPS   H2S 8971   4.202   6.358   6.611  2.0118 -1.3505 -1.1357
   92SAPS    C3 8972   3.925   5.876   6.729 -1.0945 -0.1412  0.0840
   92SAPS    HX 8973   3.948   5.899   6.835  2.2003  0.3540 -0.6144
   92SAPS    HY 8974   4.009   5.812   6.692 -1.4204 -1.0497  0.8730
   92SAPS   O31 8975   3.800   5.803   6.715 -0.7948 -0.3870 -0.2944
   92SAPS   C31 8976   3.705   5.847   6.802  0.2203  0.6276  0.5160
   92SAPS   O32 8977   3.718   5.942   6.877 -0.5784 -0.5195  0.1655
   92SAPS   C32 8978   3.573   5.751   6.787 -0.8904 -0.3104 -0.0820
   92SAPS   H2X 8979   3.585   5.678   6.705 -0.2536  0.9824 -1.1792
   92SAPS   H2Y 8980   3.496   5.826   6.759 -0.1342 -0.0392 -1.5501
   92SAPS   C23 8981   4.150   6.373   6.821  0.0990  0.7865 -0.4676
   92SAPS   H3R 8982   4.055   6.430   6.817  0.3534  1.2833  0.4144
   92SAPS   H3S 8983   4.226   6.454   6.822 -2.4689  3.3444 -0.8737
   92SAPS   C24 8984   4.173   6.296   6.951  0.3398 -0.6946 -0.5977
   92SAPS   H4R 8985   4.282   6.283   6.967 -0.0698 -0.1947  3.8404
   92SAPS   H4S 8986   4.134   6.192   6.958  0.6391 -0.6731  4.0631
   92SAPS   C25 8987   4.121   6.359   7.075 -0.4982 -0.1581 -0.9567
   92SAPS   H5R 8988   4.024   6.410   7.062  0.4949  2.3137  0.6083
   92SAPS   C26 8989   4.176   6.359   7.196  0.5230  1.3279 -0.0104
   92SAPS   H6R 8990   4.123   6.409   7.278 -2.0251  0.3841 -0.9800
   92SAPS   C27 8991   4.303   6.279   7.231 -0.4781 -0.0924  0.0655
   92SAPS   H7R 8992   4.386   6.353   7.237 -0.4067  0.0014 -1.5789
   92SAPS   H7S 8993   4.330   6.212   7.146 -0.9605  1.2611 -1.1903
   92SAPS   C28 8994   4.281   6.204   7.354 -0.2723  0.9649 -0.4758
   92SAPS   H8R 8995   4.227   6.110   7.337  0.4678 -0.2824  3.0131
   92SAPS   C29 8996   4.326   6.232   7.479 -0.0475 -0.4908  0.3260
   92SAPS   H9R 8997   4.305   6.168   7.566 -2.4369 -0.0755  0.1239
   92SAPS  C210 8998   4.408   6.351   7.516 -0.7251  0.1265  0.3656
   92SAPS  H10R 8999   4.344   6.431   7.557 -0.0464  0.2563  1.2076
   92SAPS  H10S 9000   4.466   6.403   7.437 -1.0758  0.1736  0.1415
   92SAPS  C211 9001   4.500   6.314   7.635 -0.4064 -0.6123  0.0205
   92SAPS  H11R 9002   4.607   6.303   7.612 -0.0319  0.7040  0.9625
   92SAPS  C212 9003   4.468   6.319   7.768 -0.8295 -0.4352 -0.2940
   92SAPS  H12R 9004   4.548   6.287   7.836  0.4799  0.9047 -1.1534
   92SAPS  C213 9005   4.332   6.347   7.835 -0.2072 -0.2535  0.2676
   92SAPS  H13R 9006   4.260   6.390   7.763  1.5187  2.9287  0.2807
   92SAPS  H13S 9007   4.348   6.428   7.910 -1.8831  1.8045 -1.4931
   92SAPS  C214 9008   4.275   6.224   7.903 -0.3331 -0.2566  1.2826
   92SAPS  H14R 9009   4.252   6.141   7.835 -0.8770  1.5681 -0.8990
   92SAPS  C215 9010   4.245   6.212   8.033  0.1078 -0.2448 -0.5126
   92SAPS  H15R 9011   4.212   6.112   8.065  0.7635 -0.9563 -1.9589
   92SAPS  C216 9012   4.262   6.322   8.140  0.0283  0.1028  0.2405
   92SAPS  H16R 9013   4.182   6.389   8.103  0.7604  1.5168  1.1063
   92SAPS  H16S 9014   4.350   6.389   8.125 -0.3493  0.5781  0.1208
   92SAPS  C217 9015   4.260   6.280   8.292  0.3719 -0.3331 -0.4586
   92SAPS  H17R 9016   4.169   6.220   8.312 -0.3235  1.1146  1.0094
   92SAPS  H17S 9017   4.248   6.375   8.349  0.8221  1.2090 -2.7821
   92SAPS  C218 9018   4.374   6.193   8.338 -0.0781 -0.0355  0.6551
   92SAPS  H18R 9019   4.473   6.239   8.319  1.9762 -2.6885  3.7074
   92SAPS  H18S 9020   4.381   6.092   8.293  0.7237  0.9883 -1.6528
   92SAPS  C219 9021   4.365   6.175   8.491 -0.3234 -0.6740  0.7043
   92SAPS  H19R 9022   4.275   6.123   8.530 -2.3024  2.0678  0.0637
   92SAPS  H19S 9023   4.359   6.276   8.536 -0.7013 -0.4791  0.2294
   92SAPS  C220 9024   4.490   6.104   8.544  0.2821 -0.4794 -0.1333
   92SAPS  H20R 9025   4.499   6.007   8.491 -0.6713 -0.1959 -0.8374
   92SAPS  H20S 9026   4.485   6.090   8.654  1.7176  0.7143  0.1108
   92SAPS  H20T 9027   4.585   6.158   8.525  0.0336 -0.5896 -1.7723
   92SAPS   C33 9028   3.538   5.674   6.914 -0.7069  0.7590 -1.1859
   92SAPS   H3X 9029   3.530   5.743   7.000 -1.1566  0.7345 -1.2096
   92SAPS   H3Y 9030   3.619   5.598   6.925 -1.8838 -0.4619 -0.6456
   92SAPS   C34 9031   3.408   5.599   6.902 -0.1253 -0.4377 -0.2175
   92SAPS   H4X 9032   3.402   5.548   6.804 -1.1589  2.0379 -1.5161
   92SAPS   H4Y 9033   3.330   5.678   6.900 -0.8683 -1.1724 -1.5387
   92SAPS   C35 9034   3.371   5.500   7.013 -0.3324 -0.1036 -0.1472
   92SAPS   H5X 9035   3.341   5.540   7.113  1.3297 -1.3889  0.9327
   92SAPS   H5Y 9036   3.450   5.425   7.034 -1.0343 -1.3192 -1.6825
   92SAPS   C36 9037   3.249   5.415   6.978 -0.5591  0.1362 -0.3413
   92SAPS   H6X 9038   3.272   5.334   6.906 -3.0648 -1.4243  0.4526
   92SAPS   H6Y 9039   3.165   5.477   6.939 -1.4593  0.2500  1.6336
   92SAPS   C37 9040   3.178   5.350   7.103  0.2998  0.3082  0.0951
   92SAPS   H7X 9041   3.134   5.431   7.165  2.6142 -0.3688  2.8374
   92SAPS   H7Y 9042   3.251   5.289   7.161  2.3487  1.2981 -1.3540
   92SAPS   C38 9043   3.059   5.256   7.058 -0.4695  0.2222 -0.1265
   92SAPS   H8X 9044   3.112   5.160   7.037  0.7964  0.1708  2.8724
   92SAPS   H8Y 9045   3.005   5.280   6.964 -0.6719 -3.8974 -1.2863
   92SAPS   C39 9046   2.958   5.210   7.163 -0.3122 -0.0135 -0.0108
   92SAPS   H9X 9047   2.900   5.136   7.104  2.3318 -1.7566 -0.5811
   92SAPS   H9Y 9048   2.895   5.293   7.202  1.9194  0.9965  1.6472
   92SAPS  C310 9049   3.020   5.146   7.292 -0.1556 -0.3317 -0.1731
   92SAPS  H10X 9050   3.075   5.226   7.346  1.4297 -2.2612  1.2219
   92SAPS  H10Y 9051   3.088   5.059   7.276 -1.4176 -2.2077  3.4316
   92SAPS  C311 9052   2.919   5.100   7.402  0.2764  0.0265  0.1266
   92SAPS  H11X 9053   2.837   5.043   7.354  0.8360 -0.4250 -0.3106
   92SAPS  H11Y 9054   2.875   5.196   7.438 -1.3642 -1.0598  1.1714
   92SAPS  C312 9055   2.976   5.030   7.526 -0.8528  0.2765 -0.1839
   92SAPS  H12X 9056   3.063   5.089   7.560  0.4160 -2.5246  1.7826
   92SAPS  H12Y 9057   3.013   4.932   7.489 -0.4723  0.1917  0.4170
   92SAPS  C313 9058   2.891   5.025   7.655 -0.3371  0.8940 -0.7105
   92SAPS  H13X 9059   2.941   4.954   7.725 -1.6620 -0.6707 -1.2789
   92SAPS  H13Y 9060   2.794   4.975   7.634 -0.1855  0.9170 -1.5166
   92SAPS  C314 9061   2.872   5.154   7.723  0.2178 -0.3977 -0.4861
   92SAPS  H14X 9062   2.861   5.231   7.644 -0.7632 -0.7665 -0.7204
   92SAPS  H14Y 9063   2.958   5.174   7.790 -0.4880 -0.4956  0.4828
   92SAPS  C315 9064   2.744   5.173   7.814 -0.0087  0.3108  0.3256
   92SAPS  H15X 9065   2.724   5.083   7.875 -0.8425  0.3295  0.0863
   92SAPS  H15Y 9066   2.662   5.179   7.740 -0.7262 -0.3929  1.0499
   92SAPS  C316 9067   2.752   5.293   7.906  0.6414 -0.0355 -0.4687
   92SAPS  H16X 9068   2.655   5.303   7.959  1.0377  0.0216  0.2466
   92SAPS  H16Y 9069   2.759   5.385   7.844  1.4672  0.0984 -0.1818
   92SAPS  C317 9070   2.848   5.273   8.027 -0.5841  0.1756  0.1647
   92SAPS  H17X 9071   2.952   5.257   7.991 -0.7037  1.8872 -1.0329
   92SAPS  H17Y 9072   2.814   5.190   8.093 -0.1726 -1.5355 -1.6530
   92SAPS  C318 9073   2.854   5.401   8.115 -0.4010  0.1328  0.8832
   92SAPS  H18X 9074   2.868   5.491   8.052 -0.4720 -0.6303 -0.2545
   92SAPS  H18Y 9075   2.929   5.388   8.196 -1.1854 -2.0867  1.3324
   92SAPS  H18Z 9076   2.758   5.424   8.166 -0.4729  2.5873 -0.2272
   93SAPS     N 9077   3.530   5.191   6.168  0.2276  0.5858 -0.2731
   93SAPS   HN1 9078   3.581   5.280   6.181  5.7021 -2.0149 -0.9329
   93SAPS   HN2 9079   3.426   5.194   6.161  0.3030 -0.2349 -2.6300
   93SAPS   HN3 9080   3.550   5.144   6.259  0.1096  1.0211 -0.0204
   93SAPS   C12 9081   3.605   5.143   6.052 -0.4078  0.1717 -0.1589
   93SAPS  H12A 9082   3.537   5.140   5.969 -0.3939 -0.5296 -0.1514
   93SAPS   C13 9083   3.719   5.236   6.004  0.5846 -1.3784  0.4029
   93SAPS  O13A 9084   3.765   5.320   6.089 -0.7463  0.5787 -0.5931
   93SAPS  O13B 9085   3.791   5.202   5.906  0.0555 -0.5651 -0.1850
   93SAPS   C11 9086   3.660   5.000   6.090  0.1898  0.2308 -0.1990
   93SAPS  H11A 9087   3.740   5.019   6.165  0.5100  0.5158 -0.6017
   93SAPS  H11B 9088   3.704   4.947   6.003  0.0114 -0.2083 -0.0220
   93SAPS     P 9089   3.621   4.756   6.165  0.0688  0.2575 -0.4196
   93SAPS   O13 9090   3.526   4.698   6.264  0.0430  0.6108  0.7351
   93SAPS   O14 9091   3.637   4.690   6.037  0.0621  0.4292 -0.4536
   93SAPS   O12 9092   3.577   4.905   6.149  0.6492 -0.1064 -0.5652
   93SAPS   O11 9093   3.762   4.787   6.228 -0.5788  0.3809  1.0853
   93SAPS    C1 9094   3.867   4.688   6.242 -0.0985 -0.0211 -0.0980
   93SAPS    HA 9095   3.883   4.632   6.148  0.7080  0.7275 -0.4261
   93SAPS    HB 9096   3.963   4.740   6.265 -1.0060  1.3892  0.6196
   93SAPS    C2 9097   3.839   4.584   6.348 -0.1599 -0.1548 -1.2653
   93SAPS    HS 9098   3.748   4.528   6.317  0.4028 -0.7682 -1.8468
   93SAPS   O21 9099   3.822   4.655   6.478 -0.4323 -0.0878  0.2123
   93SAPS   C21 9100   3.735   4.601   6.559 -0.7790  0.1264 -0.5299
   93SAPS   O22 9101   3.671   4.503   6.540  0.3791  0.1511  0.0274
   93SAPS   C22 9102   3.740   4.668   6.694 -0.0428  0.0557  1.0697
   93SAPS   H2R 9103   3.787   4.765   6.667 -1.2046  0.2978 -0.2310
   93SAPS   H2S 9104   3.632   4.674   6.720 -0.6663  0.7998 -1.3950
   93SAPS    C3 9105   3.941   4.470   6.364  0.3588  0.5778  0.1292
   93SAPS    HX 9106   4.033   4.515   6.409  0.2089  2.2345 -1.1150
   93SAPS    HY 9107   3.968   4.424   6.267 -2.0144 -1.6044  0.4110
   93SAPS   O31 9108   3.895   4.362   6.452 -0.0700  0.2780 -0.1664
   93SAPS   C31 9109   3.986   4.280   6.481  0.9290  0.1556 -0.5021
   93SAPS   O32 9110   4.105   4.285   6.448 -0.0877  0.0591 -0.6850
   93SAPS   C32 9111   3.920   4.165   6.573 -0.2890 -0.7993 -0.1876
   93SAPS   H2X 9112   3.843   4.109   6.516 -1.2999  0.6673 -0.3162
   93SAPS   H2Y 9113   3.863   4.220   6.651 -0.4273 -1.9796  0.5649
   93SAPS   C23 9114   3.824   4.587   6.790 -0.0118 -0.5219 -0.2404
   93SAPS   H3R 9115   3.800   4.478   6.794  1.9731 -0.9783 -0.0815
   93SAPS   H3S 9116   3.802   4.619   6.894  4.0279 -1.0642  0.9488
   93SAPS   C24 9117   3.972   4.616   6.778  0.4073 -0.5209  0.9831
   93SAPS   H4R 9118   3.984   4.719   6.817 -0.1194 -0.0347 -0.0929
   93SAPS   H4S 9119   3.996   4.639   6.672 -2.5272  0.3759  0.4212
   93SAPS   C25 9120   4.064   4.520   6.843 -0.3399 -0.4487 -0.4494
   93SAPS   H5R 9121   4.110   4.436   6.788  2.1057 -0.5290  1.5380
   93SAPS   C26 9122   4.113   4.524   6.972 -0.4573  0.3650  0.6109
   93SAPS   H6R 9123   4.205   4.470   6.999 -0.3588  0.4839  0.5138
   93SAPS   C27 9124   4.081   4.632   7.076 -0.3389  0.3001 -0.2180
   93SAPS   H7R 9125   3.979   4.609   7.115 -0.7024  2.2576  0.1260
   93SAPS   H7S 9126   4.052   4.728   7.027  0.4917  0.6291 -0.0757
   93SAPS   C28 9127   4.195   4.666   7.169  0.2892  0.0666 -0.1650
   93SAPS   H8R 9128   4.281   4.718   7.124 -0.5673  0.2650 -1.6139
   93SAPS   C29 9129   4.207   4.629   7.295 -0.4358 -0.0228  0.6355
   93SAPS   H9R 9130   4.302   4.643   7.349 -0.2237 -2.9585  1.1798
   93SAPS  C210 9131   4.110   4.543   7.371  0.4542 -0.3044 -0.4169
   93SAPS  H10R 9132   4.164   4.454   7.409 -0.9852 -1.1218 -0.2307
   93SAPS  H10S 9133   4.038   4.500   7.298 -1.5489  0.5960  0.9118
   93SAPS  C211 9134   4.040   4.613   7.483  0.4204 -0.1263  0.3365
   93SAPS  H11R 9135   3.942   4.654   7.453  0.9234  0.5148 -0.4942
   93SAPS  C212 9136   4.082   4.645   7.608 -0.3431  0.0365 -0.1873
   93SAPS  H12R 9137   4.015   4.699   7.676 -0.5905 -0.5125  0.0061
   93SAPS  C213 9138   4.219   4.611   7.664 -0.2903  0.0065 -0.2439
   93SAPS  H13R 9139   4.269   4.699   7.711  2.2038  0.8725 -4.0289
   93SAPS  H13S 9140   4.290   4.587   7.582  1.1173 -0.8430  1.1546
   93SAPS  C214 9141   4.208   4.481   7.740  0.5943  0.5836 -0.3618
   93SAPS  H14R 9142   4.198   4.388   7.681  0.8412 -1.7430  2.9820
   93SAPS  C215 9143   4.247   4.473   7.868 -0.1578  0.9324 -0.0515
   93SAPS  H15R 9144   4.239   4.373   7.915 -0.2551 -0.0338 -2.0007
   93SAPS  C216 9145   4.287   4.579   7.972 -0.8504  0.4389  0.4286
   93SAPS  H16R 9146   4.290   4.681   7.928 -0.2746 -0.9021 -2.9881
   93SAPS  H16S 9147   4.391   4.560   8.008  0.5627 -0.6032 -3.5965
   93SAPS  C217 9148   4.193   4.574   8.084 -0.5459 -0.0072 -0.4884
   93SAPS  H17R 9149   4.176   4.478   8.137 -2.3912 -0.3164 -1.5892
   93SAPS  H17S 9150   4.091   4.596   8.048 -1.1484  0.4405  1.3932
   93SAPS  C218 9151   4.228   4.658   8.210 -0.1229  0.5729  0.6560
   93SAPS  H18R 9152   4.252   4.764   8.189  1.8780  0.0144 -0.1822
   93SAPS  H18S 9153   4.315   4.613   8.263 -0.4975 -0.4609  0.4347
   93SAPS  C219 9154   4.117   4.662   8.323 -0.4605  0.3525  0.2780
   93SAPS  H19R 9155   4.172   4.686   8.416 -1.1743  1.0653  0.5245
   93SAPS  H19S 9156   4.072   4.561   8.332  2.1801 -0.8072  1.4899
   93SAPS  C220 9157   4.023   4.781   8.309 -0.3895 -0.1397  0.5321
   93SAPS  H20R 9158   3.973   4.812   8.403 -1.7191  1.3186 -0.5891
   93SAPS  H20S 9159   3.943   4.759   8.235  0.5429 -0.1715 -0.4994
   93SAPS  H20T 9160   4.078   4.872   8.275 -0.1167  0.1672  1.7295
   93SAPS   C33 9161   4.028   4.069   6.630 -0.4953 -0.7997  0.2846
   93SAPS   H3X 9162   4.096   4.127   6.696 -0.8664  0.2542 -0.2276
   93SAPS   H3Y 9163   4.088   4.021   6.550 -0.2954 -1.5724  0.8967
   93SAPS   C34 9164   3.967   3.954   6.708  0.0049 -0.0322 -0.0927
   93SAPS   H4X 9165   4.049   3.889   6.746 -0.5655 -0.6626  0.0787
   93SAPS   H4Y 9166   3.906   3.902   6.631 -0.9763  1.6294 -0.4951
   93SAPS   C35 9167   3.874   3.973   6.828  0.0378 -0.0220 -0.3474
   93SAPS   H5X 9168   3.846   3.871   6.862 -1.4705  1.0939  1.9763
   93SAPS   H5Y 9169   3.779   4.027   6.805  0.2276  1.5228  2.1121
   93SAPS   C36 9170   3.936   4.050   6.944 -0.1928 -0.9736 -0.7700
   93SAPS   H6X 9171   3.967   4.152   6.915 -0.1639 -1.2387 -1.7134
   93SAPS   H6Y 9172   4.031   4.003   6.977 -0.1549 -0.8490 -0.7005
   93SAPS   C37 9173   3.840   4.053   7.065  0.5737  0.1707  0.5652
   93SAPS   H7X 9174   3.802   3.950   7.082 -0.2894  0.4960  0.6485
   93SAPS   H7Y 9175   3.748   4.111   7.045  1.3084  1.4756  0.9047
   93SAPS   C38 9176   3.890   4.107   7.198 -0.3124 -0.0644 -0.1434
   93SAPS   H8X 9177   3.934   4.206   7.176 -0.4717 -0.0140 -0.2379
   93SAPS   H8Y 9178   3.986   4.057   7.224  0.8891  2.4118  0.4638
   93SAPS   C39 9179   3.794   4.090   7.309  0.4714 -0.7325 -0.2569
   93SAPS   H9X 9180   3.741   3.993   7.319  0.3313 -0.4942  1.7538
   93SAPS   H9Y 9181   3.713   4.161   7.281 -0.3949 -2.3153 -2.0049
   93SAPS  C310 9182   3.863   4.116   7.447  0.6903  0.4545  0.1053
   93SAPS  H10X 9183   3.889   4.224   7.443  0.3240  0.5325 -0.2983
   93SAPS  H10Y 9184   3.954   4.053   7.454  1.2661  1.3409  0.8454
   93SAPS  C311 9185   3.761   4.094   7.562 -0.0071 -0.3984 -0.6137
   93SAPS  H11X 9186   3.711   3.997   7.544 -0.2881  0.0401 -2.3837
   93SAPS  H11Y 9187   3.678   4.168   7.569  0.4725  0.0236  1.5016
   93SAPS  C312 9188   3.833   4.086   7.695  0.8420  0.1692 -0.1038
   93SAPS  H12X 9189   3.901   3.998   7.692 -1.6896 -1.8980 -0.7171
   93SAPS  H12Y 9190   3.766   4.060   7.779 -0.3945 -1.5501 -1.5447
   93SAPS  C313 9191   3.913   4.219   7.722  0.3635  0.7548 -0.9575
   93SAPS  H13X 9192   3.842   4.304   7.712  1.2098  1.4863 -0.8372
   93SAPS  H13Y 9193   3.998   4.227   7.651 -0.3753 -2.7715 -2.4463
   93SAPS  C314 9194   3.974   4.213   7.866  0.0200 -0.3730  0.0804
   93SAPS  H14X 9195   3.891   4.188   7.935 -1.0626  1.4349 -0.4809
   93SAPS  H14Y 9196   4.016   4.312   7.893  0.5063  0.6397 -3.7551
   93SAPS  C315 9197   4.076   4.095   7.882  0.9641 -0.3282 -0.3540
   93SAPS  H15X 9198   4.147   4.096   7.797  2.1360 -0.8247  0.5907
   93SAPS  H15Y 9199   4.032   3.994   7.891 -0.4125  0.3682  1.5409
   93SAPS  C316 9200   4.158   4.105   8.012  0.2366  0.4566 -0.1717
   93SAPS  H16X 9201   4.238   4.182   8.014  1.7375 -1.0465  0.2287
   93SAPS  H16Y 9202   4.208   4.006   8.023 -0.2976 -0.0305 -1.8482
   93SAPS  C317 9203   4.076   4.135   8.137 -0.1010  0.8700 -0.1790
   93SAPS  H17X 9204   3.987   4.071   8.152  0.7650 -0.4946 -0.7059
   93SAPS  H17Y 9205   4.038   4.240   8.137 -0.3292  0.7887  0.1493
   93SAPS  C318 9206   4.165   4.135   8.271  0.2860 -0.0736  0.2258
   93SAPS  H18X 9207   4.184   4.029   8.299  1.1946  0.0348  0.0357
   93SAPS  H18Y 9208   4.114   4.182   8.357  4.2248  1.5137  1.9363
   93SAPS  H18Z 9209   4.258   4.185   8.238 -1.3698  2.0778 -1.5388
   94SAPS     N 9210   4.149   3.470   5.834 -0.0537  0.1556  0.6915
   94SAPS   HN1 9211   4.222   3.495   5.904 -0.0853 -1.2468  1.2442
   94SAPS   HN2 9212   4.101   3.383   5.865  0.4516  0.2995  1.9516
   94SAPS   HN3 9213   4.191   3.442   5.743  0.1737  2.1424  0.1199
   94SAPS   C12 9214   4.064   3.596   5.817 -0.1029  0.3480 -0.7501
   94SAPS  H12A 9215   4.130   3.681   5.808 -0.3624  0.9070  1.8270
   94SAPS   C13 9216   3.982   3.602   5.685  0.0752 -0.9506 -0.0115
   94SAPS  O13A 9217   3.985   3.512   5.596  0.1371 -0.4227  0.2676
   94SAPS  O13B 9218   3.923   3.709   5.669 -0.2207 -0.3729  0.2748
   94SAPS   C11 9219   3.965   3.625   5.940 -1.2643 -0.2766  0.0457
   94SAPS  H11A 9220   3.896   3.708   5.911 -2.3712 -1.4768 -0.8721
   94SAPS  H11B 9221   4.031   3.661   6.022 -1.1691  0.0440 -0.1657
   94SAPS     P 9222   3.807   3.491   6.099 -0.2687 -0.2614  0.0866
   94SAPS   O13 9223   3.755   3.622   6.128 -0.5564 -0.3831  0.0013
   94SAPS   O14 9224   3.709   3.388   6.077 -0.8238 -0.0584  0.2049
   94SAPS   O12 9225   3.892   3.506   5.969  0.2327  0.3971  0.1903
   94SAPS   O11 9226   3.907   3.445   6.213  0.4587 -0.4373  0.3937
   94SAPS    C1 9227   3.999   3.348   6.181 -0.5744  0.1763  0.3744
   94SAPS    HA 9228   3.945   3.257   6.150 -1.3511  0.6905  0.1884
   94SAPS    HB 9229   4.075   3.385   6.108  2.8935 -0.3247  3.4433
   94SAPS    C2 9230   4.109   3.327   6.296 -0.7834  0.5244  0.5848
   94SAPS    HS 9231   4.063   3.255   6.368  0.6016 -0.7826  0.2254
   94SAPS   O21 9232   4.139   3.459   6.350 -0.3722  0.1248  0.0224
   94SAPS   C21 9233   4.051   3.499   6.439  0.4337 -0.4385  0.4828
   94SAPS   O22 9234   3.970   3.426   6.492  0.1544 -0.2653  0.4473
   94SAPS   C22 9235   4.051   3.649   6.472 -0.3041  0.0872 -0.7614
   94SAPS   H2R 9236   3.961   3.689   6.421  0.9151  0.0702 -3.0375
   94SAPS   H2S 9237   4.027   3.656   6.580  1.4811  1.0216 -0.3835
   94SAPS    C3 9238   4.239   3.254   6.248 -0.9073 -1.1343 -0.0819
   94SAPS    HX 9239   4.288   3.340   6.199  0.0144 -1.9451 -0.6360
   94SAPS    HY 9240   4.225   3.174   6.172  3.2551 -2.0181 -0.1551
   94SAPS   O31 9241   4.324   3.209   6.354 -0.0321 -0.0624  0.3267
   94SAPS   C31 9242   4.281   3.115   6.434 -0.0527  0.7926  0.0573
   94SAPS   O32 9243   4.199   3.025   6.404  0.2451  0.3845  0.4711
   94SAPS   C32 9244   4.363   3.119   6.561  1.2337 -0.6812  0.1462
   94SAPS   H2X 9245   4.406   3.221   6.569 -0.9169  0.2966 -0.3007
   94SAPS   H2Y 9246   4.454   3.056   6.551  1.2983 -0.3398 -1.7453
   94SAPS   C23 9247   4.177   3.731   6.432  0.4128  0.3945  0.1641
   94SAPS   H3R 9248   4.133   3.831   6.411  0.7222  1.0067  2.1901
   94SAPS   H3S 9249   4.215   3.692   6.335 -0.5963  1.3437 -0.6431
   94SAPS   C24 9250   4.285   3.772   6.535  0.4825  0.6557  0.1289
   94SAPS   H4R 9251   4.233   3.828   6.615  0.2031  2.1562 -1.0500
   94SAPS   H4S 9252   4.353   3.839   6.478 -1.4713  2.8820  0.2615
   94SAPS   C25 9253   4.357   3.646   6.570  0.2792 -0.0649  0.0313
   94SAPS   H5R 9254   4.398   3.588   6.486  1.7771 -0.9014  1.2850
   94SAPS   C26 9255   4.386   3.616   6.698  0.4775  0.8012  0.2126
   94SAPS   H6R 9256   4.426   3.515   6.721 -0.5261  0.2237 -0.5006
   94SAPS   C27 9257   4.350   3.693   6.822  0.4066  0.4479 -0.0503
   94SAPS   H7R 9258   4.396   3.794   6.814 -1.3045  1.3576  0.9990
   94SAPS   H7S 9259   4.408   3.641   6.902  0.4859 -1.6573 -1.4063
   94SAPS   C28 9260   4.204   3.706   6.862 -0.1654 -0.8255  0.7443
   94SAPS   H8R 9261   4.134   3.691   6.779 -0.1637 -2.8930  1.0511
   94SAPS   C29 9262   4.158   3.728   6.984 -0.0704  0.3060  0.6071
   94SAPS   H9R 9263   4.053   3.758   6.999 -0.3626  0.3651 -1.3098
   94SAPS  C210 9264   4.247   3.737   7.105  0.1986  0.2424 -0.1125
   94SAPS  H10R 9265   4.220   3.834   7.151 -0.3380 -0.0307  0.1595
   94SAPS  H10S 9266   4.357   3.741   7.087  0.4601 -1.8380  0.6420
   94SAPS  C211 9267   4.215   3.626   7.201 -0.3128 -0.5415  0.2415
   94SAPS  H11R 9268   4.240   3.526   7.162 -1.2743 -0.5415 -0.4081
   94SAPS  C212 9269   4.200   3.634   7.335  0.3323  0.3449 -0.6518
   94SAPS  H12R 9270   4.170   3.548   7.396  0.3388  0.8506  0.0694
   94SAPS  C213 9271   4.206   3.759   7.415  0.5338  0.2001 -0.5590
   94SAPS  H13R 9272   4.174   3.844   7.352 -0.6927 -0.9339 -1.5040
   94SAPS  H13S 9273   4.309   3.770   7.455  0.6267 -2.3670  0.0932
   94SAPS  C214 9274   4.110   3.753   7.531 -0.3857  0.1550  0.1058
   94SAPS  H14R 9275   4.005   3.734   7.507 -0.2658  1.0139 -1.1923
   94SAPS  C215 9276   4.140   3.779   7.656 -0.1227  0.4087 -1.1467
   94SAPS  H15R 9277   4.063   3.759   7.732  1.4527  0.1650  0.4834
   94SAPS  C216 9278   4.276   3.819   7.717  0.0809 -0.3731 -0.4469
   94SAPS  H16R 9279   4.254   3.901   7.788 -0.9679 -1.1196  0.1013
   94SAPS  H16S 9280   4.350   3.863   7.646  1.7911  2.4340  2.7396
   94SAPS  C217 9281   4.355   3.708   7.781 -0.0300 -0.4133 -0.6154
   94SAPS  H17R 9282   4.462   3.737   7.795 -0.7961  2.2711  0.3675
   94SAPS  H17S 9283   4.345   3.619   7.716 -0.9544 -0.2676 -0.6852
   94SAPS  C218 9284   4.299   3.661   7.917  0.1546  0.0431  0.6779
   94SAPS  H18R 9285   4.197   3.620   7.905  0.8223 -1.5588  0.1737
   94SAPS  H18S 9286   4.288   3.750   7.983 -2.6930  0.7061 -0.5445
   94SAPS  C219 9287   4.392   3.564   7.977 -0.0640 -0.1522 -0.3325
   94SAPS  H19R 9288   4.350   3.538   8.076  3.0263 -1.2144  0.8214
   94SAPS  H19S 9289   4.481   3.622   8.009  0.5547 -0.0809 -2.0588
   94SAPS  C220 9290   4.421   3.431   7.906 -0.1758  0.1569  0.3321
   94SAPS  H20R 9291   4.333   3.380   7.861  0.3835  0.6132 -1.3156
   94SAPS  H20S 9292   4.472   3.362   7.977 -0.6317 -0.2535  0.2715
   94SAPS  H20T 9293   4.501   3.432   7.830  0.0618 -1.6153  0.5173
   94SAPS   C33 9294   4.272   3.102   6.683 -0.7089  0.8459  0.0437
   94SAPS   H3X 9295   4.336   3.086   6.772 -2.0652 -1.6024  0.6709
   94SAPS   H3Y 9296   4.213   3.007   6.689  2.8729 -1.5172  0.6826
   94SAPS   C34 9297   4.177   3.220   6.718 -0.1682  0.2816  0.0374
   94SAPS   H4X 9298   4.101   3.219   6.636 -0.1658  1.3431  0.0198
   94SAPS   H4Y 9299   4.238   3.312   6.716  0.4540 -0.1230  0.0872
   94SAPS   C35 9300   4.089   3.214   6.851 -0.9805 -0.2461 -0.5849
   94SAPS   H5X 9301   4.018   3.129   6.853 -1.1948 -0.0745 -0.8723
   94SAPS   H5Y 9302   4.037   3.312   6.841 -0.8141 -0.1500 -0.5087
   94SAPS   C36 9303   4.183   3.226   6.978  0.6506  0.2934  0.1728
   94SAPS   H6X 9304   4.261   3.304   6.962 -0.6746  1.2104 -2.1373
   94SAPS   H6Y 9305   4.245   3.135   6.992  2.1199  1.3614  0.9077
   94SAPS   C37 9306   4.100   3.265   7.102  0.0619 -0.0347  0.4687
   94SAPS   H7X 9307   4.025   3.184   7.115  0.6816 -0.4431  1.7284
   94SAPS   H7Y 9308   4.054   3.366   7.099 -2.8963 -1.3183 -1.0141
   94SAPS   C38 9309   4.182   3.249   7.229  0.0927 -1.2972 -0.0269
   94SAPS   H8X 9310   4.252   3.333   7.251 -0.1868 -0.5159 -1.9065
   94SAPS   H8Y 9311   4.239   3.158   7.204 -2.1012 -2.1170 -2.5157
   94SAPS   C39 9312   4.088   3.220   7.343 -0.3227 -0.1417 -0.7443
   94SAPS   H9X 9313   4.044   3.118   7.329  0.4059 -0.6165  0.2778
   94SAPS   H9Y 9314   4.003   3.291   7.340 -0.0138  0.2060 -1.2912
   94SAPS  C310 9315   4.157   3.235   7.476  0.7425 -0.0015 -0.0703
   94SAPS  H10X 9316   4.192   3.339   7.494  0.7768 -0.0113 -0.0808
   94SAPS  H10Y 9317   4.252   3.179   7.473  1.2060  0.5650  2.1094
   94SAPS  C311 9318   4.058   3.195   7.587  0.0714 -0.5850 -0.0409
   94SAPS  H11X 9319   4.047   3.084   7.590  0.9542 -0.6856 -0.3402
   94SAPS  H11Y 9320   3.957   3.240   7.583  0.6335  0.9308  1.8597
   94SAPS  C312 9321   4.111   3.227   7.731 -0.0450 -0.1197 -0.2346
   94SAPS  H12X 9322   4.133   3.335   7.745 -1.0529 -0.1066  1.4867
   94SAPS  H12Y 9323   4.193   3.161   7.765 -0.2335 -0.0940  0.2749
   94SAPS  C313 9324   3.999   3.220   7.831  0.1252  0.2921 -0.4178
   94SAPS  H13X 9325   3.947   3.122   7.820 -1.1062  0.5790  2.2050
   94SAPS  H13Y 9326   3.923   3.294   7.797  3.0045  2.8403 -1.7400
   94SAPS  C314 9327   4.044   3.239   7.978 -0.3742 -0.4738 -0.6048
   94SAPS  H14X 9328   3.952   3.241   8.040  0.3241 -1.6291  0.5099
   94SAPS  H14Y 9329   4.100   3.332   8.003 -0.7394  0.0741 -1.7529
   94SAPS  C315 9330   4.112   3.114   8.033  0.2442 -0.4775 -0.4080
   94SAPS  H15X 9331   4.158   3.136   8.132  0.3449 -2.1756 -0.0421
   94SAPS  H15Y 9332   4.198   3.098   7.965  1.6266  0.7832  0.9558
   94SAPS  C316 9333   4.024   2.990   8.056 -0.0354  0.7204  0.3040
   94SAPS  H16X 9334   4.006   2.954   7.952  0.5165 -0.6844  0.6774
   94SAPS  H16Y 9335   3.936   3.010   8.121 -0.2113  1.4174 -0.1328
   94SAPS  C317 9336   4.097   2.878   8.133  0.3923 -0.1337 -0.1635
   94SAPS  H17X 9337   4.170   2.922   8.204  0.1939  0.3880 -0.2826
   94SAPS  H17Y 9338   4.149   2.809   8.063 -0.4631  0.2519 -1.2149
   94SAPS  C318 9339   3.992   2.792   8.207 -0.5323  0.0415  0.1002
   94SAPS  H18X 9340   4.043   2.707   8.258 -0.8789  0.7848  1.7714
   94SAPS  H18Y 9341   3.929   2.746   8.128  0.2334 -0.9931  0.0611
   94SAPS  H18Z 9342   3.935   2.854   8.280  2.2205  2.6227  0.2474
   95SAPS     N 9343   0.853   0.160   6.203  0.1830 -0.6954 -1.1706
   95SAPS   HN1 9344   0.781   0.116   6.144  2.0140 -1.4551 -2.9615
   95SAPS   HN2 9345   0.839   0.262   6.216 -0.1365 -0.9283  0.6116
   95SAPS   HN3 9346   0.939   0.151   6.144  1.6041 -0.4302  0.7450
   95SAPS   C12 9347   0.871   0.100   6.343  0.3932  0.5719  0.0262
   95SAPS  H12A 9348   0.781   0.130   6.394  0.8469  2.6219 -0.3148
   95SAPS   C13 9349   0.871  -0.060   6.338  0.2084 -0.8129  0.0393
   95SAPS  O13A 9350   0.886  -0.123   6.226 -0.3939  0.1965 -0.3298
   95SAPS  O13B 9351   0.868  -0.126   6.444  0.2110  0.0133 -0.5071
   95SAPS   C11 9352   0.999   0.152   6.403  0.0072  0.0630  0.7310
   95SAPS  H11A 9353   1.000   0.118   6.509  1.9709 -0.9719  0.4282
   95SAPS  H11B 9354   0.993   0.263   6.402 -2.2814 -0.0047  0.9917
   95SAPS     P 9355   1.260   0.158   6.365  0.3807  0.4906  0.5428
   95SAPS   O13 9356   1.360   0.059   6.331  0.1926  0.3296 -0.5998
   95SAPS   O14 9357   1.271   0.285   6.289  0.0710  0.0941  0.0533
   95SAPS   O12 9358   1.119   0.097   6.335  0.7277 -0.3964 -0.2370
   95SAPS   O11 9359   1.259   0.186   6.523  0.3997  0.2038 -0.3118
   95SAPS    C1 9360   1.384   0.177   6.604 -0.3569  0.8174  0.4566
   95SAPS    HA 9361   1.470   0.147   6.540 -0.4498 -2.4230  1.6898
   95SAPS    HB 9362   1.412   0.276   6.646  2.3130  1.2466 -1.9641
   95SAPS    C2 9363   1.379   0.073   6.723 -0.1443  0.4891 -0.1059
   95SAPS    HS 9364   1.375  -0.027   6.676  0.7222  0.0909  0.6432
   95SAPS   O21 9365   1.265   0.108   6.806 -0.7341 -0.5407 -0.1604
   95SAPS   C21 9366   1.195   0.010   6.861 -0.4889 -0.7821 -0.3824
   95SAPS   O22 9367   1.210  -0.110   6.834 -0.4371  0.3375 -0.7034
   95SAPS   C22 9368   1.096   0.061   6.963 -0.3250 -0.5196 -0.3839
   95SAPS   H2R 9369   1.156   0.130   7.026  1.1886 -1.3320 -0.8859
   95SAPS   H2S 9370   1.022   0.124   6.909 -0.6279 -0.0293  0.5839
   95SAPS    C3 9371   1.515   0.065   6.802 -0.5987 -0.0740 -0.1319
   95SAPS    HX 9372   1.553   0.169   6.808  1.1108 -0.7354  1.2878
   95SAPS    HY 9373   1.587   0.014   6.734 -0.9512  1.5252 -1.7845
   95SAPS   O31 9374   1.512   0.002   6.929 -0.0142  0.0915 -0.1598
   95SAPS   C31 9375   1.543  -0.125   6.938  0.0097 -0.5032  0.9071
   95SAPS   O32 9376   1.583  -0.190   6.841 -0.5253 -0.5447 -0.4941
   95SAPS   C32 9377   1.529  -0.176   7.074  0.8143 -0.0813 -0.2497
   95SAPS   H2X 9378   1.520  -0.084   7.136  1.2866  0.6931 -1.2867
   95SAPS   H2Y 9379   1.621  -0.232   7.103 -0.5709 -2.0393  0.5361
   95SAPS   C23 9380   1.026  -0.054   7.041 -0.5240 -0.0682 -0.5452
   95SAPS   H3R 9381   1.105  -0.114   7.092  1.0816  2.9006  0.7688
   95SAPS   H3S 9382   0.972  -0.109   6.962  0.3319  0.3783 -1.4655
   95SAPS   C24 9383   0.929  -0.014   7.147  0.2596  0.1392 -0.6945
   95SAPS   H4R 9384   0.963   0.079   7.199 -1.1436  0.9242 -1.1079
   95SAPS   H4S 9385   0.917  -0.092   7.226 -0.5366  0.8588 -0.0738
   95SAPS   C25 9386   0.794   0.014   7.085 -0.0824 -0.0567 -0.5183
   95SAPS   H5R 9387   0.782   0.092   7.008 -0.1050  1.5623  1.0560
   95SAPS   C26 9388   0.678  -0.045   7.121  0.2111 -0.7797 -0.3210
   95SAPS   H6R 9389   0.589  -0.015   7.063 -0.1309 -0.9204  0.1208
   95SAPS   C27 9390   0.648  -0.154   7.229  0.5830  0.4519  0.6465
   95SAPS   H7R 9391   0.732  -0.226   7.243  0.3285 -0.0219 -0.1700
   95SAPS   H7S 9392   0.562  -0.214   7.192  0.2122  1.3766 -0.0128
   95SAPS   C28 9393   0.614  -0.088   7.359  1.1568  0.8100  0.2293
   95SAPS   H8R 9394   0.678  -0.002   7.384  2.2498 -0.1796  0.9779
   95SAPS   C29 9395   0.529  -0.141   7.450 -0.3664  0.1620  0.1877
   95SAPS   H9R 9396   0.506  -0.076   7.535  1.6500  1.8257 -0.4633
   95SAPS  C210 9397   0.457  -0.278   7.450 -0.0055 -0.3588 -0.1305
   95SAPS  H10R 9398   0.487  -0.333   7.542 -1.5394 -0.3898  0.3756
   95SAPS  H10S 9399   0.496  -0.335   7.363  2.6118  0.4805  0.3754
   95SAPS  C211 9400   0.311  -0.271   7.434  1.7825 -0.5309 -0.0934
   95SAPS  H11R 9401   0.280  -0.198   7.359  1.3821 -0.0031  0.5763
   95SAPS  C212 9402   0.223  -0.341   7.510  0.6617 -0.3712  0.6972
   95SAPS  H12R 9403   0.118  -0.341   7.475  0.8156 -1.2353  0.2110
   95SAPS  C213 9404   0.244  -0.433   7.623 -0.3076  1.3326 -0.5931
   95SAPS  H13R 9405   0.342  -0.423   7.675 -0.4917 -2.4050  0.7412
   95SAPS  H13S 9406   0.236  -0.538   7.589 -1.7485  0.3488  2.4292
   95SAPS  C214 9407   0.132  -0.411   7.728 -0.8865  0.2241 -0.8342
   95SAPS  H14R 9408   0.042  -0.357   7.694  0.3742  2.0483 -1.4413
   95SAPS  C215 9409   0.141  -0.434   7.861  0.2630 -0.0772  0.2433
   95SAPS  H15R 9410   0.050  -0.405   7.917 -0.8691 -3.7698  0.5778
   95SAPS  C216 9411   0.257  -0.505   7.935  0.3401 -0.6164  0.3023
   95SAPS  H16R 9412   0.347  -0.516   7.870 -0.8942 -1.1010 -1.3866
   95SAPS  H16S 9413   0.225  -0.605   7.968  0.3807 -0.0139  2.2619
   95SAPS  C217 9414   0.279  -0.437   8.064 -0.0497  0.3647  0.0592
   95SAPS  H17R 9415   0.185  -0.426   8.122  0.9253  1.3480  1.5507
   95SAPS  H17S 9416   0.327  -0.338   8.047  0.8993 -0.2963 -1.3032
   95SAPS  C218 9417   0.354  -0.538   8.152 -0.4266 -0.2101 -0.6206
   95SAPS  H18R 9418   0.456  -0.564   8.117 -0.1346 -0.2289  0.2143
   95SAPS  H18S 9419   0.302  -0.635   8.166  2.3499 -2.0631 -2.3283
   95SAPS  C219 9420   0.396  -0.482   8.298 -0.0162 -0.1304 -0.4396
   95SAPS  H19R 9421   0.294  -0.471   8.341  0.2440 -1.3154  0.5297
   95SAPS  H19S 9422   0.441  -0.381   8.292 -0.4244  0.1804  1.4008
   95SAPS  C220 9423   0.492  -0.566   8.377 -0.7907  0.6523 -0.0704
   95SAPS  H20R 9424   0.460  -0.671   8.393 -0.5286  0.8186  1.7345
   95SAPS  H20S 9425   0.501  -0.522   8.479  0.1479  4.3724 -1.5851
   95SAPS  H20T 9426   0.593  -0.581   8.333 -0.3796 -0.5347  1.2124
   95SAPS   C33 9427   1.413  -0.281   7.089 -0.1084  0.1198  0.5139
   95SAPS   H3X 9428   1.420  -0.342   6.996 -1.4230  0.1168  0.4035
   95SAPS   H3Y 9429   1.313  -0.233   7.090 -0.4334 -0.4857 -0.6160
   95SAPS   C34 9430   1.433  -0.376   7.204 -0.3410  1.1244  0.2570
   95SAPS   H4X 9431   1.534  -0.421   7.214 -0.4136  0.3153 -2.1352
   95SAPS   H4Y 9432   1.365  -0.464   7.194  1.6524 -0.6088  1.0741
   95SAPS   C35 9433   1.406  -0.316   7.339  0.1731 -0.1775  0.3200
   95SAPS   H5X 9434   1.304  -0.270   7.337 -0.1041 -0.7036  1.5504
   95SAPS   H5Y 9435   1.483  -0.241   7.365 -1.2242  1.8750 -1.1066
   95SAPS   C36 9436   1.406  -0.428   7.442 -0.3643 -0.4971  0.3564
   95SAPS   H6X 9437   1.510  -0.466   7.442 -0.3904 -0.6322  1.7012
   95SAPS   H6Y 9438   1.336  -0.508   7.409  0.2005  0.3151 -3.1717
   95SAPS   C37 9439   1.363  -0.370   7.574 -0.2779 -0.3238  0.2834
   95SAPS   H7X 9440   1.265  -0.316   7.570  0.8468  2.2448  3.2659
   95SAPS   H7Y 9441   1.435  -0.291   7.605  2.2103 -2.1765 -0.5352
   95SAPS   C38 9442   1.338  -0.478   7.672  0.2463  0.5295 -0.2409
   95SAPS   H8X 9443   1.417  -0.556   7.667 -1.7298 -1.5249 -2.2392
   95SAPS   H8Y 9444   1.250  -0.534   7.635  1.4097 -1.4835 -0.1169
   95SAPS   C39 9445   1.304  -0.425   7.811 -0.0321 -0.6430 -0.3938
   95SAPS   H9X 9446   1.203  -0.380   7.802 -0.1814 -1.0228 -0.6587
   95SAPS   H9Y 9447   1.378  -0.352   7.851  0.6942 -1.1566 -0.7820
   95SAPS  C310 9448   1.281  -0.539   7.913 -0.3294  0.0903  0.5702
   95SAPS  H10X 9449   1.234  -0.608   7.839  0.4134  0.9916 -0.8012
   95SAPS  H10Y 9450   1.210  -0.510   7.993 -0.3876 -0.4936  0.7401
   95SAPS  C311 9451   1.407  -0.596   7.975 -0.3956 -0.3936  0.5000
   95SAPS  H11X 9452   1.464  -0.507   8.006 -0.2029  0.1351 -1.2378
   95SAPS  H11Y 9453   1.462  -0.654   7.897 -1.7618 -0.4209 -0.4950
   95SAPS  C312 9454   1.374  -0.671   8.090 -0.6604  0.1624  0.0883
   95SAPS  H12X 9455   1.316  -0.765   8.076 -2.2818  1.0522  0.6863
   95SAPS  H12Y 9456   1.318  -0.605   8.159 -4.4682 -2.2846 -0.3578
   95SAPS  C313 9457   1.502  -0.720   8.157  0.3831  0.9328  0.7662
   95SAPS  H13X 9458   1.564  -0.632   8.184 -0.7640  1.8367  0.5724
   95SAPS  H13Y 9459   1.545  -0.801   8.094 -0.6837  0.4123  0.6874
   95SAPS  C314 9460   1.466  -0.784   8.291 -0.1358  0.1824 -0.4065
   95SAPS  H14X 9461   1.417  -0.881   8.269 -1.7357  0.9907 -0.5668
   95SAPS  H14Y 9462   1.416  -0.709   8.357 -0.8620 -1.6623  1.2427
   95SAPS  C315 9463   1.591  -0.835   8.370  0.0159  0.0151  0.5300
   95SAPS  H15X 9464   1.645  -0.742   8.395 -1.3577  0.3032  2.7266
   95SAPS  H15Y 9465   1.655  -0.904   8.310  1.0057  0.2024  1.3502
   95SAPS  C316 9466   1.562  -0.905   8.506 -1.4439 -0.5517  0.4860
   95SAPS  H16X 9467   1.656  -0.963   8.520  0.9337  2.1713 -2.4369
   95SAPS  H16Y 9468   1.473  -0.970   8.494 -0.5825 -1.9536  1.4564
   95SAPS  C317 9469   1.571  -0.818   8.630 -0.1381 -0.0068 -0.0878
   95SAPS  H17X 9470   1.506  -0.729   8.618 -0.2700 -0.1558 -0.5094
   95SAPS  H17Y 9471   1.678  -0.790   8.638 -0.8159  2.6008  0.6082
   95SAPS  C318 9472   1.548  -0.895   8.770 -0.0532 -0.5194  0.6166
   95SAPS  H18X 9473   1.524  -0.827   8.854  2.8866  1.2088  0.2110
   95SAPS  H18Y 9474   1.648  -0.938   8.790  1.4304  2.7767  0.9273
   95SAPS  H18Z 9475   1.463  -0.962   8.744 -0.2838 -0.9775  2.4169
   96SAPS     N 9476   2.521   1.462   6.170 -0.2225 -0.6782  0.4160
   96SAPS   HN1 9477   2.570   1.409   6.096  1.4579  2.2382 -0.7453
   96SAPS   HN2 9478   2.576   1.542   6.207 -0.6213 -1.5315  3.0953
   96SAPS   HN3 9479   2.499   1.408   6.256  1.0481  1.2844  2.0879
   96SAPS   C12 9480   2.395   1.514   6.116 -0.2349  0.3308 -0.5342
   96SAPS  H12A 9481   2.342   1.577   6.186 -1.3135  0.6178 -1.5600
   96SAPS   C13 9482   2.410   1.578   5.982  0.7917  0.6195 -0.1122
   96SAPS  O13A 9483   2.525   1.603   5.939 -0.2932  0.4317 -1.3950
   96SAPS  O13B 9484   2.306   1.615   5.917  0.1737 -0.3659  0.4822
   96SAPS   C11 9485   2.294   1.396   6.095 -0.0090 -0.3335  0.3467
   96SAPS  H11A 9486   2.314   1.333   6.006  0.4571  0.8511 -0.4056
   96SAPS  H11B 9487   2.196   1.444   6.073 -0.7805 -1.7692  0.4746
   96SAPS     P 9488   2.213   1.175   6.198  0.3993 -0.3822  0.0521
   96SAPS   O13 9489   2.069   1.197   6.165 -0.1282  0.1068  0.5176
   96SAPS   O14 9490   2.300   1.097   6.104  0.0923 -0.6903 -0.3385
   96SAPS   O12 9491   2.281   1.321   6.216 -0.6538  0.3489 -0.4932
   96SAPS   O11 9492   2.221   1.096   6.336  0.2411  0.4045 -0.4205
   96SAPS    C1 9493   2.232   1.163   6.462  0.1633  0.4110 -0.2991
   96SAPS    HA 9494   2.341   1.180   6.477  0.3412 -0.5491 -0.4572
   96SAPS    HB 9495   2.166   1.252   6.468  0.8458  0.8089  2.9172
   96SAPS    C2 9496   2.191   1.067   6.579  0.1430 -0.2561  0.4053
   96SAPS    HS 9497   2.268   0.990   6.598 -2.5529 -3.8818 -2.0464
   96SAPS   O21 9498   2.064   1.006   6.544  0.2740  0.1726 -0.1432
   96SAPS   C21 9499   2.045   0.887   6.585 -0.3053 -0.4687  0.3271
   96SAPS   O22 9500   2.129   0.818   6.639  0.1775  0.6239 -0.4716
   96SAPS   C22 9501   1.904   0.835   6.550 -0.3907 -0.0786 -0.0638
   96SAPS   H2R 9502   1.908   0.830   6.439  1.9254 -0.2261 -0.0287
   96SAPS   H2S 9503   1.902   0.734   6.597  0.6879  1.2412  3.0446
   96SAPS    C3 9504   2.173   1.151   6.712 -0.3943  0.9423  0.2741
   96SAPS    HX 9505   2.090   1.224   6.705 -1.0250  0.3309  1.1195
   96SAPS    HY 9506   2.267   1.210   6.719 -0.1024  0.3922  1.1032
   96SAPS   O31 9507   2.144   1.071   6.830 -0.2627 -0.0855  0.4020
   96SAPS   C31 9508   2.245   1.002   6.888  0.6329 -0.2594  0.4221
   96SAPS   O32 9509   2.359   1.018   6.844 -0.0022 -0.5296 -0.2918
   96SAPS   C32 9510   2.185   0.919   7.000 -0.1085  0.6262 -0.4754
   96SAPS   H2X 9511   2.214   0.813   6.983  1.1923  0.7516  0.7416
   96SAPS   H2Y 9512   2.074   0.927   7.003 -0.2155 -0.6425 -0.2861
   96SAPS   C23 9513   1.804   0.932   6.614  0.0217  0.0745  0.6179
   96SAPS   H3R 9514   1.699   0.895   6.609  0.0361  0.2286 -1.1630
   96SAPS   H3S 9515   1.808   1.032   6.567  1.6756  0.1600  0.9063
   96SAPS   C24 9516   1.820   0.943   6.770  0.2740  0.5921 -0.1056
   96SAPS   H4R 9517   1.730   0.999   6.806 -1.0831 -0.7647 -1.2522
   96SAPS   H4S 9518   1.905   1.011   6.793 -0.1345  0.9389  0.4030
   96SAPS   C25 9519   1.832   0.821   6.849  0.5116  0.1459 -0.6371
   96SAPS   H5R 9520   1.888   0.747   6.789  2.5688  0.1284  1.1663
   96SAPS   C26 9521   1.781   0.793   6.972 -0.3373 -0.8029  0.1023
   96SAPS   H6R 9522   1.800   0.691   7.009  3.5896  0.3268  1.7270
   96SAPS   C27 9523   1.705   0.882   7.062  0.8046 -0.0874  0.2057
   96SAPS   H7R 9524   1.604   0.837   7.072  1.5498 -2.3816 -1.6357
   96SAPS   H7S 9525   1.684   0.977   7.008 -3.1113 -0.7965  0.1317
   96SAPS   C28 9526   1.763   0.903   7.199 -0.0410 -0.3364 -0.2316
   96SAPS   H8R 9527   1.830   0.990   7.210  1.5793 -1.2455 -2.2301
   96SAPS   C29 9528   1.742   0.829   7.310  0.0407 -0.3960 -0.1621
   96SAPS   H9R 9529   1.791   0.860   7.403 -0.5701 -0.0509  0.0513
   96SAPS  C210 9530   1.651   0.714   7.327  0.4099  0.1934 -0.1604
   96SAPS  H10R 9531   1.707   0.620   7.307  2.2802  1.3092 -0.3922
   96SAPS  H10S 9532   1.580   0.715   7.241 -0.0492 -0.7429  0.2023
   96SAPS  C211 9533   1.588   0.713   7.470  0.0406  0.8645  0.3888
   96SAPS  H11R 9534   1.481   0.738   7.470  0.4430  2.8917 -1.1927
   96SAPS  C212 9535   1.648   0.671   7.580 -0.4105 -0.0188  0.7257
   96SAPS  H12R 9536   1.589   0.686   7.672 -0.0676  1.1384  0.7764
   96SAPS  C213 9537   1.784   0.615   7.611 -0.1003  0.0139  0.0155
   96SAPS  H13R 9538   1.860   0.664   7.547  0.4162  1.0802  1.3985
   96SAPS  H13S 9539   1.795   0.507   7.591 -2.9658 -0.2086 -0.8276
   96SAPS  C214 9540   1.831   0.646   7.749  0.0453  0.2351  0.3605
   96SAPS  H14R 9541   1.859   0.751   7.769 -0.7704  0.5980 -0.3160
   96SAPS  C215 9542   1.838   0.560   7.855 -0.2540  0.1461 -0.0756
   96SAPS  H15R 9543   1.860   0.601   7.955 -1.4949 -1.4484  0.8846
   96SAPS  C216 9544   1.798   0.415   7.862 -0.1863 -0.6473  0.2090
   96SAPS  H16R 9545   1.885   0.346   7.870  0.6978  0.3050 -0.8011
   96SAPS  H16S 9546   1.730   0.383   7.781 -1.3196  0.0011  0.8764
   96SAPS  C217 9547   1.717   0.405   8.001 -0.5052 -0.0316 -0.4798
   96SAPS  H17R 9548   1.674   0.303   8.009 -1.4016  0.4551  2.0510
   96SAPS  H17S 9549   1.633   0.478   8.004  0.0142  0.6099  2.6254
   96SAPS  C218 9550   1.805   0.431   8.130 -1.0329 -1.0038  0.6078
   96SAPS  H18R 9551   1.797   0.536   8.165 -1.8367 -0.3503 -1.3441
   96SAPS  H18S 9552   1.909   0.429   8.093 -0.6211  0.4239  1.5990
   96SAPS  C219 9553   1.818   0.315   8.227  0.1831 -0.6466 -0.4249
   96SAPS  H19R 9554   1.715   0.302   8.267  0.6460  1.5878  1.6951
   96SAPS  H19S 9555   1.876   0.352   8.314  1.1411  2.0469 -2.0884
   96SAPS  C220 9556   1.860   0.182   8.167  0.9164  0.0950  0.6030
   96SAPS  H20R 9557   1.940   0.197   8.091  0.8086  0.1040  0.4900
   96SAPS  H20S 9558   1.774   0.127   8.123  0.0669  1.2917  0.7202
   96SAPS  H20T 9559   1.896   0.105   8.238 -1.1762 -0.1307  1.5055
   96SAPS   C33 9560   2.236   0.946   7.139  0.3140  1.2458  0.0492
   96SAPS   H3X 9561   2.206   1.046   7.177 -0.2058  0.4299  1.8710
   96SAPS   H3Y 9562   2.346   0.935   7.154  0.3633  0.3419 -0.8875
   96SAPS   C34 9563   2.173   0.854   7.240  0.5311  0.2431  0.2964
   96SAPS   H4X 9564   2.193   0.745   7.229  0.1017  0.1787  0.1123
   96SAPS   H4Y 9565   2.063   0.866   7.248  0.3761 -0.3283 -0.7540
   96SAPS   C35 9566   2.220   0.898   7.378  0.4726 -0.4003 -0.2687
   96SAPS   H5X 9567   2.187   1.003   7.394 -1.5128 -1.0580  0.2202
   96SAPS   H5Y 9568   2.330   0.901   7.385  0.5253 -1.7101 -0.2098
   96SAPS   C36 9569   2.157   0.814   7.499 -0.3066  0.2016 -0.1197
   96SAPS   H6X 9570   2.197   0.711   7.489 -1.6019 -0.2503 -0.8044
   96SAPS   H6Y 9571   2.048   0.811   7.479 -0.2588  0.1738 -0.3834
   96SAPS   C37 9572   2.177   0.875   7.643  0.0767  0.1021  0.0931
   96SAPS   H7X 9573   2.097   0.949   7.662 -0.2896  0.0237 -1.0534
   96SAPS   H7Y 9574   2.280   0.915   7.645  0.0330  0.2696 -0.7701
   96SAPS   C38 9575   2.162   0.757   7.745 -0.1408 -0.4840 -0.6808
   96SAPS   H8X 9576   2.263   0.712   7.730 -0.0464  0.0506 -1.7472
   96SAPS   H8Y 9577   2.086   0.683   7.713 -0.2966 -0.9539  0.7120
   96SAPS   C39 9578   2.143   0.807   7.889 -0.3022  0.1053 -0.7790
   96SAPS   H9X 9579   2.040   0.849   7.892 -0.2180  0.3818 -1.5226
   96SAPS   H9Y 9580   2.226   0.876   7.915  0.8141 -1.6330  0.4934
   96SAPS  C310 9581   2.166   0.695   7.998 -0.0427  0.2361  0.6033
   96SAPS  H10X 9582   2.135   0.600   7.949  0.2986 -0.5109  1.7969
   96SAPS  H10Y 9583   2.116   0.707   8.096 -1.3334 -0.0949  0.0112
   96SAPS  C311 9584   2.322   0.688   8.042 -0.6798  0.6811 -0.6802
   96SAPS  H11X 9585   2.339   0.790   8.083 -0.2880  1.1735 -2.0097
   96SAPS  H11Y 9586   2.391   0.683   7.956  0.2838 -1.3367  0.1459
   96SAPS  C312 9587   2.337   0.574   8.140  0.0525 -0.0873 -0.3628
   96SAPS  H12X 9588   2.329   0.470   8.101 -2.3828  0.1841 -0.7612
   96SAPS  H12Y 9589   2.244   0.580   8.200  0.0204  0.6108 -0.4791
   96SAPS  C313 9590   2.456   0.603   8.240  0.5249  0.2092 -0.3103
   96SAPS  H13X 9591   2.441   0.706   8.279 -2.6319  0.0547 -0.8586
   96SAPS  H13Y 9592   2.548   0.608   8.179 -0.5170 -0.7503 -2.0253
   96SAPS  C314 9593   2.460   0.504   8.355  0.6298  0.0805  0.5469
   96SAPS  H14X 9594   2.480   0.402   8.315 -3.0152  0.1524 -1.9273
   96SAPS  H14Y 9595   2.363   0.497   8.409  1.1212 -0.9386  1.3232
   96SAPS  C315 9596   2.553   0.552   8.462 -0.3687 -0.3104  0.3621
   96SAPS  H15X 9597   2.505   0.639   8.512 -1.1273 -0.5715  0.1027
   96SAPS  H15Y 9598   2.648   0.589   8.417 -0.9923 -1.0395 -1.6688
   96SAPS  C316 9599   2.614   0.442   8.555  0.4306 -0.6099 -0.7397
   96SAPS  H16X 9600   2.665   0.376   8.481 -1.6653 -0.5471 -2.3451
   96SAPS  H16Y 9601   2.526   0.391   8.600 -0.1707 -0.2115 -1.4394
   96SAPS  C317 9602   2.728   0.497   8.647  0.0164 -0.2350 -0.2667
   96SAPS  H17X 9603   2.697   0.569   8.726  0.8581 -1.0966  0.8736
   96SAPS  H17Y 9604   2.788   0.560   8.578 -0.6873  1.5921  0.7130
   96SAPS  C318 9605   2.825   0.389   8.708  0.3628  0.1227 -1.1278
   96SAPS  H18X 9606   2.904   0.450   8.756 -0.0592  0.0303 -0.3008
   96SAPS  H18Y 9607   2.868   0.318   8.634  0.6057 -0.9249 -0.0043
   96SAPS  H18Z 9608   2.765   0.330   8.780  1.4203  0.7511  0.2956
   97SAPS     N 9609   2.155   4.909   6.477 -0.7600  0.3324  0.1124
   97SAPS   HN1 9610   2.176   5.010   6.475  0.5117  0.1719  2.1128
   97SAPS   HN2 9611   2.098   4.903   6.564  2.5061  3.3229  2.7819
   97SAPS   HN3 9612   2.248   4.866   6.497  0.7571  3.3524  0.0357
   97SAPS   C12 9613   2.089   4.866   6.361  0.1952  0.6690 -0.8072
   97SAPS  H12A 9614   1.993   4.913   6.372  1.2709  2.6493  1.0392
   97SAPS   C13 9615   2.148   4.912   6.229 -1.0962 -0.7351 -0.5878
   97SAPS  O13A 9616   2.264   4.970   6.221 -0.0776  0.2514 -0.8946
   97SAPS  O13B 9617   2.090   4.872   6.122 -0.4752  0.3986  0.2734
   97SAPS   C11 9618   2.085   4.708   6.364 -0.0352  0.2129  0.0027
   97SAPS  H11A 9619   2.050   4.670   6.266 -1.1967 -0.6369  0.7214
   97SAPS  H11B 9620   1.998   4.681   6.428  0.1816  0.6545  0.4918
   97SAPS     P 9621   2.224   4.497   6.432  0.0454  0.0435 -0.6376
   97SAPS   O13 9622   2.173   4.412   6.322  0.1981 -0.0001  0.5872
   97SAPS   O14 9623   2.365   4.460   6.465  0.5209 -0.0896  0.0326
   97SAPS   O12 9624   2.214   4.650   6.394  0.3877  0.2053 -0.1876
   97SAPS   O11 9625   2.131   4.491   6.560 -0.4111 -0.4412  0.1099
   97SAPS    C1 9626   2.140   4.602   6.658  0.6769  0.2498  1.2636
   97SAPS    HA 9627   2.237   4.656   6.653  0.2157  0.9853 -1.5599
   97SAPS    HB 9628   2.055   4.673   6.647 -0.3618 -0.9932  0.9326
   97SAPS    C2 9629   2.127   4.549   6.804  0.3672  0.1075  0.1000
   97SAPS    HS 9630   2.223   4.495   6.815 -0.3718 -1.7120 -1.6396
   97SAPS   O21 9631   2.010   4.466   6.809  0.0732 -0.4661 -0.1342
   97SAPS   C21 9632   2.030   4.363   6.897 -0.0809  0.4874 -0.4623
   97SAPS   O22 9633   2.133   4.335   6.959  0.2516  0.4319  0.2009
   97SAPS   C22 9634   1.890   4.301   6.913 -0.0171  0.2132 -1.0536
   97SAPS   H2R 9635   1.842   4.330   6.817  0.4139  2.5351 -0.6363
   97SAPS   H2S 9636   1.911   4.193   6.898  0.8093  0.1522  0.3504
   97SAPS    C3 9637   2.106   4.679   6.892  0.6180  0.0472 -0.6463
   97SAPS    HX 9638   2.008   4.719   6.859  0.8423  1.4670  0.3073
   97SAPS    HY 9639   2.175   4.764   6.872 -0.8300  1.7411  1.1679
   97SAPS   O31 9640   2.111   4.638   7.033 -0.1360 -0.1766 -0.2316
   97SAPS   C31 9641   2.223   4.618   7.096  0.4916 -0.0613 -0.2429
   97SAPS   O32 9642   2.332   4.622   7.042  0.3122  0.4193 -0.4643
   97SAPS   C32 9643   2.183   4.619   7.247 -0.3609  0.7514  0.1089
   97SAPS   H2X 9644   2.076   4.588   7.250  0.0406 -0.7494 -0.4074
   97SAPS   H2Y 9645   2.199   4.717   7.298 -1.0699 -0.6314  3.2464
   97SAPS   C23 9646   1.820   4.346   7.039 -0.0613 -0.0476  0.2425
   97SAPS   H3R 9647   1.710   4.353   7.025 -0.1481  1.7380  1.5508
   97SAPS   H3S 9648   1.851   4.443   7.082  2.1270 -0.5034 -0.1541
   97SAPS   C24 9649   1.830   4.247   7.155 -0.4877 -0.7506 -0.2897
   97SAPS   H4R 9650   1.819   4.148   7.107 -0.1098 -0.9932  0.1126
   97SAPS   H4S 9651   1.747   4.266   7.226 -0.6394 -0.3149 -0.5829
   97SAPS   C25 9652   1.962   4.252   7.240  0.3163  0.8081 -0.8495
   97SAPS   H5R 9653   2.055   4.263   7.181 -0.3190 -2.2565 -2.6870
   97SAPS   C26 9654   1.974   4.228   7.375 -1.0400  0.7163 -0.0381
   97SAPS   H6R 9655   2.075   4.224   7.418  0.0808  0.3282 -2.5400
   97SAPS   C27 9656   1.868   4.190   7.466  0.2424 -0.3780  0.0414
   97SAPS   H7R 9657   1.779   4.152   7.411  0.1674  0.6836 -0.5959
   97SAPS   H7S 9658   1.831   4.286   7.508  0.7120  0.1251 -0.6733
   97SAPS   C28 9659   1.908   4.083   7.565 -0.2643 -0.3453  0.8774
   97SAPS   H8R 9660   1.927   3.987   7.515 -0.1915 -0.5864  1.3601
   97SAPS   C29 9661   1.920   4.091   7.700 -0.0558  0.2837 -0.1159
   97SAPS   H9R 9662   1.961   4.005   7.755 -2.2302  0.0568  1.2723
   97SAPS  C210 9663   1.905   4.222   7.772 -0.3024  0.1174  0.7545
   97SAPS  H10R 9664   1.945   4.298   7.701 -0.3945 -0.5726 -0.0542
   97SAPS  H10S 9665   1.973   4.219   7.859 -2.5193 -3.3720  2.6145
   97SAPS  C211 9666   1.755   4.251   7.810 -1.3733 -0.8104  0.0703
   97SAPS  H11R 9667   1.687   4.249   7.724  1.6562  2.0358 -2.7007
   97SAPS  C212 9668   1.706   4.272   7.937  0.3395  0.6401 -0.0585
   97SAPS  H12R 9669   1.598   4.291   7.946  0.7224  2.5313  1.2499
   97SAPS  C213 9670   1.778   4.266   8.072 -0.1566 -0.1142  0.6315
   97SAPS  H13R 9671   1.713   4.321   8.143 -1.3932  0.4092 -0.8413
   97SAPS  H13S 9672   1.873   4.324   8.065 -1.9442  2.9154 -1.2290
   97SAPS  C214 9673   1.800   4.141   8.146 -0.5651  0.4289 -0.2769
   97SAPS  H14R 9674   1.772   4.046   8.100 -2.2583 -0.1159  1.7244
   97SAPS  C215 9675   1.845   4.132   8.275  0.4445 -0.1955 -0.1019
   97SAPS  H15R 9676   1.856   4.031   8.316  2.1741  0.1801  0.4351
   97SAPS  C216 9677   1.882   4.239   8.378 -1.0943 -0.0435  0.0854
   97SAPS  H16R 9678   1.867   4.340   8.334  1.3967  0.6503  0.7026
   97SAPS  H16S 9679   1.979   4.221   8.428 -1.9113  0.3846  1.9268
   97SAPS  C217 9680   1.777   4.245   8.494 -0.0929  0.3270 -0.0203
   97SAPS  H17R 9681   1.677   4.263   8.448 -0.5403  1.8793  1.4698
   97SAPS  H17S 9682   1.797   4.334   8.558  1.4385 -0.2858  0.3950
   97SAPS  C218 9683   1.786   4.125   8.591 -0.2087 -0.0789  0.0747
   97SAPS  H18R 9684   1.798   4.032   8.532 -3.4043  0.4414 -1.6399
   97SAPS  H18S 9685   1.692   4.122   8.651  0.0705 -2.9228  0.5096
   97SAPS  C219 9686   1.909   4.129   8.682 -1.4643 -0.2488 -0.1796
   97SAPS  H19R 9687   1.916   4.216   8.752  1.0514 -0.1565 -0.4788
   97SAPS  H19S 9688   1.995   4.147   8.614 -0.8762 -1.8278  0.1168
   97SAPS  C220 9689   1.940   3.998   8.758 -0.3348 -0.1723 -0.4478
   97SAPS  H20R 9690   1.876   3.968   8.844  1.5437  0.7528  1.3881
   97SAPS  H20S 9691   2.040   4.009   8.805  0.2785 -1.4854 -1.3784
   97SAPS  H20T 9692   1.937   3.922   8.677 -3.4897 -1.5034  0.7267
   97SAPS   C33 9693   2.273   4.514   7.326 -0.3148 -0.6012  0.4093
   97SAPS   H3X 9694   2.381   4.539   7.310 -1.0719  2.3292 -0.7202
   97SAPS   H3Y 9695   2.252   4.422   7.267 -1.0212 -1.0139  1.2799
   97SAPS   C34 9696   2.238   4.497   7.475 -0.1931 -0.0954 -0.0982
   97SAPS   H4X 9697   2.129   4.483   7.490 -0.4611 -0.1592 -1.8820
   97SAPS   H4Y 9698   2.279   4.585   7.530 -0.1202 -0.6306  0.7215
   97SAPS   C35 9699   2.298   4.377   7.548 -0.1858  0.1718  0.0751
   97SAPS   H5X 9700   2.406   4.355   7.530  0.1304 -0.6813  2.6130
   97SAPS   H5Y 9701   2.244   4.287   7.511  0.2299  0.0504 -0.2400
   97SAPS   C36 9702   2.274   4.376   7.697  0.1403 -0.0847 -0.3786
   97SAPS   H6X 9703   2.300   4.269   7.716 -0.9620 -0.8238 -2.6862
   97SAPS   H6Y 9704   2.166   4.386   7.721  0.2210  3.3778 -0.9439
   97SAPS   C37 9705   2.361   4.468   7.788  0.5648  0.1943 -0.0623
   97SAPS   H7X 9706   2.348   4.576   7.767 -1.4099  0.2354  1.1229
   97SAPS   H7Y 9707   2.456   4.426   7.749 -0.7333 -2.4792 -0.5956
   97SAPS   C38 9708   2.325   4.456   7.932  0.3232 -0.1177  0.6268
   97SAPS   H8X 9709   2.412   4.486   7.994  1.4681  0.3008 -1.1137
   97SAPS   H8Y 9710   2.298   4.352   7.961  1.4954 -0.4367  0.6083
   97SAPS   C39 9711   2.204   4.549   7.977  0.2187 -0.7289  0.0665
   97SAPS   H9X 9712   2.130   4.547   7.894  0.1218 -2.4447  0.1690
   97SAPS   H9Y 9713   2.254   4.648   7.977  0.9956 -1.0925 -1.4845
   97SAPS  C310 9714   2.138   4.506   8.108  0.0399  0.5328  0.8923
   97SAPS  H10X 9715   2.207   4.496   8.195 -1.4645  1.2790  2.2277
   97SAPS  H10Y 9716   2.084   4.410   8.097  2.1572 -0.7523  1.0595
   97SAPS  C311 9717   2.042   4.615   8.150 -0.3176  0.0795  0.1073
   97SAPS  H11X 9718   1.965   4.610   8.069 -2.3413 -1.7043  1.9877
   97SAPS  H11Y 9719   2.098   4.710   8.156  1.6190 -1.1199  2.9661
   97SAPS  C312 9720   1.978   4.588   8.291  0.3312  0.1056 -0.3139
   97SAPS  H12X 9721   2.013   4.489   8.327 -0.0091 -0.1174 -0.5832
   97SAPS  H12Y 9722   1.867   4.592   8.281  0.3896 -0.5678 -1.3666
   97SAPS  C313 9723   2.029   4.680   8.405  0.5832  0.0432  0.5180
   97SAPS  H13X 9724   1.997   4.786   8.393  1.5089  0.0228 -4.0732
   97SAPS  H13Y 9725   2.140   4.678   8.401  0.8419  0.7523  4.0370
   97SAPS  C314 9726   1.984   4.646   8.546  0.0705 -0.1312  0.1551
   97SAPS  H14X 9727   2.036   4.715   8.617  0.8045  0.8923 -1.3117
   97SAPS  H14Y 9728   2.002   4.543   8.581 -1.2971 -0.4975 -0.1675
   97SAPS  C315 9729   1.830   4.662   8.551 -0.5433  0.1185  0.0304
   97SAPS  H15X 9730   1.774   4.592   8.486 -0.8015  2.3578 -2.3495
   97SAPS  H15Y 9731   1.805   4.765   8.516  0.0058  0.1656 -0.2434
   97SAPS  C316 9732   1.772   4.662   8.695  0.2924  0.3100 -0.6189
   97SAPS  H16X 9733   1.662   4.675   8.689  0.0921 -0.9670 -0.0459
   97SAPS  H16Y 9734   1.825   4.747   8.744  1.4486  0.7904 -2.5945
   97SAPS  C317 9735   1.791   4.536   8.780  0.2038  0.3637 -0.0597
   97SAPS  H17X 9736   1.889   4.495   8.749  0.1927 -0.2075  0.6355
   97SAPS  H17Y 9737   1.713   4.461   8.754 -0.1409 -0.0582  1.9665
   97SAPS  C318 9738   1.768   4.552   8.935  0.0813 -0.1264  0.1666
   97SAPS  H18X 9739   1.815   4.649   8.963 -0.5918 -0.3562  2.2751
   97SAPS  H18Y 9740   1.803   4.462   8.989 -0.7253 -0.1744  0.6271
   97SAPS  H18Z 9741   1.659   4.564   8.950  0.1710  0.8534  0.0957
   98SAPS     N 9742   0.031   0.420   6.243 -0.2661 -0.1322 -0.3240
   98SAPS   HN1 9743   0.054   0.506   6.297 -3.3871 -0.3714  1.6472
   98SAPS   HN2 9744  -0.058   0.385   6.283 -0.6671  0.0910 -1.0132
   98SAPS   HN3 9745   0.103   0.349   6.267  0.3215  0.3291 -0.6912
   98SAPS   C12 9746   0.025   0.445   6.099  0.3235 -0.4547 -0.3738
   98SAPS  H12A 9747   0.121   0.480   6.064 -0.5822  0.5169 -2.0172
   98SAPS   C13 9748  -0.009   0.315   6.021 -0.3098 -0.4898 -0.9621
   98SAPS  O13A 9749  -0.017   0.209   6.087  0.6539 -0.6333 -0.4327
   98SAPS  O13B 9750  -0.018   0.313   5.900  0.2435  0.0579  0.4078
   98SAPS   C11 9751  -0.086   0.552   6.077  1.1353 -0.4709  0.4292
   98SAPS  H11A 9752  -0.190   0.514   6.077  0.5359  1.0166  2.0736
   98SAPS  H11B 9753  -0.059   0.608   5.985  1.4042  1.8341  1.8257
   98SAPS     P 9754  -0.163   0.780   6.191 -0.5679  0.0516 -0.2568
   98SAPS   O13 9755  -0.149   0.873   6.072 -1.0301  0.0482 -0.6329
   98SAPS   O14 9756  -0.294   0.730   6.221 -0.0136 -0.1982  0.0380
   98SAPS   O12 9757  -0.073   0.647   6.183  0.7790 -0.3665  0.2574
   98SAPS   O11 9758  -0.108   0.851   6.324 -0.2898 -0.3748 -1.5352
   98SAPS    C1 9759  -0.107   0.774   6.450 -0.7793 -0.2150  0.1326
   98SAPS    HA 9760  -0.134   0.666   6.445  0.0595 -0.4920  1.1776
   98SAPS    HB 9761   0.001   0.767   6.475 -0.9312  0.2746  0.9600
   98SAPS    C2 9762  -0.170   0.860   6.567  0.3257  0.0386  0.0856
   98SAPS    HS 9763  -0.123   0.960   6.564  0.0982  0.3024  3.1386
   98SAPS   O21 9764  -0.156   0.782   6.683 -0.4323  0.1494 -0.3577
   98SAPS   C21 9765  -0.144   0.846   6.788 -0.1821 -1.1775 -0.4172
   98SAPS   O22 9766  -0.152   0.970   6.793 -0.5470  0.0427 -0.1613
   98SAPS   C22 9767  -0.141   0.748   6.907 -0.1076 -0.4951  0.3857
   98SAPS   H2R 9768  -0.156   0.645   6.868 -0.4839 -0.2480 -0.1308
   98SAPS   H2S 9769  -0.052   0.762   6.974 -0.5528 -0.4671  0.9781
   98SAPS    C3 9770  -0.322   0.882   6.531  0.7447 -0.5409  0.6979
   98SAPS    HX 9771  -0.374   0.784   6.526 -1.1517  0.4172  0.7888
   98SAPS    HY 9772  -0.320   0.927   6.430  1.2906 -2.6477 -0.2789
   98SAPS   O31 9773  -0.386   0.949   6.640  0.1071  0.4273 -0.6427
   98SAPS   C31 9774  -0.389   1.080   6.646 -0.8653  0.0119  0.6102
   98SAPS   O32 9775  -0.346   1.157   6.560  0.3288  0.0533 -0.3799
   98SAPS   C32 9776  -0.439   1.135   6.774 -0.0252 -0.2811 -0.0497
   98SAPS   H2X 9777  -0.346   1.185   6.807  1.2302 -0.8599 -2.4792
   98SAPS   H2Y 9778  -0.465   1.050   6.841  0.7486  1.5591  2.7793
   98SAPS   C23 9779  -0.252   0.782   7.005  0.3350 -0.0960 -0.9623
   98SAPS   H3R 9780  -0.354   0.752   6.973  0.1504  2.3125 -2.9875
   98SAPS   H3S 9781  -0.250   0.893   7.015 -0.0148 -0.2370  0.9988
   98SAPS   C24 9782  -0.231   0.729   7.146 -0.3594  0.0441  0.4455
   98SAPS   H4R 9783  -0.307   0.765   7.219  0.9079  1.9865  0.8654
   98SAPS   H4S 9784  -0.138   0.771   7.189  0.4749  0.9388 -2.0253
   98SAPS   C25 9785  -0.228   0.576   7.134  0.2665 -0.1458 -0.6303
   98SAPS   H5R 9786  -0.320   0.533   7.091 -0.4136 -0.1998  0.8191
   98SAPS   C26 9787  -0.140   0.489   7.188 -0.2201  0.0958  0.5018
   98SAPS   H6R 9788  -0.140   0.379   7.176 -0.4836  0.1635 -0.1601
   98SAPS   C27 9789  -0.025   0.540   7.271 -0.7949  0.4832 -0.6405
   98SAPS   H7R 9790   0.010   0.452   7.330  0.7818  1.6569  0.2736
   98SAPS   H7S 9791  -0.050   0.610   7.354  0.7569  0.9832 -0.5610
   98SAPS   C28 9792   0.095   0.605   7.206  0.5508 -0.8819  0.2026
   98SAPS   H8R 9793   0.089   0.621   7.097 -4.5006  1.4345  0.4982
   98SAPS   C29 9794   0.206   0.634   7.275  1.0205  0.5616  0.4044
   98SAPS   H9R 9795   0.292   0.684   7.227  1.3124 -1.5951 -1.5114
   98SAPS  C210 9796   0.213   0.622   7.429  0.1080 -0.4234 -0.0704
   98SAPS  H10R 9797   0.121   0.631   7.491  1.7741 -1.1712  2.6599
   98SAPS  H10S 9798   0.275   0.706   7.466 -0.3583 -0.4717  0.8453
   98SAPS  C211 9799   0.271   0.485   7.464 -0.3252 -0.1449  0.3070
   98SAPS  H11R 9800   0.362   0.457   7.409  0.8806  1.9161  1.1105
   98SAPS  C212 9801   0.198   0.392   7.522 -0.3324  0.2577 -0.0495
   98SAPS  H12R 9802   0.248   0.295   7.533 -0.1610  0.3272 -0.2238
   98SAPS  C213 9803   0.051   0.390   7.568 -0.0681 -0.3177 -1.0781
   98SAPS  H13R 9804  -0.001   0.307   7.516 -0.0582 -0.5453 -0.7314
   98SAPS  H13S 9805  -0.003   0.481   7.535  1.0184  0.4663 -0.7434
   98SAPS  C214 9806   0.046   0.372   7.717  1.2695 -0.0559 -0.1997
   98SAPS  H14R 9807   0.148   0.362   7.758  1.0127 -1.2940  0.1736
   98SAPS  C215 9808  -0.065   0.356   7.792  0.3454  0.1876 -0.3142
   98SAPS  H15R 9809  -0.061   0.336   7.900 -3.1020  0.7408  0.0411
   98SAPS  C216 9810  -0.200   0.337   7.732 -0.7077 -1.0184  0.5192
   98SAPS  H16R 9811  -0.255   0.245   7.762 -0.9250 -1.2631 -0.5963
   98SAPS  H16S 9812  -0.201   0.350   7.622 -1.5808  1.6998  0.7750
   98SAPS  C217 9813  -0.276   0.461   7.785 -0.9784 -0.2158  0.0079
   98SAPS  H17R 9814  -0.218   0.555   7.774 -3.6446  1.6324  0.6215
   98SAPS  H17S 9815  -0.308   0.448   7.891 -1.1483 -5.3813 -0.4413
   98SAPS  C218 9816  -0.405   0.478   7.705 -0.1328  0.0179 -0.1178
   98SAPS  H18R 9817  -0.468   0.562   7.742  0.3137  0.8198 -1.1087
   98SAPS  H18S 9818  -0.467   0.388   7.724  0.1838 -0.5340 -1.6080
   98SAPS  C219 9819  -0.399   0.493   7.553 -0.2646 -0.1275 -0.1872
   98SAPS  H19R 9820  -0.501   0.513   7.515 -0.8489  1.6207  2.0958
   98SAPS  H19S 9821  -0.366   0.397   7.508  1.4435  0.6461 -0.6956
   98SAPS  C220 9822  -0.323   0.617   7.517 -0.4732 -0.3931  0.3598
   98SAPS  H20R 9823  -0.324   0.637   7.408  0.4130  0.2135  0.4532
   98SAPS  H20S 9824  -0.217   0.607   7.548 -0.6640 -1.1380  0.8151
   98SAPS  H20T 9825  -0.355   0.703   7.578  0.7796 -0.2448  0.8306
   98SAPS   C33 9826  -0.542   1.240   6.767  1.3978 -0.2985  0.4038
   98SAPS   H3X 9827  -0.605   1.223   6.677 -1.0944  1.0124  1.7879
   98SAPS   H3Y 9828  -0.510   1.344   6.749  0.0860 -0.0667 -0.7840
   98SAPS   C34 9829  -0.636   1.240   6.891 -0.0392  1.1265 -0.7898
   98SAPS   H4X 9830  -0.671   1.135   6.894 -2.5239  1.8985  2.2230
   98SAPS   H4Y 9831  -0.727   1.301   6.873 -0.3076  0.9511 -0.0751
   98SAPS   C35 9832  -0.565   1.270   7.023  0.4118 -0.4330 -1.2516
   98SAPS   H5X 9833  -0.637   1.324   7.088  0.5574 -1.4160 -0.2424
   98SAPS   H5Y 9834  -0.491   1.350   7.001 -1.1611  0.9600 -1.7626
   98SAPS   C36 9835  -0.518   1.149   7.113 -0.0230 -0.0993  0.0432
   98SAPS   H6X 9836  -0.483   1.204   7.203 -1.6828 -0.3034  0.8590
   98SAPS   H6Y 9837  -0.426   1.098   7.077  0.8931  2.3705 -1.3267
   98SAPS   C37 9838  -0.624   1.044   7.153 -0.2861  0.2190 -0.5687
   98SAPS   H7X 9839  -0.679   1.004   7.065 -2.0377  1.6198 -0.1795
   98SAPS   H7Y 9840  -0.697   1.093   7.222 -0.2541 -1.6968  0.9194
   98SAPS   C38 9841  -0.565   0.916   7.212 -0.4887 -0.1575 -0.2754
   98SAPS   H8X 9842  -0.489   0.874   7.142  0.9110 -0.0517  1.1332
   98SAPS   H8Y 9843  -0.641   0.839   7.237  0.4330 -0.7684  0.7300
   98SAPS   C39 9844  -0.487   0.936   7.347  0.9899 -0.0204 -0.7884
   98SAPS   H9X 9845  -0.408   1.013   7.333  2.4097 -1.5359 -1.4196
   98SAPS   H9Y 9846  -0.432   0.843   7.372  1.2682  0.7977  1.9481
   98SAPS  C310 9847  -0.591   0.980   7.456 -0.1377  0.0586 -0.4110
   98SAPS  H10X 9848  -0.676   0.911   7.439  0.2974 -0.6725  0.3376
   98SAPS  H10Y 9849  -0.614   1.087   7.433  0.2532 -0.4595 -3.8218
   98SAPS  C311 9850  -0.539   0.972   7.605 -0.1191 -0.5839 -0.5741
   98SAPS  H11X 9851  -0.451   1.038   7.618  0.8264 -1.6726 -1.3208
   98SAPS  H11Y 9852  -0.508   0.866   7.618 -0.3188 -0.4453  1.3458
   98SAPS  C312 9853  -0.655   0.996   7.709  1.0478 -0.2331  0.1737
   98SAPS  H12X 9854  -0.749   0.944   7.682 -0.5205  2.6128 -0.3089
   98SAPS  H12Y 9855  -0.686   1.102   7.695  0.5220 -0.2783  0.9835
   98SAPS  C313 9856  -0.613   0.952   7.853  0.0099 -0.4662  0.0603
   98SAPS  H13X 9857  -0.517   1.002   7.879 -0.3009  0.5739 -0.7322
   98SAPS  H13Y 9858  -0.597   0.843   7.847 -1.7432 -0.6673 -1.7266
   98SAPS  C314 9859  -0.710   0.983   7.962  0.5370 -0.3038 -0.5269
   98SAPS  H14X 9860  -0.811   0.937   7.952  0.2543 -0.2225  1.6234
   98SAPS  H14Y 9861  -0.714   1.092   7.983  0.9803 -0.4799  0.4754
   98SAPS  C315 9862  -0.663   0.925   8.097  0.4401  1.3352  0.9558
   98SAPS  H15X 9863  -0.576   0.985   8.129  1.4668  1.4337 -1.7342
   98SAPS  H15Y 9864  -0.630   0.821   8.075 -1.1624  0.8866  0.5362
   98SAPS  C316 9865  -0.767   0.921   8.206 -0.5674 -0.5855  0.1727
   98SAPS  H16X 9866  -0.860   0.879   8.164 -1.1339  1.4237 -0.6900
   98SAPS  H16Y 9867  -0.790   1.025   8.238 -0.4781 -1.3211  2.9087
   98SAPS  C317 9868  -0.717   0.855   8.343 -0.7698 -0.9230 -0.0463
   98SAPS  H17X 9869  -0.781   0.902   8.421 -0.5435  0.5937 -0.7355
   98SAPS  H17Y 9870  -0.615   0.897   8.358 -0.8057 -0.3994 -1.1939
   98SAPS  C318 9871  -0.736   0.708   8.353 -0.0917 -0.2311  0.6606
   98SAPS  H18X 9872  -0.843   0.679   8.348  0.4065 -2.9088  2.6992
   98SAPS  H18Y 9873  -0.686   0.676   8.447 -0.1336  1.8457  1.4461
   98SAPS  H18Z 9874  -0.680   0.673   8.264 -1.0647  0.3324 -0.1885
   99SAPS     N 9875   6.084   3.693   5.751 -0.1933 -0.3493 -0.7907
   99SAPS   HN1 9876   6.181   3.673   5.784 -0.6150 -1.3869 -0.1440
   99SAPS   HN2 9877   6.030   3.604   5.741 -0.7640  0.0302 -1.1308
   99SAPS   HN3 9878   6.095   3.723   5.652 -0.6645 -1.2949 -1.1442
   99SAPS   C12 9879   6.013   3.806   5.824  0.3762 -0.6408  0.2891
   99SAPS  H12A 9880   6.076   3.894   5.821 -0.1837 -0.1966  1.2843
   99SAPS   C13 9881   5.884   3.864   5.762  0.4650 -0.6358 -0.0407
   99SAPS  O13A 9882   5.861   3.832   5.641 -0.1896 -0.4426 -0.0954
   99SAPS  O13B 9883   5.814   3.944   5.821 -0.4247 -0.3945 -0.5036
   99SAPS   C11 9884   5.996   3.771   5.977  0.1238 -0.0581  0.6755
   99SAPS  H11A 9885   5.905   3.708   5.985  0.3948 -1.1222 -2.9078
   99SAPS  H11B 9886   5.974   3.868   6.027 -2.4963  0.7036 -1.6914
   99SAPS     P 9887   6.097   3.589   6.128 -0.0781  0.0643 -0.0523
   99SAPS   O13 9888   6.008   3.484   6.065  0.2313 -0.2053 -0.4699
   99SAPS   O14 9889   6.234   3.543   6.169  0.7528 -0.0007 -0.2223
   99SAPS   O12 9890   6.114   3.711   6.031 -0.2605 -0.1934  0.1174
   99SAPS   O11 9891   6.018   3.643   6.254 -0.1948 -0.6458 -0.0112
   99SAPS    C1 9892   6.048   3.768   6.314 -0.3846 -0.4046 -0.2330
   99SAPS    HA 9893   6.152   3.797   6.287 -0.9090  0.0711 -1.8247
   99SAPS    HB 9894   5.981   3.849   6.277 -0.1368 -0.0912 -0.0004
   99SAPS    C2 9895   6.042   3.751   6.468 -0.5330  0.2398 -0.7845
   99SAPS    HS 9896   5.947   3.706   6.506  0.9109 -2.4556 -0.1012
   99SAPS   O21 9897   6.068   3.879   6.529 -0.5256  0.3138 -0.2093
   99SAPS   C21 9898   5.973   3.966   6.531  0.6633 -0.1445  0.6990
   99SAPS   O22 9899   5.857   3.946   6.495 -0.4080  0.2983 -0.4606
   99SAPS   C22 9900   6.020   4.096   6.588 -0.2939 -0.0448 -1.1338
   99SAPS   H2R 9901   6.105   4.150   6.541  2.0229 -0.5968  2.0549
   99SAPS   H2S 9902   5.935   4.167   6.587  0.0682  0.4086 -0.6476
   99SAPS    C3 9903   6.155   3.647   6.507  0.0318  0.2813 -0.1853
   99SAPS    HX 9904   6.249   3.680   6.458 -0.6370  0.2480 -1.5365
   99SAPS    HY 9905   6.132   3.547   6.464 -0.4291 -0.0125  0.7051
   99SAPS   O31 9906   6.167   3.653   6.652  0.1996 -0.3580 -0.4697
   99SAPS   C31 9907   6.131   3.548   6.719  0.6422  0.6724 -0.2162
   99SAPS   O32 9908   6.077   3.445   6.671  0.0613 -0.3306 -0.2400
   99SAPS   C32 9909   6.157   3.571   6.870 -0.1649 -0.5008  0.4086
   99SAPS   H2X 9910   6.264   3.600   6.877 -0.6914  2.0245 -0.8415
   99SAPS   H2Y 9911   6.125   3.483   6.930  0.2995 -2.2552 -1.7584
   99SAPS   C23 9912   6.063   4.091   6.738  0.0605  0.5688 -0.5484
   99SAPS   H3R 9913   6.157   4.032   6.741  0.3806  1.0902  0.7146
   99SAPS   H3S 9914   5.985   4.043   6.800  0.9428  0.2600  0.3524
   99SAPS   C24 9915   6.098   4.235   6.795  1.1407 -0.4738  0.0763
   99SAPS   H4R 9916   6.177   4.278   6.730  0.6742 -0.8177 -0.7262
   99SAPS   H4S 9917   6.140   4.226   6.897  0.8785 -2.6813  0.0316
   99SAPS   C25 9918   5.972   4.314   6.784  0.2378 -0.3426 -0.5489
   99SAPS   H5R 9919   5.935   4.337   6.683  0.6005 -1.6972 -1.0117
   99SAPS   C26 9920   5.899   4.362   6.883  0.2230  0.3343 -0.8185
   99SAPS   H6R 9921   5.809   4.415   6.851 -1.0232 -1.5383 -0.6009
   99SAPS   C27 9922   5.911   4.359   7.040  0.4561 -0.2003  0.4975
   99SAPS   H7R 9923   5.957   4.456   7.070  0.2577  0.0081  0.1296
   99SAPS   H7S 9924   5.981   4.279   7.072  0.5047  0.0843  1.1067
   99SAPS   C28 9925   5.772   4.330   7.105  0.0784  0.4073  0.0878
   99SAPS   H8R 9926   5.708   4.266   7.043  3.1855 -1.4402 -1.4650
   99SAPS   C29 9927   5.721   4.389   7.216  0.5638 -0.5067 -0.2281
   99SAPS   H9R 9928   5.622   4.360   7.255  0.5522 -1.6483 -1.0649
   99SAPS  C210 9929   5.805   4.475   7.313  0.9003 -0.0930 -0.3210
   99SAPS  H10R 9930   5.871   4.543   7.256  1.3792 -0.3145 -0.0366
   99SAPS  H10S 9931   5.880   4.409   7.362  1.4117 -0.1245 -1.1373
   99SAPS  C211 9932   5.728   4.544   7.425 -0.3159 -0.0652 -0.2709
   99SAPS  H11R 9933   5.703   4.651   7.412 -3.2207 -0.2886  2.3016
   99SAPS  C212 9934   5.685   4.487   7.537  0.1677 -0.1268 -0.3518
   99SAPS  H12R 9935   5.627   4.542   7.613  2.5112 -0.0950  1.5561
   99SAPS  C213 9936   5.708   4.350   7.577  0.2509  0.0346 -0.1644
   99SAPS  H13R 9937   5.799   4.348   7.640  0.7261 -2.1827 -0.8150
   99SAPS  H13S 9938   5.741   4.279   7.498 -0.2892 -0.3869 -0.0181
   99SAPS  C214 9939   5.592   4.295   7.657  0.6321 -0.3139 -0.5481
   99SAPS  H14R 9940   5.508   4.266   7.593  0.0285 -1.8745  0.8690
   99SAPS  C215 9941   5.578   4.291   7.792 -0.1054 -0.2136 -0.0686
   99SAPS  H15R 9942   5.492   4.245   7.842 -0.4880  0.4500 -0.1086
   99SAPS  C216 9943   5.682   4.343   7.886 -0.3470 -0.0689 -0.2804
   99SAPS  H16R 9944   5.753   4.415   7.840  0.3183  0.4693  1.4861
   99SAPS  H16S 9945   5.748   4.259   7.917 -0.8700 -0.4549 -0.1952
   99SAPS  C217 9946   5.629   4.415   8.004  0.0215 -0.2199 -0.0292
   99SAPS  H17R 9947   5.554   4.494   7.982  0.4637  0.1020 -0.3822
   99SAPS  H17S 9948   5.712   4.470   8.053 -0.9171 -0.2753  1.6990
   99SAPS  C218 9949   5.574   4.317   8.104 -0.4404 -0.4181 -0.1122
   99SAPS  H18R 9950   5.658   4.247   8.125  1.4192  1.9159  0.8055
   99SAPS  H18S 9951   5.494   4.258   8.055  1.5559 -2.4565 -1.1480
   99SAPS  C219 9952   5.531   4.384   8.239 -0.5361 -0.2171  0.0864
   99SAPS  H19R 9953   5.619   4.447   8.263  0.5716 -2.0519  1.1249
   99SAPS  H19S 9954   5.523   4.307   8.319 -2.1077  1.3979  1.5683
   99SAPS  C220 9955   5.409   4.478   8.226  0.3464  0.3521  0.1999
   99SAPS  H20R 9956   5.430   4.559   8.153 -0.8519 -0.9368 -1.6665
   99SAPS  H20S 9957   5.397   4.527   8.325 -1.1375  2.2810 -0.8545
   99SAPS  H20T 9958   5.314   4.423   8.207  0.0055  0.9365  0.1727
   99SAPS   C33 9959   6.084   3.695   6.922 -0.5146 -0.0218 -0.4269
   99SAPS   H3X 9960   5.976   3.678   6.902 -1.1193  2.1369  0.6523
   99SAPS   H3Y 9961   6.114   3.789   6.872  0.7105  0.4523  1.1187
   99SAPS   C34 9962   6.103   3.708   7.072  0.1879 -0.1799  0.4598
   99SAPS   H4X 9963   6.211   3.727   7.086 -0.2230  1.0908  2.2908
   99SAPS   H4Y 9964   6.079   3.611   7.121 -2.5676  0.1001 -0.1834
   99SAPS   C35 9965   6.011   3.816   7.130 -0.3285  1.2153 -1.0039
   99SAPS   H5X 9966   5.995   3.905   7.066  1.2017  1.4888 -1.0348
   99SAPS   H5Y 9967   6.061   3.848   7.224 -1.4525 -1.3755  0.6131
   99SAPS   C36 9968   5.884   3.755   7.172 -0.0243  0.3086 -0.3910
   99SAPS   H6X 9969   5.908   3.676   7.246 -1.8807  1.6458  1.7885
   99SAPS   H6Y 9970   5.839   3.711   7.081  0.5229 -2.5247  0.6205
   99SAPS   C37 9971   5.788   3.853   7.235 -0.4352 -0.2160  0.2762
   99SAPS   H7X 9972   5.754   3.920   7.153  0.6041  1.7742  1.4064
   99SAPS   H7Y 9973   5.841   3.909   7.314 -0.1435 -1.0204  0.6582
   99SAPS   C38 9974   5.658   3.793   7.298  0.5459  0.0491  0.1133
   99SAPS   H8X 9975   5.690   3.721   7.376  2.7621  1.4414  0.5762
   99SAPS   H8Y 9976   5.615   3.745   7.207 -0.4271 -0.7307  0.9611
   99SAPS   C39 9977   5.560   3.892   7.358 -0.2812 -0.5235  0.2842
   99SAPS   H9X 9978   5.543   3.977   7.288 -0.7232 -1.3223 -0.6119
   99SAPS   H9Y 9979   5.609   3.933   7.448 -0.1574 -3.0418  1.4548
   99SAPS  C310 9980   5.422   3.836   7.385  0.6875  0.3806  0.2074
   99SAPS  H10X 9981   5.411   3.746   7.448 -0.8785  1.3558  1.4019
   99SAPS  H10Y 9982   5.395   3.803   7.282  1.1780  1.7652 -0.3884
   99SAPS  C311 9983   5.329   3.939   7.447  0.6771  0.6934  0.5888
   99SAPS  H11X 9984   5.230   3.894   7.423  2.5016 -2.8889 -1.0037
   99SAPS  H11Y 9985   5.333   4.041   7.403 -0.5493 -0.3326 -2.1802
   99SAPS  C312 9986   5.330   3.952   7.593 -0.9647  0.1104 -0.5209
   99SAPS  H12X 9987   5.256   4.030   7.620 -1.8552 -0.9996  0.3672
   99SAPS  H12Y 9988   5.434   3.971   7.625 -1.2058  1.9948 -0.7632
   99SAPS  C313 9989   5.282   3.818   7.656  0.2865  0.2095 -0.2986
   99SAPS  H13X 9990   5.360   3.739   7.645  1.2128  1.1268 -0.3938
   99SAPS  H13Y 9991   5.193   3.785   7.599 -1.3722  0.9314  1.7658
   99SAPS  C314 9992   5.242   3.832   7.800 -0.0275 -0.1930  0.2724
   99SAPS  H14X 9993   5.227   3.730   7.843 -1.0592 -0.7327 -1.3096
   99SAPS  H14Y 9994   5.141   3.873   7.822 -0.5302 -0.3286 -1.6120
   99SAPS  C315 9995   5.328   3.918   7.888  0.6524  0.2245 -0.3638
   99SAPS  H15X 9996   5.353   4.016   7.842  0.5067 -0.3537 -1.7120
   99SAPS  H15Y 9997   5.418   3.855   7.895  0.4170 -0.1854 -0.9655
   99SAPS  C316 9998   5.268   3.944   8.030  0.0980  0.1601 -0.5713
   99SAPS  H16X 9999   5.218   3.847   8.054 -0.3523  0.5286 -0.0121
   99SAPS  H16Y10000   5.191   4.022   8.017 -2.4415 -1.7894  1.6475
   99SAPS  C31710001   5.366   3.973   8.145  0.4409  0.8034 -0.6097
   99SAPS  H17X10002   5.410   4.073   8.126  0.8909  1.5370  3.3241
   99SAPS  H17Y10003   5.444   3.894   8.152  0.1178  0.4299 -1.1587
   99SAPS  C31810004   5.289   3.986   8.278 -0.2353 -0.3597  0.2913
   99SAPS  H18X10005   5.263   3.886   8.319 -1.0361 -0.1888  0.2173
   99SAPS  H18Y10006   5.196   4.047   8.266  0.1011  0.1953  0.4716
   99SAPS  H18Z10007   5.357   4.044   8.343 -0.2328  0.9249 -0.8089
  100SAPS     N10008   1.847   4.960   6.048  0.4730  0.1590  0.5380
  100SAPS   HN110009   1.880   5.026   5.975 -1.7121 -0.3356 -0.9564
  100SAPS   HN210010   1.803   5.022   6.119 -0.2935  0.1226  0.1042
  100SAPS   HN310011   1.928   4.917   6.098  0.2829  0.2184  0.9029
  100SAPS   C1210012   1.759   4.851   6.003  0.3029  0.2746 -0.6482
  100SAPS  H12A10013   1.658   4.882   5.980  0.7170 -0.0745 -3.2627
  100SAPS   C1310014   1.796   4.771   5.881 -0.0674 -0.8386 -0.5600
  100SAPS  O13A10015   1.895   4.811   5.815 -0.3423  0.7058  0.3373
  100SAPS  O13B10016   1.706   4.705   5.833 -0.8115  0.0428  0.0582
  100SAPS   C1110017   1.756   4.752   6.125 -0.6168  0.1068  0.8814
  100SAPS  H11A10018   1.860   4.717   6.141  0.5199  2.1234 -1.3925
  100SAPS  H11B10019   1.698   4.661   6.097 -2.8428  1.4214  0.9741
  100SAPS     P10020   1.671   4.694   6.359 -0.0500  0.2431  0.1405
  100SAPS   O1310021   1.529   4.708   6.394  0.0504  0.1739  0.2717
  100SAPS   O1410022   1.722   4.560   6.312  0.2844 -0.6089  0.0557
  100SAPS   O1210023   1.700   4.807   6.251 -0.6249 -0.7292 -0.4731
  100SAPS   O1110024   1.760   4.754   6.477  0.2449 -0.4927 -0.4920
  100SAPS    C110025   1.771   4.674   6.592 -0.0438  0.3904  0.0673
  100SAPS    HA10026   1.806   4.570   6.575  0.8104  0.7719 -0.6002
  100SAPS    HB10027   1.849   4.726   6.650  0.9443 -1.6371  0.6382
  100SAPS    C210028   1.650   4.671   6.686 -0.9095  0.4939  0.4265
  100SAPS    HS10029   1.561   4.631   6.634 -1.8491  1.9938  0.8182
  100SAPS   O2110030   1.613   4.802   6.737 -0.0503  0.0811  0.6634
  100SAPS   C2110031   1.477   4.821   6.743  0.3188 -0.1601 -0.2822
  100SAPS   O2210032   1.391   4.753   6.692  0.3940 -0.1475 -0.6171
  100SAPS   C2210033   1.443   4.947   6.821  0.2899 -0.6501  0.3677
  100SAPS   H2R10034   1.538   4.988   6.861 -0.0971 -2.4614  3.5383
  100SAPS   H2S10035   1.400   5.018   6.747  0.5206 -0.6451  0.2377
  100SAPS    C310036   1.681   4.584   6.808 -0.6390 -0.1703  1.2138
  100SAPS    HX10037   1.762   4.635   6.863 -1.8112  1.6631  1.3569
  100SAPS    HY10038   1.718   4.487   6.769  1.6723  0.3653  1.9452
  100SAPS   O3110039   1.559   4.570   6.881 -0.8810  0.2484  0.0116
  100SAPS   C3110040   1.492   4.461   6.870 -0.8660  0.4300 -0.5754
  100SAPS   O3210041   1.531   4.364   6.806 -0.3204 -0.9899 -0.5708
  100SAPS   C3210042   1.354   4.479   6.935 -0.0421  0.3620 -0.6486
  100SAPS   H2X10043   1.272   4.433   6.876  0.0433  0.4819 -0.8631
  100SAPS   H2Y10044   1.341   4.589   6.948  3.2392  1.0343 -1.9706
  100SAPS   C2310045   1.350   4.934   6.942  0.1266  0.0180  0.2727
  100SAPS   H3R10046   1.289   4.842   6.930 -2.3075  1.2160  2.2737
  100SAPS   H3S10047   1.285   5.024   6.954  0.3328  0.6986 -2.8410
  100SAPS   C2410048   1.428   4.913   7.075  0.1068  0.4525  0.4183
  100SAPS   H4R10049   1.489   5.004   7.091  2.9487 -0.5375 -3.3025
  100SAPS   H4S10050   1.511   4.839   7.071  0.7925  1.2443 -0.6639
  100SAPS   C2510051   1.333   4.896   7.189 -0.7416 -0.3283  0.3456
  100SAPS   H5R10052   1.247   4.830   7.169 -0.1745 -1.7793  2.4223
  100SAPS   C2610053   1.326   4.960   7.304 -0.5635 -0.2469 -0.0550
  100SAPS   H6R10054   1.232   4.951   7.360 -0.3737  1.9128  0.7049
  100SAPS   C2710055   1.425   5.061   7.359  0.3513  0.5754  0.5026
  100SAPS   H7R10056   1.360   5.141   7.401 -2.8740 -1.1525 -0.8560
  100SAPS   H7S10057   1.477   5.108   7.272 -2.0698  1.8582 -0.3582
  100SAPS   C2810058   1.515   5.003   7.467  0.4904  0.2124 -0.0031
  100SAPS   H8R10059   1.605   4.943   7.446 -0.0091 -1.8470  3.1451
  100SAPS   C2910060   1.478   5.002   7.601 -0.1029  0.8435  0.0441
  100SAPS   H9R10061   1.543   4.952   7.674 -0.4995  1.4949  0.8691
  100SAPS  C21010062   1.347   5.048   7.661 -0.2438  0.0858 -1.0267
  100SAPS  H10R10063   1.327   4.980   7.747  1.3594 -2.9177 -2.8384
  100SAPS  H10S10064   1.266   5.020   7.591 -0.7610 -2.2048  0.3662
  100SAPS  C21110065   1.359   5.199   7.681 -0.2313  0.2849 -0.1637
  100SAPS  H11R10066   1.363   5.261   7.590  1.5873  0.5177  0.0227
  100SAPS  C21210067   1.393   5.266   7.796 -1.0184  0.7802 -0.1948
  100SAPS  H12R10068   1.403   5.375   7.787  0.7171  0.6341 -0.3566
  100SAPS  C21310069   1.422   5.224   7.942 -0.1772 -0.6775 -1.1012
  100SAPS  H13R10070   1.515   5.275   7.973  0.0608 -1.0737 -1.1492
  100SAPS  H13S10071   1.434   5.113   7.941 -1.1030 -0.7828 -0.9563
  100SAPS  C21410072   1.317   5.255   8.042  1.0097 -0.5833 -0.2543
  100SAPS  H14R10073   1.239   5.329   8.015 -0.4811 -2.0764 -0.1759
  100SAPS  C21510074   1.268   5.181   8.139  0.2617  0.8904 -0.5699
  100SAPS  H15R10075   1.192   5.221   8.208  0.7688 -0.9901  1.1845
  100SAPS  C21610076   1.333   5.051   8.187  0.1849  0.2032  0.2368
  100SAPS  H16R10077   1.366   4.993   8.098 -1.1483  0.4104 -0.4113
  100SAPS  H16S10078   1.252   4.980   8.214  0.0958 -0.8349 -2.4750
  100SAPS  C21710079   1.444   5.062   8.301  0.2993  0.1707  0.0616
  100SAPS  H17R10080   1.462   4.954   8.319  0.7354 -0.1534 -2.0241
  100SAPS  H17S10081   1.403   5.112   8.391 -0.8447 -0.7041  0.0499
  100SAPS  C21810082   1.577   5.131   8.254 -0.0032  0.4434  0.4989
  100SAPS  H18R10083   1.565   5.241   8.259  2.0348  0.7007  0.7356
  100SAPS  H18S10084   1.607   5.108   8.150 -0.2891 -2.9032  1.0476
  100SAPS  C21910085   1.703   5.092   8.331  0.4964  0.2257  0.5647
  100SAPS  H19R10086   1.699   4.983   8.352 -2.4643  0.4233  1.4557
  100SAPS  H19S10087   1.700   5.138   8.433 -0.2224  1.6479 -0.0661
  100SAPS  C22010088   1.839   5.128   8.261 -0.3367  0.2839 -0.7233
  100SAPS  H20R10089   1.839   5.085   8.159  3.5272  1.1716 -1.2673
  100SAPS  H20S10090   1.919   5.083   8.324 -0.8614  0.5769  0.1547
  100SAPS  H20T10091   1.844   5.239   8.253 -0.1920  0.2325 -1.4609
  100SAPS   C3310092   1.353   4.415   7.079 -0.0328 -0.0479 -0.2417
  100SAPS   H3X10093   1.389   4.311   7.069  1.4602 -0.2874  4.8988
  100SAPS   H3Y10094   1.246   4.408   7.109 -0.2603 -3.2145 -1.4729
  100SAPS   C3410095   1.429   4.501   7.185 -0.6286  0.4678 -0.0814
  100SAPS   H4X10096   1.382   4.601   7.180 -5.3778 -1.4677  0.3905
  100SAPS   H4Y10097   1.537   4.498   7.160 -0.5611 -2.7025  0.1408
  100SAPS   C3510098   1.415   4.447   7.332  0.1423  0.4073 -0.6102
  100SAPS   H5X10099   1.486   4.363   7.344  1.5448  1.8440  2.4905
  100SAPS   H5Y10100   1.306   4.424   7.335  0.2868 -0.1763  0.4667
  100SAPS   C3610101   1.443   4.542   7.452  0.3160  0.1313 -0.2050
  100SAPS   H6X10102   1.369   4.625   7.453  0.5617  0.3698  1.8103
  100SAPS   H6Y10103   1.548   4.577   7.444  0.7084 -1.1136 -0.7118
  100SAPS   C3710104   1.430   4.473   7.590  0.0477 -0.4177  0.4296
  100SAPS   H7X10105   1.454   4.546   7.671 -3.7376 -0.9733  2.2817
  100SAPS   H7Y10106   1.511   4.396   7.591 -0.1811 -0.6606  0.3596
  100SAPS   C3810107   1.293   4.411   7.626  0.0946  0.0259  0.6032
  100SAPS   H8X10108   1.274   4.337   7.545  0.9958  0.1162  0.2975
  100SAPS   H8Y10109   1.219   4.494   7.615  1.3351  0.9862 -0.8074
  100SAPS   C3910110   1.290   4.350   7.761  0.2529  0.6316  0.3351
  100SAPS   H9X10111   1.301   4.433   7.835  0.0818 -0.4555  1.6101
  100SAPS   H9Y10112   1.371   4.276   7.776  2.1263  2.3412 -0.7112
  100SAPS  C31010113   1.155   4.278   7.788 -0.4640  0.5784  0.5163
  100SAPS  H10X10114   1.136   4.218   7.697 -2.0304  0.8587  0.6384
  100SAPS  H10Y10115   1.085   4.363   7.803 -1.3518 -0.0938  0.2522
  100SAPS  C31110116   1.165   4.191   7.918  0.0957  0.1251  0.4147
  100SAPS  H11X10117   1.211   4.093   7.893 -1.0423 -1.6874  4.6240
  100SAPS  H11Y10118   1.061   4.174   7.955 -0.5356 -1.1698 -1.7359
  100SAPS  C31210119   1.241   4.247   8.034 -0.5480 -0.4823 -0.4911
  100SAPS  H12X10120   1.221   4.355   8.050 -1.3542 -0.7264  0.2431
  100SAPS  H12Y10121   1.349   4.224   8.024 -0.2569  0.7110 -0.1914
  100SAPS  C31310122   1.209   4.178   8.172  0.3233  0.4134  0.8811
  100SAPS  H13X10123   1.285   4.190   8.251  1.7195 -0.0145 -0.3498
  100SAPS  H13Y10124   1.200   4.067   8.165  0.8243  0.4476 -0.8186
  100SAPS  C31410125   1.083   4.228   8.234  0.4084 -0.6812 -0.3674
  100SAPS  H14X10126   0.995   4.174   8.194 -0.6148  0.5211  0.2031
  100SAPS  H14Y10127   1.071   4.336   8.209 -0.2578 -0.7665 -0.4240
  100SAPS  C31510128   1.091   4.228   8.387 -0.8240 -0.4598 -0.1540
  100SAPS  H15X10129   1.181   4.289   8.408 -1.4957  0.1293  1.1416
  100SAPS  H15Y10130   1.103   4.125   8.427 -0.2791 -0.5186 -0.4596
  100SAPS  C31610131   0.970   4.286   8.461 -0.3254 -0.1125  0.0764
  100SAPS  H16X10132   0.944   4.385   8.417 -0.0504 -0.2327 -0.3667
  100SAPS  H16Y10133   0.996   4.300   8.568 -0.8105 -2.6022  0.5791
  100SAPS  C31710134   0.845   4.193   8.449 -0.4836  0.0244 -0.0405
  100SAPS  H17X10135   0.872   4.101   8.506  2.0267  0.7220 -0.0089
  100SAPS  H17Y10136   0.833   4.165   8.342 -0.0717 -0.9760  0.1553
  100SAPS  C31810137   0.707   4.231   8.507  0.2045 -0.1717 -0.6377
  100SAPS  H18X10138   0.695   4.203   8.614 -2.4063 -0.9540 -1.0702
  100SAPS  H18Y10139   0.614   4.198   8.456 -0.8013  1.1764  0.2517
  100SAPS  H18Z10140   0.702   4.342   8.509  2.5356 -0.0196  1.2951
  101OSM      N10141   1.150   5.961  10.799  0.2396 -0.1447 -0.1876
  101OSM    C1510142   1.171   5.908  10.661 -1.2922 -0.5299  1.0351
  101OSM   H15A10143   1.076   5.904  10.610 -0.6528  2.2792 -0.5643
  101OSM   H15B10144   1.230   5.818  10.663  0.3893  0.3628 -2.1126
  101OSM   H15C10145   1.222   5.982  10.601 -0.0045 -2.2532 -0.0946
  101OSM    C1410146   1.036   5.872  10.864 -0.0024 -0.6397  0.3400
  101OSM   H14A10147   0.951   5.886  10.798  0.1478 -0.1979  0.2367
  101OSM   H14B10148   1.030   5.922  10.959 -0.0554 -0.2866  0.1553
  101OSM   H14C10149   1.061   5.768  10.876 -0.8488 -0.7724  1.0549
  101OSM    C1310150   1.272   5.946  10.876 -0.1382 -0.0913  0.3740
  101OSM   H13A10151   1.312   5.846  10.872  0.3670  0.1446 -1.0475
  101OSM   H13B10152   1.257   5.959  10.982 -2.4057  1.0013 -0.0155
  101OSM   H13C10153   1.349   6.015  10.843 -1.2461  1.8219  1.5981
  101OSM    C1210154   1.092   6.108  10.797  0.1205 -0.0381  0.1860
  101OSM   H12A10155   1.058   6.138  10.895  2.1207  0.3892  0.8064
  101OSM   H12B10156   1.012   6.105  10.725  1.4365  0.9711 -1.3651
  101OSM    C1110157   1.181   6.225  10.744  0.0769 -0.3329  0.0134
  101OSM   H11A10158   1.121   6.318  10.749  2.5556  1.4489 -1.1731
  101OSM   H11B10159   1.210   6.217  10.637 -0.6705  1.4621 -0.3513
  101OSM      P10160   1.278   6.338  10.950 -0.4659 -0.3122  0.1993
  101OSM    O1310161   1.148   6.311  11.012 -0.1066  0.1268  0.2015
  101OSM    O1410162   1.396   6.324  11.043  0.1901 -0.0598 -0.4347
  101OSM    O1110163   1.284   6.481  10.899 -0.0323  0.0515 -0.2737
  101OSM    O1210164   1.297   6.242  10.826 -0.4191  0.0376  0.4322
  101OSM    C1S10165   1.403   6.527  10.839 -0.2906 -0.9056 -0.4713
  101OSM    H1S10166   1.489   6.469  10.880 -0.2778 -1.2665 -0.9917
  101OSM    H1T10167   1.414   6.635  10.862  0.4512 -1.0569 -0.0700
  101OSM     NF10168   1.538   6.533  10.630 -0.0731 -0.3184  0.5860
  101OSM    HNF10169   1.540   6.625  10.591 -1.2438  0.4545  2.2308
  101OSM    C2S10170   1.402   6.510  10.682  0.2436  0.1641  0.3782
  101OSM    H2S10171   1.381   6.403  10.660  0.1823  0.1569  0.4713
  101OSM    C3S10172   1.292   6.595  10.606 -0.2019 -0.5680  0.5743
  101OSM    H3S10173   1.334   6.698  10.610  0.0956 -0.6362 -0.5253
  101OSM     O310174   1.163   6.592  10.661 -0.0040  0.4044 -0.1275
  101OSM    HO310175   1.161   6.540  10.742 -4.6068 -0.7925 -0.7498
  101OSM    C4S10176   1.290   6.564  10.454  0.9496  1.1124 -0.1708
  101OSM    H4S10177   1.370   6.615  10.398 -1.0760  2.7706 -1.7303
  101OSM    C5S10178   1.206   6.476  10.386 -0.3497  0.4863 -0.2449
  101OSM    H5S10179   1.134   6.408  10.434 -1.7936  1.0243 -1.5674
  101OSM    C6S10180   1.199   6.448  10.242  0.0192 -0.2470 -0.3502
  101OSM    H6S10181   1.091   6.459  10.218 -1.7406 -3.1283  4.6266
  101OSM    H6T10182   1.226   6.344  10.213  0.4072  0.2734 -1.9361
  101OSM    C7S10183   1.287   6.530  10.146  0.1509 -0.9548 -1.1057
  101OSM    H7S10184   1.392   6.523  10.181 -0.2727  0.9225  0.7668
  101OSM    H7T10185   1.253   6.636  10.155  0.4431 -0.7155 -2.4969
  101OSM    C8S10186   1.283   6.486   9.996  0.0198  0.5776 -0.0918
  101OSM    H8S10187   1.177   6.473   9.967 -0.2567  1.8696  0.2700
  101OSM    H8T10188   1.341   6.391   9.988 -0.9998 -0.3016  2.1671
  101OSM    C9S10189   1.355   6.585   9.900 -0.1312  0.7540  0.3853
  101OSM    H9S10190   1.464   6.592   9.922  0.1436 -2.6118  0.5571
  101OSM    H9T10191   1.323   6.689   9.923  1.6405  1.2413  0.8202
  101OSM   C10S10192   1.328   6.552   9.751  0.1347  0.0689  0.0600
  101OSM   H10S10193   1.221   6.574   9.732 -0.0453  0.5959  1.5756
  101OSM   H10T10194   1.345   6.445   9.724  0.8633  0.1843  0.0253
  101OSM   C11S10195   1.405   6.644   9.662  0.3020  0.1710  0.7635
  101OSM   H11S10196   1.514   6.625   9.670  0.5698  2.0258  1.9117
  101OSM   H11T10197   1.392   6.752   9.683 -0.6798  0.2512 -0.1712
  101OSM   C12S10198   1.373   6.622   9.505  0.2970  0.0258 -0.5619
  101OSM   H12S10199   1.402   6.719   9.459  0.0350  0.6986  0.6441
  101OSM   H12T10200   1.262   6.617   9.499  0.1943  1.6133 -0.4535
  101OSM   C13S10201   1.427   6.494   9.446  0.4379 -0.0482 -0.0010
  101OSM   H13S10202   1.386   6.406   9.499  0.0484 -0.2371 -0.6092
  101OSM   H13T10203   1.538   6.481   9.452  0.3485 -0.8528  0.0028
  101OSM   C14S10204   1.386   6.492   9.294 -0.2068 -0.0070  0.5387
  101OSM   H14S10205   1.409   6.588   9.243 -4.0718 -0.1183 -1.7627
  101OSM   H14T10206   1.275   6.497   9.290 -0.2061 -0.4939 -0.0763
  101OSM   C15S10207   1.449   6.372   9.209 -0.1792  0.6842 -0.6877
  101OSM   H15S10208   1.442   6.282   9.275  1.7011 -1.5141 -3.2495
  101OSM   H15T10209   1.556   6.401   9.197  0.1921  0.0041  0.7146
  101OSM   C16S10210   1.379   6.347   9.075  1.2021 -0.3120  0.6951
  101OSM   H16S10211   1.272   6.328   9.101  1.4752 -0.0381  2.1252
  101OSM   H16T10212   1.420   6.254   9.030  2.7118  0.2040  0.9410
  101OSM   C17S10213   1.368   6.468   8.976  0.3260  0.1502  0.0337
  101OSM   H17S10214   1.469   6.486   8.933  0.0899  2.0088  0.1671
  101OSM   H17T10215   1.327   6.553   9.034 -1.3234 -1.3054  1.0882
  101OSM   C18S10216   1.288   6.433   8.854  0.0539 -0.1561  0.0052
  101OSM   H18S10217   1.182   6.418   8.884  0.4679 -0.2086  1.4892
  101OSM   H18T10218   1.324   6.334   8.818  0.2824  0.3036 -1.0779
  101OSM   H18U10219   1.293   6.517   8.781  1.1230  0.3307  0.6259
  101OSM    C1F10220   1.651   6.468  10.651 -0.5481  0.1569 -0.9222
  101OSM     OF10221   1.656   6.359  10.704  0.1293  0.0015  0.0033
  101OSM    C2F10222   1.778   6.534  10.604  0.0594  0.3023  0.0345
  101OSM    H2F10223   1.818   6.588  10.692 -1.8208  1.0630  0.4756
  101OSM    H2G10224   1.741   6.608  10.530 -1.0599  0.8684  1.1081
  101OSM    C3F10225   1.888   6.433  10.555  0.1498 -0.0164 -0.4107
  101OSM    H3F10226   1.922   6.369  10.640  1.0370 -0.3455 -0.9977
  101OSM    H3G10227   1.983   6.489  10.541  0.6392 -0.3352  1.4208
  101OSM    C4F10228   1.856   6.341  10.434 -0.1790  0.0301 -0.9226
  101OSM    H4F10229   1.845   6.410  10.347 -0.1602  2.9530  1.2576
  101OSM    H4G10230   1.763   6.287  10.461  1.2694 -1.5442  1.2383
  101OSM    C5F10231   1.969   6.237  10.417 -0.1861 -0.4198  1.4558
  101OSM    H5F10232   1.988   6.200  10.519  0.6083  0.3965  1.6236
  101OSM    H5G10233   2.052   6.308  10.396 -0.2947 -0.1815  1.8209
  101OSM    C6F10234   1.934   6.141  10.306  0.9005  0.2020 -0.1838
  101OSM    H6F10235   1.875   6.178  10.220  0.1812 -1.3781 -0.3988
  101OSM    H6G10236   1.872   6.058  10.345 -0.8776  1.6344  0.1867
  101OSM    C7F10237   2.063   6.086  10.237  0.0137 -0.8184  0.0742
  101OSM    H7F10238   2.124   6.045  10.321 -0.1175 -0.8207  0.1702
  101OSM    H7G10239   2.116   6.171  10.190  0.5435 -1.7811 -1.1314
  101OSM    C8F10240   2.026   5.985  10.136 -0.4096 -0.5910  0.0146
  101OSM    H8F10241   1.948   6.019  10.064  0.9468  0.8970 -0.8178
  101OSM    H8G10242   1.976   5.905  10.195 -0.8012 -1.0121 -0.8660
  101OSM    C9F10243   2.146   5.927  10.063 -0.7117 -0.6389  0.1628
  101OSM    H9F10244   2.187   5.833  10.101  2.8340 -0.1601 -1.9854
  101OSM   C10F10245   2.211   5.978   9.955 -0.1628  0.2742 -0.0790
  101OSM   H10F10246   2.282   5.917   9.899 -0.8239  0.6743 -1.4010
  101OSM   C11F10247   2.176   6.106   9.894  1.2454  0.0364 -0.6152
  101OSM   H11F10248   2.267   6.165   9.871  0.2141  1.6588 -0.6211
  101OSM   H11G10249   2.113   6.172   9.957 -2.4713 -1.6858 -2.2255
  101OSM   C12F10250   2.095   6.100   9.767  0.4752  0.4763  0.4846
  101OSM   H12F10251   2.084   6.200   9.720  0.9412  0.3073  0.0003
  101OSM   H12G10252   1.996   6.054   9.788 -0.0273  0.3326 -1.8897
  101OSM   C13F10253   2.165   6.018   9.655  0.4591 -0.6630 -0.8179
  101OSM   H13F10254   2.192   5.916   9.692 -0.0096  0.5479  3.4528
  101OSM   H13G10255   2.259   6.066   9.623 -0.3150  1.4715 -0.0753
  101OSM   C14F10256   2.073   6.005   9.534  0.1874  0.6887 -0.2242
  101OSM   H14F10257   2.043   6.106   9.499 -0.2887  0.6529  0.0831
  101OSM   H14G10258   1.983   5.949   9.566  0.6540  0.8369  1.4289
  101OSM   C15F10259   2.136   5.935   9.417  0.2592 -0.1703  0.3640
  101OSM   H15F10260   2.182   5.836   9.438 -0.1563 -0.4540 -0.0388
  101OSM   H15G10261   2.222   5.992   9.375  1.4543 -2.9142 -1.2158
  101OSM   C16F10262   2.041   5.908   9.300 -0.2305  0.0881 -0.5504
  101OSM   H16F10263   1.994   6.005   9.272 -0.4122  0.1578 -0.0200
  101OSM   H16G10264   1.959   5.841   9.333 -0.8319  0.9234 -0.3193
  101OSM   C17F10265   2.122   5.833   9.195 -0.0829  0.6343 -0.0672
  101OSM   H17F10266   2.215   5.785   9.235 -0.2981 -1.3870 -1.8163
  101OSM   H17G10267   2.154   5.899   9.112 -0.1257  0.2337 -0.4033
  101OSM   C18F10268   2.034   5.724   9.137 -0.3562  0.5796 -0.4017
  101OSM   H18F10269   2.084   5.657   9.063 -2.2823 -1.7293  0.2362
  101OSM   H18G10270   1.943   5.770   9.094 -0.6967 -0.6343 -1.0251
  101OSM   H18H10271   2.004   5.663   9.226  0.9157  1.0490  0.3754
  102OSM      N10272   0.843   4.818  11.077  0.0729  0.5959  0.4311
  102OSM    C1510273   0.922   4.695  11.131  0.5562 -0.0408 -0.1980
  102OSM   H15A10274   1.020   4.706  11.087  0.7083 -1.2908 -0.1930
  102OSM   H15B10275   0.873   4.602  11.108  0.6231 -0.4566  1.2477
  102OSM   H15C10276   0.933   4.695  11.239 -0.9790  0.7840 -0.0027
  102OSM    C1410277   0.830   4.820  10.937 -0.4378  0.4334  0.4236
  102OSM   H14A10278   0.927   4.835  10.892 -0.9425 -1.6152 -1.5096
  102OSM   H14B10279   0.768   4.901  10.901  2.1159  2.4239  0.1848
  102OSM   H14C10280   0.787   4.729  10.898 -0.4282  0.2068  0.9290
  102OSM    C1310281   0.702   4.802  11.132 -0.5092  0.2222 -0.6858
  102OSM   H13A10282   0.706   4.789  11.239 -0.8494 -3.0092 -0.9817
  102OSM   H13B10283   0.651   4.716  11.091  0.2696  0.3601 -1.9836
  102OSM   H13C10284   0.634   4.882  11.108 -0.3271  0.2159 -1.2321
  102OSM    C1210285   0.913   4.937  11.121 -0.7388  0.2835 -0.4381
  102OSM   H12A10286   0.924   4.925  11.228 -1.6652 -3.2924 -0.6109
  102OSM   H12B10287   0.860   5.029  11.102 -0.2974  0.8846  1.1446
  102OSM    C1110288   1.052   4.969  11.056  0.1749  0.2126 -0.6991
  102OSM   H11A10289   1.114   4.877  11.058 -1.2786 -0.8206 -0.9817
  102OSM   H11B10290   1.100   5.042  11.124  0.5315 -2.8913  2.6873
  102OSM      P10291   1.008   5.173  10.901  0.2409 -0.3915  0.0884
  102OSM    O1310292   0.861   5.187  10.909  0.1250  0.6242  0.0287
  102OSM    O1410293   1.090   5.259  10.989 -0.1686  0.3633 -0.2283
  102OSM    O1110294   1.061   5.201  10.754 -0.4599  0.0998  0.4380
  102OSM    O1210295   1.039   5.022  10.925  0.0474 -0.0904 -0.4845
  102OSM    C1S10296   0.998   5.138  10.639  0.8881  0.9054  0.1089
  102OSM    H1S10297   0.890   5.162  10.629  0.6323 -0.3898 -0.4226
  102OSM    H1T10298   0.997   5.030  10.666  2.5322  1.1791  1.3888
  102OSM     NF10299   1.034   5.089  10.386 -0.1180  0.1211  0.4780
  102OSM    HNF10300   1.078   5.006  10.353 -1.7554  0.0432 -1.7950
  102OSM    C2S10301   1.084   5.152  10.507  0.5105 -0.5902  0.1956
  102OSM    H2S10302   1.092   5.261  10.484  1.2627 -0.7674 -0.3858
  102OSM    C3S10303   1.238   5.111  10.530  0.1726  0.0495 -0.4436
  102OSM    H3S10304   1.240   5.000  10.539  0.9325 -0.1141 -2.3086
  102OSM     O310305   1.301   5.174  10.640 -0.3057 -0.2767  0.0882
  102OSM    HO310306   1.231   5.202  10.700  0.4339  0.1502  0.7678
  102OSM    C4S10307   1.314   5.140  10.405 -0.0273  0.4173  0.0379
  102OSM    H4S10308   1.299   5.061  10.329  0.0602  0.8868 -0.4740
  102OSM    C5S10309   1.407   5.237  10.372 -0.6457 -0.1073 -0.7736
  102OSM    H5S10310   1.441   5.308  10.449 -0.3903 -0.8632 -0.1727
  102OSM    C6S10311   1.488   5.258  10.249  0.0379 -0.2050 -0.1917
  102OSM    H6S10312   1.595   5.240  10.272  0.1115  1.4927  0.9383
  102OSM    H6T10313   1.482   5.364  10.217 -1.9760  0.1197  1.1020
  102OSM    C7S10314   1.464   5.172  10.123  0.4174  0.4463 -0.3888
  102OSM    H7S10315   1.364   5.201  10.084  1.1048  3.0649 -0.4114
  102OSM    H7T10316   1.465   5.062  10.142  0.6789 -0.0743 -3.0384
  102OSM    C8S10317   1.573   5.207  10.022 -0.7077 -0.6786 -0.6239
  102OSM    H8S10318   1.671   5.160  10.046 -0.2312  0.1197 -0.9664
  102OSM    H8T10319   1.588   5.317  10.022  1.3719 -0.9136 -0.3979
  102OSM    C9S10320   1.553   5.171   9.875  1.1656  0.2839 -0.4495
  102OSM    H9S10321   1.589   5.067   9.862  1.8346  0.7676 -3.0383
  102OSM    H9T10322   1.621   5.228   9.808  1.7331  0.3425  0.1772
  102OSM   C10S10323   1.413   5.205   9.819  0.2113 -0.2130 -0.5434
  102OSM   H10S10324   1.372   5.289   9.880 -2.0802 -0.6289 -1.4175
  102OSM   H10T10325   1.346   5.122   9.849  0.0957  0.3633  0.8592
  102OSM   C11S10326   1.393   5.242   9.672 -0.0497  0.3622 -1.0140
  102OSM   H11S10327   1.376   5.144   9.623 -0.8356  0.5322 -1.0995
  102OSM   H11T10328   1.487   5.292   9.640  2.1843 -0.9920  2.7646
  102OSM   C12S10329   1.267   5.335   9.658 -0.4678 -0.0751  0.5562
  102OSM   H12S10330   1.281   5.431   9.713 -0.1037  0.7071 -0.8583
  102OSM   H12T10331   1.179   5.280   9.697  0.0557 -1.2574  0.1014
  102OSM   C13S10332   1.236   5.358   9.510  1.0808  0.9673  0.4430
  102OSM   H13S10333   1.329   5.390   9.457  1.1103  1.0426  0.5385
  102OSM   H13T10334   1.160   5.439   9.507  0.9670  0.9536  2.0834
  102OSM   C14S10335   1.170   5.234   9.449  0.0095 -0.1530  0.3902
  102OSM   H14S10336   1.077   5.210   9.504 -0.2204  3.2942  1.7388
  102OSM   H14T10337   1.244   5.151   9.443  1.1497  0.8579 -0.1308
  102OSM   C15S10338   1.125   5.258   9.308  0.7396  0.5177 -0.8724
  102OSM   H15S10339   1.073   5.357   9.305  2.4606  1.4830 -0.3417
  102OSM   H15T10340   1.051   5.179   9.284  0.1053  1.3675 -1.8522
  102OSM   C16S10341   1.241   5.248   9.208  0.0970 -0.1180 -0.0018
  102OSM   H16S10342   1.282   5.148   9.233  0.9409  0.9658  3.5321
  102OSM   H16T10343   1.328   5.314   9.230 -0.4292  0.6067 -0.0638
  102OSM   C17S10344   1.205   5.263   9.057  0.6988  0.0853  0.4344
  102OSM   H17S10345   1.149   5.358   9.046  3.1025  1.7787  1.8785
  102OSM   H17T10346   1.135   5.183   9.023  0.2138  0.5739  0.2781
  102OSM   C18S10347   1.323   5.263   8.964 -0.3382 -0.5701 -0.1604
  102OSM   H18S10348   1.393   5.180   8.985  2.5013  1.8047  0.4686
  102OSM   H18T10349   1.387   5.353   8.975 -0.2499 -0.7392  0.8326
  102OSM   H18U10350   1.280   5.258   8.862  3.3194  0.1543 -1.8853
  102OSM    C1F10351   0.916   5.127  10.341  0.2740 -0.8355  0.0572
  102OSM     OF10352   0.872   5.232  10.376 -0.1444 -0.6657  0.1279
  102OSM    C2F10353   0.857   5.042  10.236  0.3635  0.2181  0.1243
  102OSM    H2F10354   0.759   5.001  10.266  0.2951 -0.5349 -1.0733
  102OSM    H2G10355   0.925   4.955  10.225  1.4833  0.8365  1.7102
  102OSM    C3F10356   0.849   5.105  10.092  0.8090 -0.6411 -1.1557
  102OSM    H3F10357   0.788   5.198  10.100  0.3126 -0.9858 -0.9310
  102OSM    H3G10358   0.798   5.034  10.024  0.9132 -1.6228 -0.2236
  102OSM    C4F10359   0.982   5.141  10.030 -0.2366  0.0048  0.1283
  102OSM    H4F10360   1.050   5.053  10.026 -0.4079 -0.1020 -0.6219
  102OSM    H4G10361   1.038   5.202  10.105  1.9420 -1.7450  0.0494
  102OSM    C5F10362   0.977   5.222   9.905 -0.6334 -0.2065  0.6225
  102OSM    H5F10363   1.083   5.226   9.873 -0.0759 -3.2383  1.7848
  102OSM    H5G10364   0.945   5.327   9.924  2.8540  1.9749 -3.7172
  102OSM    C6F10365   0.894   5.169   9.790 -0.0503 -0.1110 -0.2589
  102OSM    H6F10366   0.892   5.237   9.703 -1.1680 -2.1422 -1.9028
  102OSM    H6G10367   0.789   5.154   9.820 -0.1315  2.8036  1.2987
  102OSM    C7F10368   0.944   5.041   9.728  0.0460 -0.2803 -0.0839
  102OSM    H7F10369   0.938   4.959   9.804 -1.1795 -2.4184 -2.3470
  102OSM    H7G10370   1.051   5.061   9.704  0.3912 -1.4719  0.3712
  102OSM    C8F10371   0.873   5.003   9.600 -0.6329  0.1538 -0.1380
  102OSM    H8F10372   0.894   5.070   9.514 -1.3396 -2.0374 -2.1068
  102OSM    H8G10373   0.766   5.014   9.631 -0.9354  1.1521 -1.4629
  102OSM    C9F10374   0.899   4.859   9.557  0.2987  0.0146  0.2762
  102OSM    H9F10375   0.941   4.787   9.629 -0.5333 -0.2165  0.5303
  102OSM   C10F10376   0.887   4.810   9.432  0.7399  0.5359  0.4833
  102OSM   H10F10377   0.902   4.702   9.426 -0.9156  0.3704 -2.7325
  102OSM   C11F10378   0.847   4.885   9.305 -0.4329 -0.1570 -0.1350
  102OSM   H11F10379   0.822   4.986   9.344 -0.9868 -0.5813  0.6450
  102OSM   H11G10380   0.758   4.833   9.265  0.8519 -0.2212 -3.1979
  102OSM   C12F10381   0.948   4.894   9.194 -0.0761 -0.1493 -0.3587
  102OSM   H12F10382   1.044   4.928   9.238  0.5728 -0.6934 -1.3026
  102OSM   H12G10383   0.917   4.971   9.119 -1.4359 -0.8450 -0.5407
  102OSM   C13F10384   0.977   4.764   9.112  0.0681 -0.0144 -0.4256
  102OSM   H13F10385   0.889   4.738   9.050  0.2697  1.4712 -1.3699
  102OSM   H13G10386   1.008   4.683   9.181 -0.2499  0.9336  0.8724
  102OSM   C14F10387   1.095   4.786   9.015 -0.3731  0.3294  0.3630
  102OSM   H14F10388   1.065   4.881   8.967 -3.0551 -0.7000 -0.1974
  102OSM   H14G10389   1.079   4.711   8.935  0.9119  0.1482  0.2662
  102OSM   C15F10390   1.238   4.791   9.066  0.1889  0.2331 -0.3724
  102OSM   H15F10391   1.253   4.695   9.121  0.2901  1.8584  2.6734
  102OSM   H15G10392   1.250   4.882   9.128 -0.5907 -0.7026  1.2381
  102OSM   C16F10393   1.339   4.798   8.958 -0.8612 -0.0807 -0.2025
  102OSM   H16F10394   1.324   4.899   8.915 -0.0188  1.1011  2.1088
  102OSM   H16G10395   1.316   4.730   8.873 -1.6311  0.8954 -0.8057
  102OSM   C17F10396   1.489   4.787   8.990  0.2508  0.2536  0.3768
  102OSM   H17F10397   1.541   4.753   8.898  0.2192  0.6064  0.2277
  102OSM   H17G10398   1.498   4.708   9.067 -0.9638 -1.4978 -1.1954
  102OSM   C18F10399   1.557   4.916   9.031  0.1813 -0.0347 -0.0295
  102OSM   H18F10400   1.545   4.991   8.950 -1.2473  0.4475  0.5964
  102OSM   H18G10401   1.662   4.890   9.057  0.4423  0.0075 -0.9964
  102OSM   H18H10402   1.516   4.959   9.126 -0.6895  0.8347 -0.7758
  103OSM      N10403   4.620   6.251  11.161 -0.4950  0.1920 -0.0835
  103OSM    C1510404   4.723   6.354  11.194 -0.0488  0.9562 -0.3571
  103OSM   H15A10405   4.815   6.340  11.140 -0.9267 -2.4533 -1.2258
  103OSM   H15B10406   4.746   6.350  11.299 -0.0256 -0.5756 -0.4115
  103OSM   H15C10407   4.675   6.450  11.177 -0.7835  0.9113  1.2941
  103OSM    C1410408   4.496   6.265  11.232  0.1641 -0.2106  0.5156
  103OSM   H14A10409   4.455   6.361  11.204  0.2378  0.5299  2.7394
  103OSM   H14B10410   4.506   6.256  11.339  2.7160 -1.6323  0.2486
  103OSM   H14C10411   4.431   6.187  11.197 -3.4670  3.4940 -1.8155
  103OSM    C1310412   4.576   6.253  11.011 -0.1405  0.5911 -0.2126
  103OSM   H13A10413   4.498   6.184  10.982 -0.7008  1.1982 -0.1630
  103OSM   H13B10414   4.661   6.222  10.952 -0.5961 -1.3227  0.0663
  103OSM   H13C10415   4.561   6.352  10.972  0.4957  0.1513 -1.6348
  103OSM    C1210416   4.677   6.111  11.198  0.1793  0.1694  0.5124
  103OSM   H12A10417   4.701   6.105  11.303 -0.7170 -2.0700  0.6512
  103OSM   H12B10418   4.768   6.107  11.140  0.3180  0.6297  0.6963
  103OSM    C1110419   4.589   5.991  11.171 -0.5696 -0.3717 -0.8482
  103OSM   H11A10420   4.640   5.896  11.198 -1.7668 -0.4409  1.4523
  103OSM   H11B10421   4.572   5.985  11.062 -1.1684 -0.9707 -0.7263
  103OSM      P10422   4.369   5.874  11.206  0.3925 -0.1938 -0.1380
  103OSM    O1310423   4.436   5.743  11.218 -0.3338  0.0499  0.1335
  103OSM    O1410424   4.242   5.899  11.286  0.0283 -0.2422 -0.3708
  103OSM    O1110425   4.327   5.899  11.058  0.0149 -0.2302  0.0570
  103OSM    O1210426   4.466   5.991  11.240 -0.1582 -0.0929 -0.0310
  103OSM    C1S10427   4.258   6.021  11.012 -0.1767  0.4617  0.4918
  103OSM    H1S10428   4.334   6.100  10.993  1.2982 -0.7970  0.9419
  103OSM    H1T10429   4.193   6.075  11.085  0.0730  1.6649 -0.1594
  103OSM     NF10430   4.146   6.124  10.816  0.1067  0.5489  0.2761
  103OSM    HNF10431   4.051   6.147  10.798 -0.0265  0.0254  0.2782
  103OSM    C2S10432   4.175   5.997  10.878 -0.0998 -0.1124  0.7633
  103OSM    H2S10433   4.246   5.942  10.812 -1.6005 -1.3447  0.1076
  103OSM    C3S10434   4.055   5.900  10.912 -0.2376 -0.0639 -0.6231
  103OSM    H3S10435   3.998   5.963  10.984 -0.8412  0.3769 -1.4645
  103OSM     O310436   4.099   5.776  10.972 -0.2573  0.1032 -0.1406
  103OSM    HO310437   4.193   5.791  10.987  0.5987 -2.5663 -2.1887
  103OSM    C4S10438   3.973   5.885  10.795 -0.4445 -0.0554  0.1397
  103OSM    H4S10439   3.865   5.901  10.809 -0.7820  0.5588 -2.5454
  103OSM    C5S10440   4.020   5.824  10.679 -0.7315 -0.0037  0.4225
  103OSM    H5S10441   4.127   5.802  10.674 -0.8576 -0.3924 -1.0092
  103OSM    C6S10442   3.948   5.799  10.552  0.4139  0.3930  0.2415
  103OSM    H6S10443   3.840   5.822  10.548 -0.3830 -3.0608 -1.5695
  103OSM    H6T10444   3.944   5.690  10.535 -3.4001  0.5749 -0.9772
  103OSM    C7S10445   4.015   5.859  10.416 -0.1858  0.8655 -0.4848
  103OSM    H7S10446   3.956   5.812  10.335 -0.8535  1.1649 -0.1765
  103OSM    H7T10447   4.119   5.819  10.420 -0.4154  0.3354  2.5955
  103OSM    C8S10448   4.014   6.014  10.394  0.8205  0.4683  0.3740
  103OSM    H8S10449   4.084   6.068  10.461  1.4574  0.5589 -0.3505
  103OSM    H8T10450   3.911   6.050  10.416  1.1784  1.6949  0.1127
  103OSM    C9S10451   4.052   6.063  10.254  0.7857  0.1652  0.0873
  103OSM    H9S10452   4.131   5.990  10.227  0.2296 -0.0940 -0.8602
  103OSM    H9T10453   4.093   6.166  10.260  0.7227  0.1455  0.8925
  103OSM   C10S10454   3.930   6.054  10.169 -0.3884 -0.0595  0.0038
  103OSM   H10S10455   3.863   6.136  10.204 -1.6300 -0.6865 -0.8197
  103OSM   H10T10456   3.870   5.961  10.180  0.2177 -0.6123 -1.1949
  103OSM   C11S10457   3.954   6.084  10.022  0.0523 -0.4744  0.4392
  103OSM   H11S10458   4.024   6.169  10.005 -0.8850  0.3861  0.7613
  103OSM   H11T10459   3.867   6.095   9.954 -0.0037  0.6261  0.6667
  103OSM   C12S10460   4.030   5.972   9.939  0.0092  0.2251  0.3874
  103OSM   H12S10461   3.963   5.883   9.937 -1.0738  0.9666 -2.7997
  103OSM   H12T10462   4.132   5.949   9.976  0.8310  1.9309 -0.6810
  103OSM   C13S10463   4.032   6.007   9.786 -0.3576  0.0148 -1.1203
  103OSM   H13S10464   4.084   6.103   9.764  1.9430 -0.6337  0.9721
  103OSM   H13T10465   3.928   6.016   9.749 -0.3186  1.6261 -0.9342
  103OSM   C14S10466   4.115   5.909   9.706 -0.4851 -1.2164  0.1839
  103OSM   H14S10467   4.126   5.805   9.744  0.7695 -1.0129  0.4351
  103OSM   H14T10468   4.221   5.942   9.710 -1.7105  3.7229 -1.2406
  103OSM   C15S10469   4.073   5.891   9.557  0.0608  1.1438 -0.0127
  103OSM   H15S10470   3.970   5.848   9.558  0.0336  1.1453 -1.0406
  103OSM   H15T10471   4.131   5.816   9.499 -0.8107  1.2186 -1.0247
  103OSM   C16S10472   4.064   6.024   9.487 -1.0046  0.0027  0.1628
  103OSM   H16S10473   4.162   6.074   9.504 -0.5095  0.1143 -2.6010
  103OSM   H16T10474   3.980   6.080   9.534 -0.3026 -1.3354  3.2762
  103OSM   C17S10475   4.052   6.007   9.337 -0.5868 -0.0809 -0.3023
  103OSM   H17S10476   3.966   5.937   9.324 -1.3844  0.8552 -0.1549
  103OSM   H17T10477   4.148   5.968   9.296  0.1392  0.8691  0.4600
  103OSM   C18S10478   4.029   6.142   9.256 -0.6080 -0.3120  0.8326
  103OSM   H18S10479   3.922   6.165   9.275 -0.5257  0.4253  0.4249
  103OSM   H18T10480   4.053   6.138   9.148  0.5048  3.7721  0.7590
  103OSM   H18U10481   4.089   6.222   9.305  0.2000 -1.1711  1.2860
  103OSM    C1F10482   4.245   6.187  10.753  0.8018  0.1168  0.5866
  103OSM     OF10483   4.357   6.132  10.754 -0.0943  0.1245  0.1183
  103OSM    C2F10484   4.207   6.314  10.679  0.2089 -0.1326  0.2031
  103OSM    H2F10485   4.113   6.361  10.715  0.7735  0.5944  0.7371
  103OSM    H2G10486   4.192   6.278  10.575  0.7364  0.6222 -0.1427
  103OSM    C3F10487   4.312   6.424  10.662 -0.0031 -0.2834  0.0296
  103OSM    H3F10488   4.403   6.375  10.622 -0.7508 -3.3200  1.7532
  103OSM    H3G10489   4.326   6.461  10.766  0.6353 -2.2682  0.6926
  103OSM    C4F10490   4.264   6.537  10.562  0.2635 -0.8771 -0.7430
  103OSM    H4F10491   4.182   6.597  10.608  0.2408 -1.4366 -0.0509
  103OSM    H4G10492   4.226   6.487  10.470  0.1436 -1.1590 -0.5409
  103OSM    C5F10493   4.366   6.634  10.514  0.2391  0.3570 -0.1969
  103OSM    H5F10494   4.448   6.581  10.461  1.0143  1.8141 -0.5285
  103OSM    H5G10495   4.413   6.680  10.604 -1.7090 -0.8622  1.5415
  103OSM    C6F10496   4.313   6.754  10.433  0.1429 -0.0444 -0.4315
  103OSM    H6F10497   4.402   6.798  10.384  1.1102 -1.2571  0.1884
  103OSM    H6G10498   4.272   6.829  10.505 -0.3134  0.9052 -1.6461
  103OSM    C7F10499   4.216   6.713  10.321  0.4603  0.1773  0.1869
  103OSM    H7F10500   4.129   6.672  10.376 -0.9060  1.5589 -0.8845
  103OSM    H7G10501   4.264   6.643  10.249 -1.8828 -0.4987 -0.7853
  103OSM    C8F10502   4.177   6.829  10.225  0.7610 -0.0585 -1.0770
  103OSM    H8F10503   4.115   6.901  10.283  1.8904  1.5150 -1.7493
  103OSM    H8G10504   4.113   6.798  10.141  0.7183 -0.8352 -0.7666
  103OSM    C9F10505   4.301   6.897  10.166 -0.3017  0.5616 -0.1153
  103OSM    H9F10506   4.346   6.977  10.226  0.5480 -0.7725  1.0771
  103OSM   C10F10507   4.361   6.865  10.047 -0.2011  0.2475 -0.4780
  103OSM   H10F10508   4.454   6.918  10.019  0.4875  0.1715  1.4651
  103OSM   C11F10509   4.322   6.751   9.959 -0.2841  0.7255  0.2015
  103OSM   H11F10510   4.275   6.666  10.012  2.1856 -1.0710 -0.2601
  103OSM   H11G10511   4.411   6.699   9.917 -0.2876  1.1255 -0.3191
  103OSM   C12F10512   4.220   6.787   9.846  0.1601  0.3373  0.1450
  103OSM   H12F10513   4.250   6.878   9.790 -1.6351 -0.3577 -2.1279
  103OSM   H12G10514   4.128   6.814   9.903 -0.5511  1.5148 -1.4867
  103OSM   C13F10515   4.196   6.667   9.750 -0.1402 -0.5779 -0.0941
  103OSM   H13F10516   4.167   6.581   9.814  0.9831 -0.0584  1.1667
  103OSM   H13G10517   4.101   6.697   9.700  0.7576  1.9496 -0.4442
  103OSM   C14F10518   4.307   6.644   9.649  0.0588  0.6870 -0.3981
  103OSM   H14F10519   4.299   6.545   9.599  2.1341  1.8331 -3.3075
  103OSM   H14G10520   4.409   6.644   9.693 -0.5909 -0.0600  1.1661
  103OSM   C15F10521   4.307   6.753   9.546 -0.1751  0.6372  0.2828
  103OSM   H15F10522   4.328   6.850   9.595 -2.5382  1.6777 -0.6259
  103OSM   H15G10523   4.206   6.770   9.503  0.0466  0.6027 -0.2591
  103OSM   C16F10524   4.408   6.724   9.432  0.5352  0.0940  0.3375
  103OSM   H16F10525   4.374   6.631   9.381  0.1823  0.5436 -0.2734
  103OSM   H16G10526   4.513   6.722   9.468  0.9583  2.5103 -0.5735
  103OSM   C17F10527   4.395   6.819   9.307 -0.5458 -0.0667 -0.2539
  103OSM   H17F10528   4.426   6.919   9.344  1.2272 -1.3332  1.9235
  103OSM   H17G10529   4.290   6.824   9.269 -0.8475  0.1274  0.5869
  103OSM   C18F10530   4.500   6.773   9.203  0.6481 -0.2972  0.1225
  103OSM   H18F10531   4.480   6.666   9.180  0.8396 -0.3184  0.0493
  103OSM   H18G10532   4.594   6.770   9.261  1.1828  1.6457 -0.5852
  103OSM   H18H10533   4.509   6.825   9.105 -1.0400 -1.1571 -0.5249
  104OSM      N10534   0.994   5.705  11.295 -0.0682 -0.2458 -0.0462
  104OSM    C1510535   0.935   5.827  11.245  0.2447 -0.2269  0.1899
  104OSM   H15A10536   0.854   5.816  11.175 -2.1167  2.9322  2.1609
  104OSM   H15B10537   1.008   5.891  11.197 -0.5516 -1.0286 -2.2050
  104OSM   H15C10538   0.889   5.891  11.319 -0.5765  0.3697 -0.8141
  104OSM    C1410539   1.101   5.743  11.389  0.2929  0.3636 -0.1254
  104OSM   H14A10540   1.184   5.786  11.335  1.5356 -1.2126  0.4256
  104OSM   H14B10541   1.132   5.657  11.446  0.1228  0.2754 -0.1663
  104OSM   H14C10542   1.065   5.818  11.457 -0.3792  0.7750 -0.9138
  104OSM    C1310543   0.886   5.640  11.373  0.4762  0.2614 -0.5031
  104OSM   H13A10544   0.861   5.701  11.459  0.9613  0.3982 -0.4557
  104OSM   H13B10545   0.904   5.535  11.393  0.1923  0.6684  2.2521
  104OSM   H13C10546   0.792   5.641  11.320 -1.0450 -0.1855  2.0041
  104OSM    C1210547   1.038   5.603  11.190  0.7017 -0.6982  0.1885
  104OSM   H12A10548   1.086   5.516  11.233  0.7242 -1.4175 -1.2248
  104OSM   H12B10549   1.117   5.651  11.133 -1.0986  0.8564 -1.1054
  104OSM    C1110550   0.929   5.553  11.089  1.2127  0.3739 -0.2191
  104OSM   H11A10551   0.860   5.475  11.127  1.6334 -0.0798 -0.3712
  104OSM   H11B10552   0.989   5.503  11.009  1.9109  2.6297 -1.1785
  104OSM      P10553   0.736   5.649  10.934 -0.0266  0.2670 -0.0405
  104OSM    O1310554   0.602   5.637  10.999 -0.0490  0.0624 -0.0669
  104OSM    O1410555   0.753   5.777  10.859  0.2324 -0.6168 -0.3024
  104OSM    O1110556   0.765   5.530  10.841 -1.1739 -0.0632  0.7999
  104OSM    O1210557   0.848   5.657  11.035 -0.5495 -0.4440 -0.7247
  104OSM    C1S10558   0.728   5.518  10.700 -0.5595 -0.2684 -0.0304
  104OSM    H1S10559   0.629   5.566  10.681 -1.8034 -2.3415  0.8083
  104OSM    H1T10560   0.709   5.410  10.681  0.1022 -0.5415  0.7950
  104OSM     NF10561   0.782   5.517  10.456  0.0155  0.4586 -0.4311
  104OSM    HNF10562   0.834   5.440  10.420 -0.4911  0.0726 -0.3588
  104OSM    C2S10563   0.832   5.564  10.587 -0.5032 -0.3476 -0.6522
  104OSM    H2S10564   0.822   5.674  10.580 -1.9717 -0.4748 -0.7239
  104OSM    C3S10565   0.978   5.528  10.615 -0.9371 -0.1744  1.2734
  104OSM    H3S10566   1.003   5.419  10.613  1.2171  0.2907  0.2914
  104OSM     O310567   1.016   5.567  10.745  0.4271  0.3129  0.2621
  104OSM    HO310568   0.939   5.570  10.802  0.4429  2.5992  0.2528
  104OSM    C4S10569   1.071   5.603  10.524  0.5219 -0.0108 -0.7680
  104OSM    H4S10570   1.046   5.708  10.503 -2.3978 -0.6012 -0.6765
  104OSM    C5S10571   1.183   5.552  10.473 -0.3881 -0.7922  0.2348
  104OSM    H5S10572   1.218   5.452  10.500 -1.5170 -0.8829  1.5064
  104OSM    C6S10573   1.269   5.625  10.368 -0.0492 -0.8221  0.2410
  104OSM    H6S10574   1.367   5.572  10.368 -0.0966 -0.9163 -0.7346
  104OSM    H6T10575   1.286   5.734  10.381  2.1933 -1.2898  1.9498
  104OSM    C7S10576   1.204   5.619  10.223  0.1531  0.0250 -0.8075
  104OSM    H7S10577   1.126   5.697  10.220  1.0133  0.9034 -3.9524
  104OSM    H7T10578   1.155   5.519  10.220  0.0097  0.0174  0.7734
  104OSM    C8S10579   1.305   5.659  10.111  0.0094 -0.1245 -0.8410
  104OSM    H8S10580   1.367   5.569  10.094 -2.5983 -1.5628 -3.7916
  104OSM    H8T10581   1.374   5.738  10.146  0.5091 -1.3928  1.2020
  104OSM    C9S10582   1.236   5.682   9.974  0.7318  1.3661  0.4005
  104OSM    H9S10583   1.155   5.759   9.973 -0.7409 -0.0918 -1.9980
  104OSM    H9T10584   1.180   5.589   9.950  1.3205  1.5600 -1.9611
  104OSM   C10S10585   1.343   5.720   9.866 -0.6499  0.8477  0.5439
  104OSM   H10S10586   1.415   5.636   9.853 -0.0255  1.4446  0.1327
  104OSM   H10T10587   1.395   5.814   9.892  0.2535  0.3454  0.5795
  104OSM   C11S10588   1.275   5.738   9.727 -0.7979 -0.2804 -0.9910
  104OSM   H11S10589   1.193   5.811   9.743  1.3989  2.2535 -0.5623
  104OSM   H11T10590   1.228   5.641   9.699 -1.1451 -0.6563  0.7526
  104OSM   C12S10591   1.372   5.794   9.617 -0.3488  0.3831 -1.0074
  104OSM   H12S10592   1.450   5.717   9.598  1.1281  1.6749 -0.4365
  104OSM   H12T10593   1.429   5.886   9.643 -1.6558  1.0995 -0.6095
  104OSM   C13S10594   1.306   5.822   9.477  0.3761  0.2994  0.1790
  104OSM   H13S10595   1.216   5.883   9.500  1.3048  1.8633 -0.1343
  104OSM   H13T10596   1.278   5.727   9.428  1.8378  0.2797 -0.6948
  104OSM   C14S10597   1.395   5.907   9.380 -0.2760  0.2613  0.1282
  104OSM   H14S10598   1.413   6.002   9.435  1.2800 -0.5652  1.1091
  104OSM   H14T10599   1.338   5.933   9.288 -0.3980  0.3742  0.2363
  104OSM   C15S10600   1.533   5.851   9.347  0.3713  0.5123  0.4050
  104OSM   H15S10601   1.521   5.761   9.282  2.3674 -0.7207  1.6295
  104OSM   H15T10602   1.587   5.798   9.429 -2.1068 -1.6831  0.7506
  104OSM   C16S10603   1.639   5.943   9.273  0.5784  0.5951 -0.5266
  104OSM   H16S10604   1.721   5.871   9.250  3.0857  2.5599  1.6428
  104OSM   H16T10605   1.690   6.014   9.341  2.1177 -1.1488  0.2343
  104OSM   C17S10606   1.577   6.015   9.158 -0.6798 -0.0044  0.0071
  104OSM   H17S10607   1.494   6.082   9.190  0.6441  1.8455 -0.2621
  104OSM   H17T10608   1.528   5.935   9.099 -0.8737  0.0951  0.0335
  104OSM   C18S10609   1.683   6.089   9.069  0.3233 -0.0714 -0.0337
  104OSM   H18S10610   1.769   6.031   9.029 -0.1194 -0.1457 -0.9126
  104OSM   H18T10611   1.734   6.177   9.115 -1.4454  2.0297 -1.8132
  104OSM   H18U10612   1.632   6.131   8.979  0.7270 -1.3621 -0.8951
  104OSM    C1F10613   0.672   5.575  10.405 -0.2317 -0.2815  0.8086
  104OSM     OF10614   0.635   5.680  10.453  0.5753  0.0492 -0.7390
  104OSM    C2F10615   0.615   5.496  10.289 -0.1790  0.5043 -0.5666
  104OSM    H2F10616   0.507   5.472  10.298 -0.3926  1.4787 -0.4119
  104OSM    H2G10617   0.662   5.396  10.293  1.0702  1.1017  0.7008
  104OSM    C3F10618   0.641   5.560  10.155 -0.1542  0.2678 -0.4051
  104OSM    H3F10619   0.620   5.669  10.164 -0.0220  0.2079  0.7925
  104OSM    H3G10620   0.572   5.519  10.078  1.6108 -1.1003 -1.3599
  104OSM    C4F10621   0.778   5.538  10.106 -1.1227 -0.5645  0.6704
  104OSM    H4F10622   0.802   5.431  10.087  2.1268  0.2859 -0.8553
  104OSM    H4G10623   0.840   5.567  10.193  1.1740  2.2294 -1.6644
  104OSM    C5F10624   0.813   5.625   9.981  0.2148  0.3583  0.7555
  104OSM    H5F10625   0.922   5.635   9.959  0.1723  0.8546  0.7539
  104OSM    H5G10626   0.786   5.732   9.991  0.0015  0.3021  0.7706
  104OSM    C6F10627   0.749   5.570   9.852  0.5887  0.3027 -0.3015
  104OSM    H6F10628   0.640   5.556   9.869  0.9051 -1.4435  0.5477
  104OSM    H6G10629   0.784   5.468   9.827  0.2802 -0.0709  0.7431
  104OSM    C7F10630   0.764   5.672   9.738 -0.0573 -0.3337 -0.2553
  104OSM    H7F10631   0.762   5.773   9.785 -0.6105 -1.7777  3.1889
  104OSM    H7G10632   0.684   5.663   9.662 -3.2756  0.5934  2.7282
  104OSM    C8F10633   0.899   5.667   9.661 -0.2433  0.0090 -0.2393
  104OSM    H8F10634   0.974   5.671   9.743 -0.6879  0.2264  0.1619
  104OSM    H8G10635   0.895   5.759   9.599 -1.5814  1.9663  2.5715
  104OSM    C9F10636   0.918   5.547   9.574 -0.6199 -0.0694 -0.5828
  104OSM    H9F10637   0.986   5.471   9.615 -0.0413 -0.3752 -2.0528
  104OSM   C10F10638   0.885   5.534   9.445  0.0754  0.0067 -0.5218
  104OSM   H10F10639   0.895   5.432   9.406 -1.5599 -1.4194  2.4937
  104OSM   C11F10640   0.815   5.639   9.362 -0.7883 -0.1568  0.1858
  104OSM   H11F10641   0.806   5.736   9.415 -0.7472  0.4585 -0.9062
  104OSM   H11G10642   0.713   5.605   9.335 -0.9701  0.9146 -0.5507
  104OSM   C12F10643   0.890   5.665   9.233 -0.0257 -0.2067  0.2576
  104OSM   H12F10644   0.838   5.731   9.160  1.9598  0.4927 -0.5909
  104OSM   H12G10645   0.896   5.567   9.181 -0.8390 -0.2426  0.2135
  104OSM   C13F10646   1.037   5.710   9.252  0.3850 -0.1537  0.5434
  104OSM   H13F10647   1.086   5.661   9.339  1.0986  1.2452  0.9676
  104OSM   H13G10648   1.047   5.820   9.265 -2.9121  0.5490 -1.7317
  104OSM   C14F10649   1.114   5.693   9.120  0.0327 -0.1832 -0.3801
  104OSM   H14F10650   1.117   5.584   9.098 -0.5643 -0.0354 -1.2765
  104OSM   H14G10651   1.215   5.737   9.136 -0.0859  0.3376 -1.0128
  104OSM   C15F10652   1.062   5.760   8.991 -0.1520  0.2615 -0.1914
  104OSM   H15F10653   1.044   5.866   9.022  1.2829  0.7148 -0.8568
  104OSM   H15G10654   0.971   5.705   8.959  0.9999 -1.2187 -1.0235
  104OSM   C16F10655   1.164   5.768   8.875 -0.2720 -0.0855  0.0203
  104OSM   H16F10656   1.184   5.660   8.860 -1.1933 -0.5525  1.8585
  104OSM   H16G10657   1.251   5.828   8.910  0.0284  1.3165 -2.8126
  104OSM   C17F10658   1.111   5.815   8.737  0.3911 -0.2370 -0.1885
  104OSM   H17F10659   1.180   5.790   8.654  1.5146 -1.3837  1.0448
  104OSM   H17G10660   1.112   5.926   8.735  0.8881 -0.1852  1.3488
  104OSM   C18F10661   0.988   5.737   8.687 -0.0110  0.3234 -0.0263
  104OSM   H18F10662   0.995   5.627   8.702 -0.0572  0.1221 -1.3875
  104OSM   H18G10663   0.972   5.762   8.580  1.1260 -3.4793 -1.2580
  104OSM   H18H10664   0.893   5.771   8.733  0.7799  0.7634  1.3582
  105OSM      N10665   6.439   6.025  11.181  0.4508 -0.2550  0.9459
  105OSM    C1510666   6.352   5.997  11.297 -0.0136  0.5313 -0.5826
  105OSM   H15A10667   6.405   5.961  11.384 -3.5118 -0.1441  1.4678
  105OSM   H15B10668   6.264   5.938  11.275  0.4212  0.1787 -1.4116
  105OSM   H15C10669   6.311   6.091  11.330 -2.7768 -1.1774  1.3113
  105OSM    C1410670   6.533   6.131  11.222  0.8802  0.4879 -0.0807
  105OSM   H14A10671   6.605   6.160  11.146  0.1664  3.1105  0.1391
  105OSM   H14B10672   6.602   6.099  11.299  0.3883 -0.6749 -0.1060
  105OSM   H14C10673   6.483   6.219  11.260  1.0949 -0.0520  1.5244
  105OSM    C1310674   6.516   5.901  11.162  0.2771  1.0668 -0.0045
  105OSM   H13A10675   6.575   5.905  11.071  2.3093  2.3843  1.3007
  105OSM   H13B10676   6.449   5.818  11.145 -1.2384  2.3258 -0.4042
  105OSM   H13C10677   6.586   5.890  11.244  0.2112  1.3321  0.0876
  105OSM    C1210678   6.341   6.060  11.068  0.1108  0.8168  0.1886
  105OSM   H12A10679   6.290   6.151  11.099  0.5609  0.8314  0.8873
  105OSM   H12B10680   6.268   5.980  11.069  0.5052  0.4465  2.0761
  105OSM    C1110681   6.396   6.067  10.922  0.1155 -0.1428 -0.0326
  105OSM   H11A10682   6.308   6.090  10.859  1.1551  3.2003 -0.4730
  105OSM   H11B10683   6.439   5.969  10.892 -1.8834 -0.8908 -0.5889
  105OSM      P10684   6.443   6.315  10.901 -0.1557 -0.1985 -0.2497
  105OSM    O1310685   6.325   6.337  10.985 -0.5211 -0.3930  0.4372
  105OSM    O1410686   6.555   6.409  10.927  0.1151  0.4901  0.3774
  105OSM    O1110687   6.396   6.326  10.758 -0.6017  0.2666 -0.5126
  105OSM    O1210688   6.494   6.168  10.919  0.3521  0.2628  0.1161
  105OSM    C1S10689   6.461   6.254  10.652  0.2461  0.1667  0.2712
  105OSM    H1S10690   6.460   6.144  10.671 -0.0414 -0.2516 -1.8959
  105OSM    H1T10691   6.565   6.288  10.637 -0.0409  1.2026  0.5373
  105OSM     NF10692   6.467   6.210  10.415 -0.2068  0.6400  0.1558
  105OSM    HNF10693   6.516   6.264  10.347  2.5610 -1.7405  0.0642
  105OSM    C2S10694   6.388   6.278  10.518  0.1181 -0.0466  0.2605
  105OSM    H2S10695   6.290   6.226  10.524 -0.4115  0.8826 -0.1606
  105OSM    C3S10696   6.356   6.426  10.486 -0.0508 -0.2204  0.8928
  105OSM    H3S10697   6.452   6.482  10.478 -2.3480  4.1862  0.9615
  105OSM     O310698   6.272   6.490  10.577  0.2026  0.5556  0.3583
  105OSM    HO310699   6.262   6.436  10.657  0.2597  0.4905  0.3221
  105OSM    C4S10700   6.288   6.416  10.357  0.1312  0.3551  0.0444
  105OSM    H4S10701   6.200   6.350  10.365 -0.6012  1.2819 -0.1807
  105OSM    C5S10702   6.322   6.468  10.237  0.3920 -0.6445 -0.3174
  105OSM    H5S10703   6.407   6.539  10.236 -0.7109  0.7262 -0.1062
  105OSM    C6S10704   6.226   6.451  10.114 -0.9606  0.4372 -0.3243
  105OSM    H6S10705   6.149   6.375  10.139 -0.3830 -0.6100 -1.6039
  105OSM    H6T10706   6.289   6.425  10.026  0.5650  2.2996  0.1456
  105OSM    C7S10707   6.176   6.592  10.089  0.1994  0.4728  0.5145
  105OSM    H7S10708   6.260   6.642  10.038  1.7140 -0.8624  1.5763
  105OSM    H7T10709   6.159   6.653  10.180 -2.8554 -0.2108  0.5121
  105OSM    C8S10710   6.053   6.589   9.995 -0.4132 -0.3934  0.0548
  105OSM    H8S10711   5.969   6.536  10.045  0.2498 -0.2842  1.3242
  105OSM    H8T10712   6.070   6.530   9.902 -0.3760 -0.3792  0.0528
  105OSM    C9S10713   5.998   6.731   9.951  0.0967  0.7665  0.6321
  105OSM    H9S10714   5.957   6.775  10.045 -0.4644 -0.4756  0.9875
  105OSM    H9T10715   5.919   6.725   9.874  2.7721  0.8664 -2.3190
  105OSM   C10S10716   6.107   6.805   9.882 -0.9135  0.3852 -0.0500
  105OSM   H10S10717   6.164   6.730   9.824 -0.1178 -0.6591  1.9783
  105OSM   H10T10718   6.177   6.844   9.960 -2.3239  0.1544  1.3787
  105OSM   C11S10719   6.058   6.915   9.791 -0.6675  0.1690  0.0413
  105OSM   H11S10720   6.150   6.972   9.766 -0.1463 -0.2205  1.0228
  105OSM   H11T10721   6.006   6.998   9.845  0.3174  1.1488 -0.4768
  105OSM   C12S10722   5.990   6.870   9.664  0.1207  0.0482 -0.6644
  105OSM   H12S10723   5.884   6.903   9.674 -0.0835 -1.1286  1.6587
  105OSM   H12T10724   5.997   6.760   9.680  1.8282  0.1554 -0.4768
  105OSM   C13S10725   6.060   6.912   9.531  0.2486 -0.2060 -0.4610
  105OSM   H13S10726   6.161   6.867   9.524  0.4635  0.1939  0.0092
  105OSM   H13T10727   6.061   7.023   9.535 -1.1185 -0.1670 -0.5085
  105OSM   C14S10728   5.966   6.872   9.414  0.0246 -0.6209  0.0111
  105OSM   H14S10729   5.865   6.916   9.429  0.7529  1.3821 -0.6057
  105OSM   H14T10730   5.945   6.763   9.405 -2.5374 -0.2624  0.9098
  105OSM   C15S10731   6.029   6.915   9.280 -0.1969  0.1120  0.4460
  105OSM   H15S10732   6.101   6.833   9.259 -1.1776 -0.6137 -0.1502
  105OSM   H15T10733   6.086   7.008   9.304  1.8265 -0.5906 -1.3878
  105OSM   C16S10734   5.930   6.923   9.160 -0.5118  0.2304  0.4968
  105OSM   H16S10735   5.868   7.013   9.178  1.5489  1.4555  1.8795
  105OSM   H16T10736   5.866   6.833   9.147  2.0540 -1.8540  1.3851
  105OSM   C17S10737   6.007   6.946   9.029  0.2634 -0.3685  0.2291
  105OSM   H17S10738   6.068   6.859   8.996  0.6769  0.6104 -1.7452
  105OSM   H17T10739   6.078   7.031   9.038  0.2144  0.0233 -2.3511
  105OSM   C18S10740   5.907   6.990   8.916 -0.5686 -0.3295  0.5635
  105OSM   H18S10741   5.830   7.055   8.961 -1.8320 -1.9959  0.9002
  105OSM   H18T10742   5.856   6.904   8.868 -2.3024 -0.2209  2.1307
  105OSM   H18U10743   5.945   7.050   8.831 -0.4431 -3.1688 -1.5246
  105OSM    C1F10744   6.479   6.079  10.412 -0.2741  0.8350  0.0109
  105OSM     OF10745   6.396   6.003  10.465 -0.1188 -0.2079  0.8322
  105OSM    C2F10746   6.591   6.027  10.333 -0.0239  0.1629  0.3197
  105OSM    H2F10747   6.681   6.081  10.367 -1.3295  0.9109  2.8031
  105OSM    H2G10748   6.582   6.046  10.224 -1.3273 -0.9899  0.1962
  105OSM    C3F10749   6.602   5.872  10.340  0.6514 -1.2693  0.6775
  105OSM    H3F10750   6.520   5.824  10.281  0.9582 -2.7960  1.4354
  105OSM    H3G10751   6.597   5.838  10.445  0.2085 -0.8094  0.8071
  105OSM    C4F10752   6.724   5.811  10.280  0.3634  0.1195  0.2662
  105OSM    H4F10753   6.714   5.701  10.292  0.6574  0.0657  0.0447
  105OSM    H4G10754   6.812   5.850  10.336 -0.7198  2.0728  0.7063
  105OSM    C5F10755   6.744   5.848  10.132  0.0878 -0.5152 -0.7080
  105OSM    H5F10756   6.747   5.957  10.112 -1.6922 -0.1623  0.7303
  105OSM    H5G10757   6.656   5.809  10.077 -1.1783  0.9183  0.2145
  105OSM    C6F10758   6.858   5.776  10.075 -0.9373  0.2133  0.9773
  105OSM    H6F10759   6.852   5.671  10.111  1.2155 -0.5351 -0.5883
  105OSM    H6G10760   6.957   5.820  10.100 -0.5696 -0.0812  0.0805
  105OSM    C7F10761   6.862   5.783   9.917  1.0129  0.0969  0.5939
  105OSM    H7F10762   6.876   5.887   9.881 -0.0484  0.5223  1.3697
  105OSM    H7G10763   6.764   5.749   9.878  1.8816 -1.0286 -0.6989
  105OSM    C8F10764   6.984   5.704   9.864  0.6061 -1.1464 -0.2630
  105OSM    H8F10765   6.972   5.673   9.758 -0.0827  0.8597 -0.8109
  105OSM    H8G10766   6.985   5.606   9.917  2.7312 -2.1505 -2.0089
  105OSM    C9F10767   7.124   5.766   9.880 -0.3416  0.4987  0.1070
  105OSM    H9F10768   7.156   5.786   9.983 -0.3840 -1.5440  0.5450
  105OSM   C10F10769   7.213   5.802   9.780 -0.0430  0.1551 -0.2082
  105OSM   H10F10770   7.313   5.840   9.808  0.4779 -1.0080 -0.4170
  105OSM   C11F10771   7.191   5.780   9.637 -0.0205 -0.0000  0.2437
  105OSM   H11F10772   7.082   5.773   9.622  0.1286  0.0452 -0.9470
  105OSM   H11G10773   7.239   5.687   9.599 -2.0011 -0.7159 -0.6016
  105OSM   C12F10774   7.249   5.895   9.554  0.4989  0.9391 -0.3730
  105OSM   H12F10775   7.360   5.892   9.551  0.5073  0.3178  0.3585
  105OSM   H12G10776   7.222   5.993   9.598  0.3905  0.9729 -0.5124
  105OSM   C13F10777   7.184   5.893   9.412  0.3219  0.2561 -0.1355
  105OSM   H13F10778   7.178   5.991   9.361 -0.1245  1.1324  1.5102
  105OSM   H13G10779   7.076   5.874   9.431  0.1624  2.2314  1.2292
  105OSM   C14F10780   7.261   5.784   9.334 -0.5776 -0.0074 -0.1458
  105OSM   H14F10781   7.224   5.686   9.370 -1.0123  0.3257  0.3243
  105OSM   H14G10782   7.372   5.791   9.346 -0.6255  1.0823 -0.2347
  105OSM   C15F10783   7.230   5.779   9.182 -0.0047  0.2327 -0.4888
  105OSM   H15F10784   7.120   5.775   9.163  0.0012  0.3878 -0.5627
  105OSM   H15G10785   7.284   5.690   9.145  1.3898  0.9944 -0.3617
  105OSM   C16F10786   7.287   5.901   9.107 -0.1680 -0.7361 -0.2272
  105OSM   H16F10787   7.397   5.893   9.102 -0.1186 -1.2727  1.2806
  105OSM   H16G10788   7.260   5.998   9.155  2.6600  0.3339 -0.5872
  105OSM   C17F10789   7.243   5.910   8.962 -0.2578  0.3029  0.6299
  105OSM   H17F10790   7.161   5.841   8.935 -0.9508  0.4588  2.2015
  105OSM   H17G10791   7.330   5.879   8.900 -0.2395  0.5148  0.5475
  105OSM   C18F10792   7.206   6.052   8.917  0.2595  0.6105 -0.5483
  105OSM   H18F10793   7.158   6.036   8.818 -0.8578 -3.6632  0.4604
  105OSM   H18G10794   7.292   6.122   8.915  0.6237  0.2540  1.2927
  105OSM   H18H10795   7.130   6.094   8.986  1.3953  1.4060  0.2635
  106OSM      N10796   1.445   5.073  11.110  0.5114 -0.2403  0.8252
  106OSM    C1510797   1.372   5.085  11.236  0.0220 -0.2352  0.0371
  106OSM   H15A10798   1.401   5.177  11.284  0.8008 -1.5172  2.1620
  106OSM   H15B10799   1.403   5.008  11.306 -0.3650  0.1340  0.6204
  106OSM   H15C10800   1.264   5.081  11.233 -0.0975 -1.0462  2.6027
  106OSM    C1410801   1.383   5.190  11.025 -0.0057 -0.8438 -0.0860
  106OSM   H14A10802   1.430   5.188  10.928  0.9952 -0.1254  0.3688
  106OSM   H14B10803   1.400   5.279  11.083 -0.1136 -1.4828  0.9467
  106OSM   H14C10804   1.277   5.169  11.023  0.3537 -3.2151  1.7649
  106OSM    C1310805   1.586   5.100  11.147 -0.0245  0.1118 -0.2361
  106OSM   H13A10806   1.653   5.084  11.063  0.2209  3.0172 -0.6867
  106OSM   H13B10807   1.618   5.037  11.229 -3.2491  0.5963  1.5711
  106OSM   H13C10808   1.595   5.201  11.185 -0.2292 -0.9166  2.7718
  106OSM    C1210809   1.431   4.936  11.042 -0.6257 -0.1294 -0.2028
  106OSM   H12A10810   1.333   4.892  11.059  0.5412 -4.0619 -2.4517
  106OSM   H12B10811   1.496   4.878  11.105 -0.8640  0.4302  0.5826
  106OSM    C1110812   1.473   4.901  10.900 -0.1221  0.2584 -0.6376
  106OSM   H11A10813   1.394   4.934  10.828 -0.0377 -0.6278 -1.1517
  106OSM   H11B10814   1.489   4.792  10.892  0.3197  0.2785 -0.1032
  106OSM      P10815   1.740   4.883  10.901 -0.3226 -0.5926 -0.0907
  106OSM    O1310816   1.851   4.983  10.917 -0.0241  0.1714  0.1254
  106OSM    O1410817   1.725   4.798  11.026 -0.1453  0.2371  0.8371
  106OSM    O1110818   1.764   4.793  10.773 -0.1559  0.3618  0.0937
  106OSM    O1210819   1.602   4.961  10.867  0.0927 -0.0352  0.1048
  106OSM    C1S10820   1.669   4.769  10.664 -0.6159  0.5315 -0.5504
  106OSM    H1S10821   1.641   4.860  10.606 -1.5591  1.1063  0.7496
  106OSM    H1T10822   1.570   4.737  10.703 -0.4120 -0.8013 -1.0656
  106OSM     NF10823   1.605   4.643  10.471  0.0423 -0.0257 -0.4257
  106OSM    HNF10824   1.529   4.582  10.492 -0.0281  0.0006 -0.6039
  106OSM    C2S10825   1.709   4.653  10.569  0.1657  0.3137 -0.0310
  106OSM    H2S10826   1.800   4.682  10.512 -1.4077  1.3007 -2.1680
  106OSM    C3S10827   1.736   4.525  10.652  0.1260  0.1638 -0.0904
  106OSM    H3S10828   1.650   4.505  10.719  1.5567 -0.0214  1.7650
  106OSM     O310829   1.838   4.536  10.751  0.2592 -0.4233 -0.1524
  106OSM    HO310830   1.846   4.630  10.768 -2.6622 -0.3971  1.9552
  106OSM    C4S10831   1.763   4.411  10.559 -0.2570 -0.1297  0.0311
  106OSM    H4S10832   1.674   4.351  10.536 -3.1734  4.3258 -1.5888
  106OSM    C5S10833   1.883   4.383  10.504 -0.1587 -0.2779 -0.2756
  106OSM    H5S10834   1.968   4.452  10.515 -0.5993  0.1617  0.4308
  106OSM    C6S10835   1.913   4.264  10.411 -0.1815  0.7096  0.2721
  106OSM    H6S10836   1.834   4.187  10.406  0.0976  0.3836  0.7990
  106OSM    H6T10837   2.006   4.214  10.446 -0.6035  0.0864  0.5135
  106OSM    C7S10838   1.940   4.313  10.261 -0.1854 -0.1016  0.4663
  106OSM    H7S10839   1.992   4.232  10.205  2.2004  0.6793  1.4151
  106OSM    H7T10840   2.022   4.389  10.268  0.1732 -0.4698  0.3096
  106OSM    C8S10841   1.826   4.377  10.178 -0.6920 -0.3593 -0.2615
  106OSM    H8S10842   1.869   4.432  10.092 -1.0971  0.2064 -0.1096
  106OSM    H8T10843   1.781   4.453  10.246  0.0778  0.5498 -0.7485
  106OSM    C9S10844   1.716   4.281  10.132  0.0308 -0.3771  0.6198
  106OSM    H9S10845   1.653   4.219  10.199  1.6722 -3.7187 -0.6838
  106OSM    H9T10846   1.776   4.211  10.069  1.8907  0.2755  1.5941
  106OSM   C10S10847   1.614   4.363  10.050  0.4392 -1.8645  0.4399
  106OSM   H10S10848   1.669   4.419   9.972 -1.2341 -1.6083 -0.6095
  106OSM   H10T10849   1.547   4.420  10.118  0.9230 -1.7760  0.8420
  106OSM   C11S10850   1.518   4.260   9.979  0.7724  0.9788 -0.7525
  106OSM   H11S10851   1.470   4.208  10.065  1.1667  0.4237 -0.8617
  106OSM   H11T10852   1.574   4.188   9.916 -1.8116  0.3971 -2.5464
  106OSM   C12S10853   1.407   4.324   9.900  0.0285  0.2297  0.7810
  106OSM   H12S10854   1.364   4.404   9.965  0.8794 -0.7950  2.6713
  106OSM   H12T10855   1.332   4.246   9.874  1.5392 -0.2731 -2.4916
  106OSM   C13S10856   1.448   4.396   9.774 -1.0650  0.2186 -0.6072
  106OSM   H13S10857   1.541   4.450   9.801 -0.1226 -1.0229 -1.2901
  106OSM   H13T10858   1.377   4.477   9.746  1.2433  3.0964  1.2656
  106OSM   C14S10859   1.470   4.287   9.663  0.2398 -0.8031  0.5711
  106OSM   H14S10860   1.390   4.212   9.647 -1.1895  0.8557 -0.2703
  106OSM   H14T10861   1.555   4.226   9.703 -0.3553 -1.2103  1.2352
  106OSM   C15S10862   1.497   4.337   9.516 -0.5929  0.3265  0.1721
  106OSM   H15S10863   1.542   4.251   9.461  2.7962  1.8817  0.2524
  106OSM   H15T10864   1.568   4.422   9.504  0.2009 -0.5053 -1.2802
  106OSM   C16S10865   1.360   4.377   9.455 -0.2012  0.1427 -0.3969
  106OSM   H16S10866   1.323   4.463   9.514 -1.6933  0.6884 -2.0408
  106OSM   H16T10867   1.288   4.293   9.467  1.0919 -1.2841 -2.0129
  106OSM   C17S10868   1.354   4.407   9.305 -0.1714 -0.3438  0.0187
  106OSM   H17S10869   1.411   4.325   9.256 -0.8485 -0.3251 -0.8292
  106OSM   H17T10870   1.394   4.508   9.282  0.4681 -1.0615 -2.3436
  106OSM   C18S10871   1.209   4.400   9.243  0.0871  0.3405 -0.1178
  106OSM   H18S10872   1.151   4.469   9.308  2.8887  1.2334  1.6495
  106OSM   H18T10873   1.186   4.293   9.262  1.6765  0.1412  0.9262
  106OSM   H18U10874   1.210   4.432   9.137  2.4912  1.5978  0.2136
  106OSM    C1F10875   1.600   4.733  10.374 -0.1014 -0.6559 -0.7167
  106OSM     OF10876   1.677   4.826  10.368  0.3226  0.4381  0.4426
  106OSM    C2F10877   1.480   4.728  10.287 -0.2575 -0.0382 -0.1076
  106OSM    H2F10878   1.406   4.800  10.327  1.0107  0.2039  1.9431
  106OSM    H2G10879   1.431   4.629  10.295  0.7580 -0.6040 -0.6348
  106OSM    C3F10880   1.516   4.749  10.135 -0.1489  0.3469  0.8205
  106OSM    H3F10881   1.588   4.673  10.097 -0.0485  0.2861  1.1229
  106OSM    H3G10882   1.566   4.847  10.121  0.9845  0.1807  3.1219
  106OSM    C4F10883   1.395   4.746  10.046 -0.2710 -0.2623 -0.0489
  106OSM    H4F10884   1.325   4.814  10.100 -2.5295 -2.0754 -0.5597
  106OSM    H4G10885   1.336   4.652  10.050 -2.4981  1.0644  4.1339
  106OSM    C5F10886   1.418   4.799   9.901  0.4152  0.3569  1.3732
  106OSM    H5F10887   1.448   4.707   9.846 -0.0099  1.5765 -1.0308
  106OSM    H5G10888   1.495   4.878   9.882 -0.7907  0.8369 -2.4492
  106OSM    C6F10889   1.281   4.831   9.841 -0.9154 -0.9074  0.4931
  106OSM    H6F10890   1.253   4.925   9.893  1.9716 -0.3836  1.3197
  106OSM    H6G10891   1.208   4.751   9.865 -3.6613  1.3528  0.2118
  106OSM    C7F10892   1.293   4.854   9.684 -0.8812  0.0953  0.0239
  106OSM    H7F10893   1.372   4.931   9.669 -1.0893  0.4364  0.6462
  106OSM    H7G10894   1.197   4.892   9.642 -1.7201  0.8172  2.4460
  106OSM    C8F10895   1.319   4.727   9.599 -0.1081  0.7694 -0.3225
  106OSM    H8F10896   1.247   4.647   9.627  1.7580 -0.4280  1.2967
  106OSM    H8G10897   1.417   4.686   9.631 -0.2248 -0.2695 -1.2465
  106OSM    C9F10898   1.316   4.764   9.456 -0.2798  0.4299 -0.4638
  106OSM    H9F10899   1.212   4.795   9.439 -0.1345  0.6022 -1.0688
  106OSM   C10F10900   1.413   4.775   9.375 -1.1029 -0.4983  0.3461
  106OSM   H10F10901   1.397   4.814   9.273 -0.4969 -1.0336  0.0370
  106OSM   C11F10902   1.558   4.742   9.410  0.1332  0.3948 -0.1077
  106OSM   H11F10903   1.614   4.716   9.318 -2.1997 -1.7122 -1.0450
  106OSM   H11G10904   1.542   4.645   9.462  2.1402 -0.0063 -0.1599
  106OSM   C12F10905   1.629   4.832   9.508  0.2030  0.4575  0.1595
  106OSM   H12F10906   1.723   4.777   9.529 -1.1647 -2.3443 -0.5137
  106OSM   H12G10907   1.570   4.842   9.601 -2.3918 -1.9878 -1.0917
  106OSM   C13F10908   1.635   4.973   9.440 -0.5070  0.6414  0.1435
  106OSM   H13F10909   1.530   5.003   9.421 -1.0385 -1.2772 -0.0815
  106OSM   H13G10910   1.690   4.960   9.345 -1.5011 -1.7775 -0.1629
  106OSM   C14F10911   1.700   5.072   9.528  0.1510 -0.3058 -0.3925
  106OSM   H14F10912   1.679   5.053   9.636  0.2405 -1.9551 -0.6498
  106OSM   H14G10913   1.664   5.173   9.498 -0.1621 -0.6884 -1.3282
  106OSM   C15F10914   1.856   5.065   9.519  0.1920 -0.5160 -0.2383
  106OSM   H15F10915   1.883   5.084   9.413 -1.3160  0.0806 -0.5407
  106OSM   H15G10916   1.884   4.965   9.560  0.2737 -0.8272 -1.0394
  106OSM   C16F10917   1.930   5.162   9.613  0.9079 -0.4489 -0.7844
  106OSM   H16F10918   1.859   5.184   9.696  1.1705  1.0748 -0.9325
  106OSM   H16G10919   1.940   5.257   9.556 -0.2704  0.2556  0.1260
  106OSM   C17F10920   2.054   5.110   9.675 -1.1738  0.6816  0.2456
  106OSM   H17F10921   2.125   5.083   9.594 -1.7217 -1.9561  0.5825
  106OSM   H17G10922   2.032   5.019   9.734  0.1991  0.1704  0.0168
  106OSM   C18F10923   2.119   5.207   9.762 -0.5145 -0.2199  0.3464
  106OSM   H18F10924   2.111   5.297   9.698 -2.0104 -1.1914 -0.9114
  106OSM   H18G10925   2.224   5.181   9.788  0.0986  0.3975 -1.3999
  106OSM   H18H10926   2.050   5.229   9.847 -1.5509  0.4090 -0.6243
  107OSM      N10927   4.969   1.819  10.865  0.2627  0.3713 -0.3525
  107OSM    C1510928   5.049   1.813  10.738  0.0300  0.0949  0.2936
  107OSM   H15A10929   5.150   1.846  10.756  0.7524 -1.4240 -0.7346
  107OSM   H15B10930   5.002   1.857  10.652 -1.6597  1.7845  1.9615
  107OSM   H15C10931   5.055   1.712  10.701 -1.0274 -0.3777  1.3387
  107OSM    C1410932   4.841   1.742  10.851  0.2335 -0.4642  1.0610
  107OSM   H14A10933   4.775   1.773  10.930 -0.5640 -0.2490  0.3216
  107OSM   H14B10934   4.845   1.634  10.853  0.3677 -0.5109 -0.4116
  107OSM   H14C10935   4.792   1.770  10.759 -0.8689  1.2464  2.1239
  107OSM    C1310936   5.053   1.762  10.978  0.1717 -0.1834  0.0512
  107OSM   H13A10937   5.090   1.668  10.939 -3.0587 -0.5303 -2.5973
  107OSM   H13B10938   5.000   1.757  11.072 -0.6063  3.4715 -0.0505
  107OSM   H13C10939   5.130   1.831  11.007  0.4003 -0.6312  0.5306
  107OSM    C1210940   4.935   1.960  10.887  0.5746 -0.1884 -0.4805
  107OSM   H12A10941   4.864   1.978  10.967  1.3050 -1.7570  0.5805
  107OSM   H12B10942   4.887   1.997  10.798  0.8123  1.8365  0.1872
  107OSM    C1110943   5.053   2.054  10.922  0.6972  0.3487 -0.2565
  107OSM   H11A10944   5.135   2.040  10.848 -0.8388 -0.5987 -1.8541
  107OSM   H11B10945   5.094   2.035  11.024  0.1935  2.1603  0.3197
  107OSM      P10946   5.038   2.294  10.824  0.1920  0.0370  0.3914
  107OSM    O1310947   4.913   2.356  10.772 -0.4609 -0.1811  0.0229
  107OSM    O1410948   5.133   2.386  10.894  0.1204  0.2350  0.4693
  107OSM    O1110949   5.104   2.221  10.701 -0.1644 -0.5456  0.2253
  107OSM    O1210950   4.998   2.180  10.919 -0.3708 -0.4713 -0.4984
  107OSM    C1S10951   5.156   2.291  10.590 -0.1979 -0.5502 -0.0605
  107OSM    H1S10952   5.263   2.318  10.603 -0.4621  1.0544 -0.9531
  107OSM    H1T10953   5.105   2.389  10.577  2.0909  1.1140  2.4457
  107OSM     NF10954   5.172   2.301  10.347  0.8589  0.4163  1.1744
  107OSM    HNF10955   5.091   2.333  10.299  0.8190 -0.7685  0.3859
  107OSM    C2S10956   5.146   2.211  10.458 -0.4288 -0.3692  0.0920
  107OSM    H2S10957   5.228   2.136  10.455  1.3628  1.4987  0.5928
  107OSM    C3S10958   5.018   2.130  10.445  0.0469  0.4679 -1.2313
  107OSM    H3S10959   4.929   2.188  10.476  1.0214 -0.0355  3.1738
  107OSM     O310960   5.009   2.019  10.535  0.4079  0.9397  0.7942
  107OSM    HO310961   5.075   2.037  10.603 -1.0203  1.5035  2.0863
  107OSM    C4S10962   4.994   2.071  10.308 -0.4313 -0.1124 -0.4420
  107OSM    H4S10963   5.082   2.011  10.282 -1.0103 -0.0024 -2.8593
  107OSM    C5S10964   4.903   2.111  10.215 -0.0730 -0.2968 -0.4532
  107OSM    H5S10965   4.817   2.170  10.248  0.1278 -1.7868  3.2492
  107OSM    C6S10966   4.904   2.054  10.072  0.7481  0.0632  0.0652
  107OSM    H6S10967   4.803   2.075  10.031 -0.2277 -1.2232  1.6973
  107OSM    H6T10968   4.925   1.945  10.082  0.8637 -0.0734 -1.5172
  107OSM    C7S10969   5.008   2.102   9.979 -0.2376 -0.0880  1.3236
  107OSM    H7S10970   5.108   2.058  10.001  0.6608  0.7167 -0.8472
  107OSM    H7T10971   5.023   2.211   9.969 -0.2812 -0.2222 -0.7776
  107OSM    C8S10972   4.982   2.057   9.830  0.1417  0.2276 -0.5150
  107OSM    H8S10973   4.877   2.088   9.812  0.1982  1.4238  0.9718
  107OSM    H8T10974   4.978   1.946   9.829 -0.9187  0.2361  0.3904
  107OSM    C9S10975   5.080   2.114   9.725 -0.0752  0.6236 -0.3027
  107OSM    H9S10976   5.173   2.054   9.735  0.8074  1.5530 -2.3714
  107OSM    H9T10977   5.113   2.217   9.746  0.9222  0.1927  0.3108
  107OSM   C10S10978   5.040   2.089   9.582  0.0655  0.8176  0.4169
  107OSM   H10S10979   4.953   2.154   9.557 -1.2010 -0.4706  1.2535
  107OSM   H10T10980   5.019   1.980   9.574  1.7991  0.3759  1.3833
  107OSM   C11S10981   5.152   2.126   9.485  0.7364 -0.3504 -0.5543
  107OSM   H11S10982   5.243   2.066   9.503  1.1778 -0.3534 -2.5602
  107OSM   H11T10983   5.182   2.232   9.497 -0.6440  0.0618 -0.5216
  107OSM   C12S10984   5.098   2.121   9.342 -0.0348  0.9621  0.3418
  107OSM   H12S10985   5.032   2.209   9.327 -0.1886  0.8543  0.3818
  107OSM   H12T10986   5.042   2.027   9.326  0.0947  0.6187  1.7402
  107OSM   C13S10987   5.197   2.134   9.225  0.5195 -0.2007  0.1596
  107OSM   H13S10988   5.273   2.053   9.214 -0.2345 -0.6808 -2.0298
  107OSM   H13T10989   5.261   2.224   9.232 -0.2994  0.5458 -1.4087
  107OSM   C14S10990   5.133   2.147   9.084 -0.4043 -0.7729  0.7363
  107OSM   H14S10991   5.047   2.216   9.086  0.1494  0.2836 -3.0180
  107OSM   H14T10992   5.084   2.050   9.058 -1.9480  0.2260 -0.2135
  107OSM   C15S10993   5.226   2.195   8.972 -0.0548 -0.7136  0.1704
  107OSM   H15S10994   5.297   2.275   9.001  1.3077 -1.5879 -0.6371
  107OSM   H15T10995   5.167   2.242   8.891  1.2292 -0.3366 -0.5770
  107OSM   C16S10996   5.304   2.085   8.895 -0.0004  0.0555  0.2085
  107OSM   H16S10997   5.225   2.028   8.842 -0.9861  0.5479  1.1153
  107OSM   H16T10998   5.351   2.025   8.976  1.9104  0.7142 -0.3546
  107OSM   C17S10999   5.421   2.131   8.807 -0.2977 -0.1742  0.3264
  107OSM   H17S11000   5.506   2.164   8.870 -1.5541 -0.7684  2.4453
  107OSM   H17T11001   5.388   2.219   8.748  2.8242  1.4754  0.8445
  107OSM   C18S11002   5.468   2.021   8.709  0.0289 -0.6587 -0.0715
  107OSM   H18S11003   5.526   1.941   8.761  0.0008  0.2925  1.4958
  107OSM   H18T11004   5.536   2.062   8.631 -1.3948  0.3471 -0.8267
  107OSM   H18U11005   5.375   1.982   8.662  1.1220 -2.9958 -0.4322
  107OSM    C1F11006   5.285   2.369  10.319 -0.1468  0.7321 -0.4392
  107OSM     OF11007   5.386   2.357  10.391  0.2684 -0.4594 -0.4147
  107OSM    C2F11008   5.284   2.463  10.211  0.1729 -0.3572  0.1811
  107OSM    H2F11009   5.347   2.551  10.233  0.4351 -0.0206 -1.7568
  107OSM    H2G11010   5.180   2.501  10.205  0.5294  0.7868  1.0556
  107OSM    C3F11011   5.330   2.409  10.078  0.5487 -0.4504  0.2939
  107OSM    H3F11012   5.295   2.307  10.054 -1.5864  0.0710  1.0015
  107OSM    H3G11013   5.440   2.419  10.065  0.2462 -0.4286 -3.1426
  107OSM    C4F11014   5.280   2.506   9.971 -0.6876 -0.1966 -0.1679
  107OSM    H4F11015   5.321   2.607   9.989  1.9636 -1.2159 -0.0382
  107OSM    H4G11016   5.169   2.501   9.976 -0.7951 -2.5063 -2.7219
  107OSM    C5F11017   5.334   2.469   9.827  0.4574 -0.1499 -0.7961
  107OSM    H5F11018   5.286   2.374   9.793 -1.8161  0.2917  0.8968
  107OSM    H5G11019   5.443   2.451   9.818  0.3669 -0.2134 -1.9198
  107OSM    C6F11020   5.299   2.589   9.732 -0.7942 -0.6327  0.0118
  107OSM    H6F11021   5.363   2.676   9.759  1.3672 -2.3198  0.5659
  107OSM    H6G11022   5.197   2.632   9.740  0.1817  1.5463  1.7856
  107OSM    C7F11023   5.316   2.550   9.581  0.1079  0.5790  0.0616
  107OSM    H7F11024   5.251   2.620   9.525 -0.0295  0.6215  0.2707
  107OSM    H7G11025   5.262   2.454   9.572 -0.3092  0.6536  1.5074
  107OSM    C8F11026   5.465   2.537   9.537  0.4236  0.3626  0.1835
  107OSM    H8F11027   5.530   2.497   9.617  0.3477  1.3857  0.7662
  107OSM    H8G11028   5.511   2.637   9.522 -0.9478  1.2037  1.3430
  107OSM    C9F11029   5.497   2.440   9.418 -0.6394 -0.3952  0.4301
  107OSM    H9F11030   5.523   2.340   9.455  0.2065  0.0884  1.1961
  107OSM   C10F11031   5.522   2.470   9.291 -0.7614  0.1336  0.1162
  107OSM   H10F11032   5.555   2.382   9.235 -0.4640 -0.4162  1.1290
  107OSM   C11F11033   5.527   2.605   9.225 -0.4479  0.2286 -0.8953
  107OSM   H11F11034   5.602   2.605   9.143 -0.4036  1.6993 -0.8721
  107OSM   H11G11035   5.545   2.682   9.303 -1.1570  0.1986 -0.6901
  107OSM   C12F11036   5.399   2.660   9.154 -0.0729  0.2684  0.4483
  107OSM   H12F11037   5.425   2.762   9.119 -1.0545  0.3502 -0.0554
  107OSM   H12G11038   5.311   2.671   9.220 -0.9298  0.4494 -0.6995
  107OSM   C13F11039   5.351   2.568   9.039  0.5866 -0.0467  0.1548
  107OSM   H13F11040   5.310   2.472   9.079  1.3776  0.4073  2.1580
  107OSM   H13G11041   5.440   2.551   8.974  0.9821  1.0070  0.4111
  107OSM   C14F11042   5.241   2.643   8.958 -0.4656 -0.2605  0.2557
  107OSM   H14F11043   5.277   2.741   8.920  1.5928 -1.9418 -2.5076
  107OSM   H14G11044   5.155   2.672   9.023  1.5599  2.1945  2.0522
  107OSM   C15F11045   5.182   2.564   8.846  0.2591  0.4249  0.3170
  107OSM   H15F11046   5.077   2.590   8.820  1.2649  2.4090 -2.2080
  107OSM   H15G11047   5.189   2.455   8.867 -2.2043  0.0831 -0.3964
  107OSM   C16F11048   5.259   2.590   8.720 -0.2791 -0.6229 -0.6863
  107OSM   H16F11049   5.245   2.503   8.652 -1.4781 -0.3197 -0.8488
  107OSM   H16G11050   5.369   2.593   8.735 -0.2357  1.5911 -1.1422
  107OSM   C17F11051   5.213   2.713   8.643 -0.1900 -0.4568 -0.2621
  107OSM   H17F11052   5.255   2.802   8.693 -1.1535  0.9679 -1.8866
  107OSM   H17G11053   5.103   2.716   8.628  0.1626 -0.9096 -3.6446
  107OSM   C18F11054   5.272   2.720   8.510  0.4861  0.1980  0.3891
  107OSM   H18F11055   5.256   2.820   8.464  1.6058 -0.2329 -0.9807
  107OSM   H18G11056   5.216   2.657   8.438  0.5879 -0.9359  1.2696
  107OSM   H18H11057   5.375   2.678   8.506 -0.1080 -1.2281 -1.2027
  108OSM      N11058   5.588   6.582  10.660  0.0190  0.3939 -0.4560
  108OSM    C1511059   5.541   6.489  10.766  0.1038  0.1085  1.0423
  108OSM   H15A11060   5.554   6.384  10.748 -2.1991  0.0448 -0.6980
  108OSM   H15B11061   5.437   6.511  10.787 -0.5525  0.6012 -2.2240
  108OSM   H15C11062   5.597   6.502  10.857 -0.4044 -0.9321  1.5232
  108OSM    C1411063   5.738   6.570  10.645  0.0702 -0.5813  0.1553
  108OSM   H14A11064   5.759   6.609  10.546 -0.2537  0.1504  0.3730
  108OSM   H14B11065   5.771   6.467  10.654  0.7250 -0.3804  0.0999
  108OSM   H14C11066   5.802   6.616  10.718 -0.2090 -1.5836  1.0577
  108OSM    C1311067   5.525   6.528  10.526  0.9928  0.3590 -0.0535
  108OSM   H13A11068   5.417   6.526  10.525  0.9897 -1.7397 -0.6434
  108OSM   H13B11069   5.558   6.428  10.501  0.6126  0.2938 -0.2998
  108OSM   H13C11070   5.564   6.590  10.446  1.9246  2.7567  2.1318
  108OSM    C1211071   5.536   6.723  10.679  0.4035  0.2280 -0.3100
  108OSM   H12A11072   5.430   6.717  10.661  0.2122  3.0508 -0.6318
  108OSM   H12B11073   5.573   6.790  10.602  1.7955  2.1039  1.8173
  108OSM    C1111074   5.570   6.792  10.814 -0.1283  0.2577  0.5088
  108OSM   H11A11075   5.527   6.735  10.898 -1.4971  0.8244  0.2175
  108OSM   H11B11076   5.524   6.893  10.822  1.2627  1.1743 -1.8286
  108OSM      P11077   5.783   6.940  10.777 -0.0832  0.0041  0.2694
  108OSM    O1311078   5.797   7.030  10.900  0.1982  0.0422 -0.1975
  108OSM    O1411079   5.914   6.904  10.717  0.2001  0.1874 -0.0916
  108OSM    O1111080   5.692   6.995  10.667  0.1737  0.0233  0.1548
  108OSM    O1211081   5.712   6.804  10.831  0.1154  0.1548  0.5938
  108OSM    C1S11082   5.711   7.121  10.600 -0.2090 -0.2816 -0.5502
  108OSM    H1S11083   5.788   7.181  10.653 -1.2474 -0.0770  0.7563
  108OSM    H1T11084   5.621   7.187  10.606  1.3795  1.9946 -0.3594
  108OSM     NF11085   5.763   7.231  10.390 -0.3015 -0.3598 -0.4456
  108OSM    HNF11086   5.689   7.273  10.337 -0.8240  1.4245  1.5317
  108OSM    C2S11087   5.748   7.100  10.448  0.6386  0.3900  0.0318
  108OSM    H2S11088   5.848   7.054  10.460  0.5112  0.4459  1.5505
  108OSM    C3S11089   5.643   7.009  10.384 -0.3352  0.3136 -0.2973
  108OSM    H3S11090   5.540   7.031  10.419 -0.7526 -2.7019  0.6425
  108OSM     O311091   5.662   6.873  10.432  0.1810  0.2800 -0.1656
  108OSM    HO311092   5.725   6.887  10.502  1.0840  0.6731 -1.0336
  108OSM    C4S11093   5.664   7.004  10.239  0.7788 -0.0146 -0.2198
  108OSM    H4S11094   5.756   6.951  10.210  1.6454  1.4353 -0.2198
  108OSM    C5S11095   5.583   7.060  10.149 -0.6989 -0.4611  0.5083
  108OSM    H5S11096   5.493   7.117  10.178  0.3093  0.9760  0.9259
  108OSM    C6S11097   5.611   7.043  10.002 -0.7834  0.4702 -0.0859
  108OSM    H6S11098   5.515   7.056   9.947  0.6177 -1.4486 -3.3144
  108OSM    H6T11099   5.648   6.940   9.983  1.5113  1.0065  1.1227
  108OSM    C7S11100   5.717   7.148   9.954  0.3192  0.4457  0.4829
  108OSM    H7S11101   5.806   7.152  10.021  0.2770  1.4604  0.4944
  108OSM    H7T11102   5.677   7.252   9.949 -2.0295 -0.3369  1.7110
  108OSM    C8S11103   5.765   7.124   9.808 -0.1665  0.2872  0.0328
  108OSM    H8S11104   5.776   7.014   9.797 -1.3730  0.0942  0.5422
  108OSM    H8T11105   5.865   7.172   9.801  0.0632 -0.2436 -0.3788
  108OSM    C9S11106   5.673   7.171   9.696  0.1488  0.3441 -0.1073
  108OSM    H9S11107   5.669   7.281   9.681 -0.1719  0.1139 -1.9100
  108OSM    H9T11108   5.569   7.147   9.726 -0.2999  0.8496 -1.2221
  108OSM   C10S11109   5.699   7.103   9.558  0.2475  0.3272  0.1252
  108OSM   H10S11110   5.677   6.996   9.580 -0.4092  0.2679 -0.7480
  108OSM   H10T11111   5.807   7.107   9.535  0.4270 -0.3595  0.8029
  108OSM   C11S11112   5.610   7.167   9.448 -1.1818  0.3909 -0.0331
  108OSM   H11S11113   5.655   7.258   9.404 -0.1933 -0.8923 -1.8127
  108OSM   H11T11114   5.515   7.199   9.496 -1.4521 -1.6016  0.9027
  108OSM   C12S11115   5.585   7.063   9.337 -0.0466 -0.4820  0.4351
  108OSM   H12S11116   5.532   6.980   9.388 -1.0983  0.5474  1.0769
  108OSM   H12T11117   5.687   7.034   9.304 -1.2780 -2.3504 -2.0294
  108OSM   C13S11118   5.509   7.117   9.221 -0.2553  0.1490 -0.0161
  108OSM   H13S11119   5.419   7.158   9.271  0.3197  1.3950  0.0339
  108OSM   H13T11120   5.484   7.025   9.164 -0.5957  0.1486  0.1323
  108OSM   C14S11121   5.580   7.215   9.141 -0.7080 -0.6048  0.7534
  108OSM   H14S11122   5.689   7.194   9.130 -0.7981 -1.4799  1.4810
  108OSM   H14T11123   5.569   7.311   9.196  0.6872 -1.2799  2.2793
  108OSM   C15S11124   5.521   7.253   9.005 -0.0596 -0.2356  0.5412
  108OSM   H15S11125   5.424   7.302   9.030  0.5037 -0.1138  2.7290
  108OSM   H15T11126   5.511   7.162   8.943  0.0283  0.4050 -0.4251
  108OSM   C16S11127   5.623   7.337   8.933 -0.2699  0.4388  0.0289
  108OSM   H16S11128   5.724   7.294   8.952 -0.5341 -0.2079 -0.0229
  108OSM   H16T11129   5.616   7.441   8.970 -0.5341  0.8916 -1.2454
  108OSM   C17S11130   5.606   7.353   8.779 -0.1936  0.2791  0.0160
  108OSM   H17S11131   5.519   7.420   8.761  0.5034  0.8629 -1.3254
  108OSM   H17T11132   5.586   7.252   8.737 -0.6114  0.2891  0.1797
  108OSM   C18S11133   5.737   7.403   8.709 -0.0886 -0.0120  0.3186
  108OSM   H18S11134   5.771   7.493   8.764 -1.3283 -1.7351  4.2377
  108OSM   H18T11135   5.729   7.421   8.599  0.0715  0.9479  0.4560
  108OSM   H18U11136   5.820   7.333   8.733  1.5263  2.2241  1.6279
  108OSM    C1F11137   5.856   7.323  10.416 -0.1245  0.9322  0.5587
  108OSM     OF11138   5.938   7.298  10.504  0.0874  0.3967  0.4741
  108OSM    C2F11139   5.865   7.447  10.329 -0.2231 -0.3022 -0.4203
  108OSM    H2F11140   5.856   7.538  10.391  3.0635 -0.7581  0.9045
  108OSM    H2G11141   5.788   7.459  10.249 -2.7679 -0.4134  1.8718
  108OSM    C3F11142   6.004   7.452  10.261 -0.1241  0.0046  0.5456
  108OSM    H3F11143   6.073   7.429  10.345  0.9456 -0.4609 -0.4459
  108OSM    H3G11144   6.010   7.553  10.215  0.0822 -0.4099 -0.3498
  108OSM    C4F11145   6.022   7.346  10.151  0.0543  0.4489  0.0112
  108OSM    H4F11146   5.925   7.336  10.097 -0.0249  0.0326  0.2265
  108OSM    H4G11147   6.031   7.245  10.197  2.4221 -0.2400 -1.7395
  108OSM    C5F11148   6.143   7.371  10.058 -0.0829  0.0504  0.2857
  108OSM    H5F11149   6.227   7.341  10.124 -0.6726 -0.6718  0.7195
  108OSM    H5G11150   6.157   7.473  10.017  0.1913 -0.0773  0.0510
  108OSM    C6F11151   6.129   7.275   9.942  0.6667  0.2820 -0.1272
  108OSM    H6F11152   6.038   7.308   9.887 -1.2551 -0.9259  2.1287
  108OSM    H6G11153   6.097   7.179   9.988 -3.5368  2.5764  2.3219
  108OSM    C7F11154   6.245   7.271   9.831  0.1278 -0.5247 -0.4742
  108OSM    H7F11155   6.317   7.191   9.859 -1.2632 -1.2906  1.1097
  108OSM    H7G11156   6.297   7.368   9.845 -0.6491 -0.2936  1.1208
  108OSM    C8F11157   6.184   7.264   9.688 -0.3023  0.0838 -0.1076
  108OSM    H8F11158   6.106   7.186   9.701  0.9037 -1.3564 -1.1229
  108OSM    H8G11159   6.263   7.220   9.624 -0.4388 -0.0906 -0.1584
  108OSM    C9F11160   6.113   7.387   9.634  0.1018 -0.2804  0.0906
  108OSM    H9F11161   6.053   7.449   9.702 -0.7885 -2.7436  1.7065
  108OSM   C10F11162   6.110   7.417   9.499  0.3381  0.1092 -0.2114
  108OSM   H10F11163   6.037   7.496   9.477 -1.5541 -1.5228 -0.1484
  108OSM   C11F11164   6.177   7.342   9.386  0.4466  0.9921 -0.2379
  108OSM   H11F11165   6.213   7.239   9.405 -0.5008  0.4872 -1.0819
  108OSM   H11G11166   6.264   7.406   9.359 -1.7236  3.3990 -2.1100
  108OSM   C12F11167   6.068   7.332   9.275 -0.1122 -0.0368  0.3671
  108OSM   H12F11168   5.981   7.398   9.294  1.3677  2.0222  0.3349
  108OSM   H12G11169   6.014   7.235   9.278 -2.4576  1.0957 -1.7974
  108OSM   C13F11170   6.113   7.360   9.131 -0.1501 -0.3598  0.0165
  108OSM   H13F11171   6.018   7.346   9.075 -0.5729  1.6599  0.1587
  108OSM   H13G11172   6.190   7.287   9.099 -0.3958  0.0268 -1.5368
  108OSM   C14F11173   6.170   7.503   9.115 -0.2791 -0.0170  0.3843
  108OSM   H14F11174   6.264   7.511   9.175 -1.3437  0.7950  2.0252
  108OSM   H14G11175   6.104   7.582   9.156 -1.3457 -1.2982  1.1976
  108OSM   C15F11176   6.192   7.544   8.970 -0.4011 -0.3870  0.0301
  108OSM   H15F11177   6.267   7.485   8.913  0.9648  0.0961  1.2792
  108OSM   H15G11178   6.243   7.643   8.967  0.9303 -1.0283  0.9867
  108OSM   C16F11179   6.058   7.550   8.894 -0.1367 -0.1617  0.0375
  108OSM   H16F11180   5.987   7.613   8.951  0.5119  0.1231  0.5466
  108OSM   H16G11181   6.017   7.448   8.877  0.2419 -0.0096 -1.9611
  108OSM   C17F11182   6.059   7.612   8.753 -0.0859 -0.9180 -0.1887
  108OSM   H17F11183   5.957   7.609   8.711  0.8840 -0.1426 -2.8174
  108OSM   H17G11184   6.111   7.541   8.684 -0.4671 -0.2151 -1.2234
  108OSM   C18F11185   6.121   7.757   8.750 -0.9555  0.2226  0.7290
  108OSM   H18F11186   6.112   7.812   8.654 -0.4853  1.0438  1.1436
  108OSM   H18G11187   6.231   7.748   8.760 -0.9678 -1.4496 -0.3249
  108OSM   H18H11188   6.082   7.829   8.825 -3.0658 -0.2077  0.1223
  109OSM      N11189   0.081   6.625  10.709  0.3072  0.5155  0.1330
  109OSM    C1511190  -0.014   6.618  10.590 -0.7575  0.2536  0.0248
  109OSM   H15A11191   0.002   6.706  10.529 -0.8433  0.9880  1.0244
  109OSM   H15B11192  -0.110   6.642  10.634 -1.1672 -0.1703 -0.6295
  109OSM   H15C11193  -0.012   6.524  10.538 -0.5568 -0.1113  0.6757
  109OSM    C1411194   0.056   6.747  10.793 -0.3790  0.4735 -0.1101
  109OSM   H14A11195   0.056   6.834  10.730 -1.0736 -0.9375 -2.1334
  109OSM   H14B11196   0.139   6.759  10.862 -1.2389 -1.4804  1.3680
  109OSM   H14C11197  -0.039   6.744  10.844 -0.7434  0.3363 -0.7969
  109OSM    C1311198   0.047   6.503  10.789  0.1256 -0.2297  0.4560
  109OSM   H13A11199   0.114   6.491  10.873 -0.7855 -0.2082  1.1899
  109OSM   H13B11200   0.061   6.412  10.733 -0.1453 -0.0467  0.0848
  109OSM   H13C11201  -0.058   6.496  10.812  0.1107 -2.4265 -0.0858
  109OSM    C1211202   0.220   6.606  10.662 -0.2915 -0.0793  0.3181
  109OSM   H12A11203   0.247   6.692  10.602 -0.9154 -0.9638 -1.3079
  109OSM   H12B11204   0.225   6.527  10.588 -1.3326 -1.1763  1.3593
  109OSM    C1111205   0.324   6.598  10.771 -0.0308 -0.5403  0.1824
  109OSM   H11A11206   0.421   6.588  10.717  0.8956  1.6076  1.3153
  109OSM   H11B11207   0.312   6.509  10.835  1.6943 -0.3165  0.8964
  109OSM      P11208   0.381   6.853  10.801  0.4873  0.1091 -0.0325
  109OSM    O1311209   0.271   6.951  10.814 -0.2875  0.7767  0.0495
  109OSM    O1411210   0.500   6.877  10.883  0.1272  0.5858 -0.1764
  109OSM    O1111211   0.413   6.824  10.648 -0.0497  0.3626 -0.1925
  109OSM    O1211212   0.319   6.716  10.853 -0.0817 -0.2534 -0.2627
  109OSM    C1S11213   0.552   6.821  10.602  0.2074 -0.1293  0.3050
  109OSM    H1S11214   0.608   6.735  10.643  0.8695 -0.4314 -1.1805
  109OSM    H1T11215   0.600   6.918  10.626 -0.4407  0.2045  0.2821
  109OSM     NF11216   0.705   6.784  10.413 -0.2664  0.7155 -0.4072
  109OSM    HNF11217   0.758   6.864  10.388  0.4519 -0.2978 -2.2877
  109OSM    C2S11218   0.560   6.809  10.447  0.2349  0.0791  0.0081
  109OSM    H2S11219   0.497   6.722  10.419 -0.3239 -0.2308  2.1306
  109OSM    C3S11220   0.499   6.936  10.385 -0.5948  0.1822  0.5778
  109OSM    H3S11221   0.560   7.023  10.417  2.0628 -2.0080  1.8621
  109OSM     O311222   0.370   6.972  10.430 -0.2697  0.0823 -0.1661
  109OSM    HO311223   0.359   6.916  10.508  0.8285  0.9717  0.6594
  109OSM    C4S11224   0.509   6.931  10.235 -0.9369  0.1577  1.1662
  109OSM    H4S11225   0.446   6.858  10.183  1.6785  1.1765 -4.1246
  109OSM    C5S11226   0.592   7.010  10.166  0.0034 -0.2164  0.3741
  109OSM    H5S11227   0.653   7.090  10.211 -0.8786 -0.4884  2.1203
  109OSM    C6S11228   0.618   7.003  10.013  0.6615 -1.0198 -0.8070
  109OSM    H6S11229   0.695   6.923  10.009  0.7546 -1.1927  2.0728
  109OSM    H6T11230   0.674   7.092   9.980  1.0372 -0.1072  2.0024
  109OSM    C7S11231   0.496   6.961   9.924  0.3338  0.1998  0.0051
  109OSM    H7S11232   0.421   7.043   9.921  2.0652  1.9497  2.0179
  109OSM    H7T11233   0.434   6.874   9.956  0.3157 -0.2353 -1.1336
  109OSM    C8S11234   0.530   6.960   9.768  0.0618  0.1840 -0.1455
  109OSM    H8S11235   0.568   6.856   9.753  0.3504  0.0819  1.1723
  109OSM    H8T11236   0.622   7.021   9.758  0.6609 -0.6428  0.1668
  109OSM    C9S11237   0.413   7.000   9.681  0.2256  0.6883  0.7422
  109OSM    H9S11238   0.361   7.090   9.720  1.7455  0.7058  2.8790
  109OSM    H9T11239   0.339   6.916   9.681  0.3012  0.3823 -3.4827
  109OSM   C10S11240   0.462   7.005   9.537  0.3058  0.0598  0.1695
  109OSM   H10S11241   0.519   6.914   9.509 -0.2798 -0.7093  1.3959
  109OSM   H10T11242   0.536   7.088   9.541  0.7884 -0.3408 -0.2636
  109OSM   C11S11243   0.349   7.035   9.442 -0.3437 -0.3404 -0.3738
  109OSM   H11S11244   0.307   7.127   9.489  1.0294  1.3319 -2.2405
  109OSM   H11T11245   0.274   6.954   9.440  0.0845 -0.7272 -1.8232
  109OSM   C12S11246   0.404   7.073   9.301  0.5164 -0.5834  0.9686
  109OSM   H12S11247   0.447   6.978   9.262 -0.8228 -1.0045  0.4456
  109OSM   H12T11248   0.484   7.149   9.313  0.1379 -0.0947  0.4547
  109OSM   C13S11249   0.280   7.122   9.218  0.0273  0.0180  0.1624
  109OSM   H13S11250   0.219   7.202   9.266  0.6923  0.3524  0.4522
  109OSM   H13T11251   0.212   7.034   9.210  1.6728 -1.1603 -1.6899
  109OSM   C14S11252   0.328   7.159   9.074  0.4577  0.0071 -0.4018
  109OSM   H14S11253   0.391   7.077   9.032 -1.0007 -0.9475 -0.8135
  109OSM   H14T11254   0.392   7.249   9.086  0.3483 -0.0253  0.4693
  109OSM   C15S11255   0.217   7.182   8.974 -0.5173 -0.5388  0.1602
  109OSM   H15S11256   0.153   7.092   8.959  0.7366 -1.0723 -2.5262
  109OSM   H15T11257   0.262   7.201   8.874 -1.1418 -0.6697 -0.1486
  109OSM   C16S11258   0.120   7.295   9.011  0.4389 -0.2249  0.4563
  109OSM   H16S11259   0.178   7.386   9.039 -0.2386  0.3871 -0.0720
  109OSM   H16T11260   0.072   7.263   9.105 -2.9429  0.6010 -0.8338
  109OSM   C17S11261   0.003   7.326   8.905 -1.0100  0.2174 -0.0013
  109OSM   H17S11262  -0.071   7.381   8.967 -1.0383  0.5158 -0.3035
  109OSM   H17T11263  -0.040   7.231   8.866 -1.5476 -0.4462  2.0592
  109OSM   C18S11264   0.048   7.425   8.801 -0.2386 -0.2730 -0.1265
  109OSM   H18S11265  -0.030   7.435   8.723 -0.2270  2.6240  0.1513
  109OSM   H18T11266   0.134   7.378   8.748  0.9321  1.2598  0.3329
  109OSM   H18U11267   0.071   7.527   8.839  0.5883  0.2815 -1.9982
  109OSM    C1F11268   0.760   6.666  10.438  0.3253 -0.1901 -0.5725
  109OSM     OF11269   0.694   6.580  10.499  0.6603  0.2127  0.3996
  109OSM    C2F11270   0.904   6.646  10.396 -0.0833  0.1312  0.1914
  109OSM    H2F11271   0.908   6.541  10.361 -1.4390  0.6267 -1.6542
  109OSM    H2G11272   0.964   6.666  10.487 -1.4078 -0.2194  1.1718
  109OSM    C3F11273   0.949   6.734  10.272 -0.0066 -0.3080 -0.1223
  109OSM    H3F11274   1.058   6.723  10.249 -0.4261 -3.1988 -1.2629
  109OSM    H3G11275   0.933   6.841  10.297 -3.0322 -0.6155 -0.4197
  109OSM    C4F11276   0.883   6.697  10.139  0.3861 -0.6087  0.8396
  109OSM    H4F11277   0.783   6.741  10.158  0.2917 -1.2619  1.9845
  109OSM    H4G11278   0.876   6.588  10.123  1.1091 -0.4033 -1.0710
  109OSM    C5F11279   0.943   6.763  10.015 -0.0995 -0.4814  1.2190
  109OSM    H5F11280   1.049   6.729  10.012  0.1092  0.1826 -1.2328
  109OSM    H5G11281   0.944   6.874  10.023  0.3089 -0.2899 -0.9054
  109OSM    C6F11282   0.885   6.714   9.879 -0.2011 -0.5389  0.2846
  109OSM    H6F11283   0.780   6.747   9.894 -0.0238 -0.8051  2.5930
  109OSM    H6G11284   0.883   6.603   9.878  0.4796 -0.5721  0.9583
  109OSM    C7F11285   0.946   6.780   9.753 -0.4091 -0.1233 -0.6238
  109OSM    H7F11286   1.052   6.747   9.747 -0.5033 -0.8676  1.2717
  109OSM    H7G11287   0.932   6.886   9.782 -1.5547  0.0054 -1.5627
  109OSM    C8F11288   0.867   6.739   9.633 -0.0961 -0.3371  0.4580
  109OSM    H8F11289   0.758   6.757   9.642  0.2064  2.5185 -0.6142
  109OSM    H8G11290   0.877   6.628   9.630 -1.1683 -0.4422  0.4498
  109OSM    C9F11291   0.927   6.807   9.512  0.0860 -0.0233 -0.2168
  109OSM    H9F11292   0.933   6.915   9.530 -0.2874 -0.2692  1.6499
  109OSM   C10F11293   0.957   6.745   9.395 -0.5291 -0.6617 -0.2664
  109OSM   H10F11294   0.990   6.820   9.322  0.5287  0.0123  0.8682
  109OSM   C11F11295   0.943   6.599   9.355  0.4255  0.2548  0.0275
  109OSM   H11F11296   0.874   6.545   9.424 -0.6729 -0.8241 -1.8425
  109OSM   H11G11297   1.042   6.552   9.336 -0.1364 -0.7920 -0.4240
  109OSM   C12F11298   0.865   6.580   9.221  0.0499 -0.1110  0.1766
  109OSM   H12F11299   0.768   6.635   9.228 -0.1334 -0.1582 -1.5191
  109OSM   H12G11300   0.830   6.476   9.208  0.0729 -0.1641  0.5252
  109OSM   C13F11301   0.944   6.637   9.107  0.1933 -0.7020 -1.0146
  109OSM   H13F11302   0.989   6.566   9.034  4.0242  0.9497 -0.5169
  109OSM   H13G11303   1.038   6.679   9.149 -0.4053 -1.1325  0.8539
  109OSM   C14F11304   0.875   6.750   9.033  0.3485 -1.2081  0.7586
  109OSM   H14F11305   0.900   6.848   9.079 -0.6022 -0.3964 -0.3923
  109OSM   H14G11306   0.766   6.733   9.018 -0.6172  3.5816  0.6129
  109OSM   C15F11307   0.919   6.764   8.884 -0.4300  0.1395 -0.0645
  109OSM   H15F11308   0.862   6.845   8.832 -0.8109 -0.4169 -0.5304
  109OSM   H15G11309   0.886   6.674   8.827  2.0544 -0.9010  0.0364
  109OSM   C16F11310   1.071   6.796   8.856  0.3727  0.1958  0.1438
  109OSM   H16F11311   1.134   6.706   8.872  0.1171  0.2389  1.5372
  109OSM   H16G11312   1.106   6.874   8.926  0.5525  0.6793 -0.4780
  109OSM   C17F11313   1.110   6.836   8.712  0.0251  0.2853 -0.2779
  109OSM   H17F11314   1.021   6.901   8.697 -1.9052 -1.5210  2.3281
  109OSM   H17G11315   1.095   6.752   8.640 -1.8820  1.1318 -0.9465
  109OSM   C18F11316   1.248   6.904   8.704 -0.1989  0.1186  0.7692
  109OSM   H18F11317   1.244   6.993   8.771 -0.2888  1.4444 -0.9184
  109OSM   H18G11318   1.259   6.953   8.605  1.3683  0.5173  1.1115
  109OSM   H18H11319   1.337   6.843   8.728 -0.3077 -0.5171 -0.3863
  110OSM      N11320   2.171   6.606  10.961 -0.4751  0.5221  0.0059
  110OSM    C1511321   2.065   6.613  10.859  0.5459 -0.4349  0.1045
  110OSM   H15A11322   1.973   6.566  10.892  2.2744 -3.4654  0.9739
  110OSM   H15B11323   2.093   6.571  10.764 -0.0239  2.0437 -1.2689
  110OSM   H15C11324   2.048   6.718  10.840  0.6467 -0.0902  1.7932
  110OSM    C1411325   2.158   6.718  11.060  0.1055 -0.0216  0.4816
  110OSM   H14A11326   2.067   6.709  11.117  1.3723 -1.7745  2.3814
  110OSM   H14B11327   2.144   6.815  11.016  2.0892 -0.6361 -1.6738
  110OSM   H14C11328   2.236   6.715  11.134 -0.0197 -2.8242  0.6028
  110OSM    C1311329   2.172   6.482  11.043  0.6111  0.5595 -0.7277
  110OSM   H13A11330   2.267   6.475  11.095  1.8632  3.6498 -2.3210
  110OSM   H13B11331   2.179   6.400  10.974 -1.3606 -1.1248  0.9243
  110OSM   H13C11332   2.081   6.469  11.100  0.4824  2.2524 -0.5145
  110OSM    C1211333   2.307   6.624  10.890 -0.3450  0.8233 -0.9800
  110OSM   H12A11334   2.305   6.729  10.864 -2.5389  1.3155  0.9510
  110OSM   H12B11335   2.298   6.563  10.801  0.9829 -1.2347  0.2084
  110OSM    C1111336   2.439   6.612  10.972  1.0362  0.1930 -0.3802
  110OSM   H11A11337   2.522   6.625  10.899 -0.3185  0.0708 -1.9846
  110OSM   H11B11338   2.452   6.512  11.019  2.5681  0.6609  0.2807
  110OSM      P11339   2.489   6.859  11.051 -0.0683 -0.1189  0.1271
  110OSM    O1311340   2.442   6.949  11.161  0.1141 -0.9929  0.6372
  110OSM    O1411341   2.638   6.854  11.029  0.2527 -0.1500  0.0424
  110OSM    O1111342   2.419   6.906  10.913  0.7927 -0.6511 -0.2857
  110OSM    O1211343   2.444   6.709  11.079  0.1304  0.0304 -0.1241
  110OSM    C1S11344   2.458   7.016  10.836  0.0916 -0.4242  0.9303
  110OSM    H1S11345   2.566   7.035  10.850  1.1761 -2.6758 -2.8848
  110OSM    H1T11346   2.399   7.106  10.864  0.4424  0.3472 -0.7400
  110OSM     NF11347   2.482   7.125  10.615 -0.9134 -0.2350 -1.2025
  110OSM    HNF11348   2.416   7.198  10.601 -0.4934  0.3674 -0.1512
  110OSM    C2S11349   2.431   7.004  10.685  0.1558 -0.4125 -0.6185
  110OSM    H2S11350   2.484   6.913  10.648 -0.0718 -0.6759 -0.3135
  110OSM    C3S11351   2.279   6.982  10.661 -0.3978 -0.3733  0.3290
  110OSM    H3S11352   2.210   7.069  10.669  0.6820  0.5038  0.2965
  110OSM     O311353   2.215   6.886  10.742  0.7885  0.6407  0.2169
  110OSM    HO311354   2.285   6.880  10.808 -0.2452  1.1039  1.3847
  110OSM    C4S11355   2.271   6.950  10.509  0.1525 -0.6617  0.3495
  110OSM    H4S11356   2.265   7.038  10.444 -3.2216 -0.6352  0.4813
  110OSM    C5S11357   2.253   6.830  10.455  0.3883 -0.0960 -0.0189
  110OSM    H5S11358   2.244   6.742  10.519  0.7333 -0.1675 -0.0650
  110OSM    C6S11359   2.234   6.795  10.305 -0.1725  0.6415 -0.3432
  110OSM    H6S11360   2.149   6.727  10.285 -1.0958  1.7945 -0.4165
  110OSM    H6T11361   2.324   6.749  10.258  1.0958  3.1978 -0.5713
  110OSM    C7S11362   2.195   6.923  10.217 -0.1114 -0.0629  0.1574
  110OSM    H7S11363   2.276   6.998  10.223  0.0833 -0.2118 -0.5174
  110OSM    H7T11364   2.096   6.966  10.242 -0.5884 -0.2894 -1.2294
  110OSM    C8S11365   2.169   6.881  10.075 -0.1343  0.4095  0.1176
  110OSM    H8S11366   2.083   6.809  10.076  0.3268 -0.1526 -0.0608
  110OSM    H8T11367   2.254   6.814  10.051 -0.3706  0.4578 -0.8791
  110OSM    C9S11368   2.131   6.995   9.981  0.1926  0.1453  0.4694
  110OSM    H9S11369   2.215   7.065   9.957 -0.8485  0.8851 -1.2214
  110OSM    H9T11370   2.056   7.058  10.032  0.0246 -0.0515  0.4638
  110OSM   C10S11371   2.093   6.948   9.838 -0.3763 -0.3159 -0.2734
  110OSM   H10S11372   2.049   7.038   9.790  0.9462  1.3377  1.4275
  110OSM   H10T11373   2.013   6.871   9.838 -0.5099 -0.1851 -1.0944
  110OSM   C11S11374   2.202   6.888   9.747 -0.1296  0.2972  0.0712
  110OSM   H11S11375   2.258   6.817   9.812  0.3826  1.0709  0.4934
  110OSM   H11T11376   2.272   6.970   9.721 -0.1134  0.3610  0.3130
  110OSM   C12S11377   2.135   6.825   9.626  0.1598  0.4016  0.4007
  110OSM   H12S11378   2.087   6.903   9.563 -0.2858 -0.6509 -0.6036
  110OSM   H12T11379   2.064   6.745   9.659 -0.8412  1.3791  0.6899
  110OSM   C13S11380   2.234   6.771   9.522 -0.0588  0.1562 -0.0682
  110OSM   H13S11381   2.278   6.682   9.572 -0.2067 -0.2404 -0.6415
  110OSM   H13T11382   2.315   6.840   9.488  1.3662 -1.2433  0.3519
  110OSM   C14S11383   2.166   6.731   9.387 -0.1964  0.3526 -0.2440
  110OSM   H14S11384   2.243   6.724   9.307 -2.8666 -0.1173 -2.9465
  110OSM   H14T11385   2.094   6.813   9.367 -1.3576 -0.8323 -1.0135
  110OSM   C15S11386   2.101   6.595   9.394 -0.2517  0.5205  0.2897
  110OSM   H15S11387   1.999   6.615   9.432 -0.3178  1.8718 -0.5364
  110OSM   H15T11388   2.141   6.540   9.483  2.3245  0.8521 -0.5909
  110OSM   C16S11389   2.119   6.515   9.262 -0.1603 -0.5578 -0.2419
  110OSM   H16S11390   2.226   6.530   9.235 -0.0387  1.0871  0.9765
  110OSM   H16T11391   2.064   6.564   9.179  2.5445 -2.1577 -3.1654
  110OSM   C17S11392   2.080   6.365   9.280  0.0038  0.1994 -0.7111
  110OSM   H17S11393   1.975   6.343   9.310 -0.7295  0.6966 -2.6898
  110OSM   H17T11394   2.145   6.308   9.349  0.5252  1.1757 -0.3729
  110OSM   C18S11395   2.085   6.291   9.144  0.0778  0.4432  0.2961
  110OSM   H18S11396   2.012   6.336   9.074  0.9489  0.3796 -0.6744
  110OSM   H18T11397   2.053   6.185   9.149  1.6059 -0.0234  1.1269
  110OSM   H18U11398   2.188   6.295   9.102  0.3231  2.9973  0.9524
  110OSM    C1F11399   2.613   7.151  10.597  1.0336  0.1399 -0.4729
  110OSM     OF11400   2.695   7.070  10.643  0.0278  0.0519 -0.0991
  110OSM    C2F11401   2.652   7.288  10.544  0.7882  0.0751 -0.6201
  110OSM    H2F11402   2.737   7.320  10.608  1.5360  1.0482 -2.0438
  110OSM    H2G11403   2.564   7.355  10.550 -1.7933 -3.1859  0.9296
  110OSM    C3F11404   2.691   7.288  10.399  0.8674  0.2369  1.1359
  110OSM    H3F11405   2.780   7.224  10.376  1.5003  1.1743  0.9348
  110OSM    H3G11406   2.720   7.389  10.365 -2.3743  0.3846 -1.7040
  110OSM    C4F11407   2.572   7.236  10.315  0.0782  0.2482  0.2977
  110OSM    H4F11408   2.480   7.274  10.363 -0.2085 -0.8242  0.6221
  110OSM    H4G11409   2.562   7.126  10.330 -0.7041  0.0142 -1.7290
  110OSM    C5F11410   2.592   7.258  10.164 -0.0233  0.3311  0.0093
  110OSM    H5F11411   2.687   7.220  10.120 -0.3764  2.1940 -2.5641
  110OSM    H5G11412   2.600   7.369  10.161 -1.8746  0.4814 -1.4970
  110OSM    C6F11413   2.464   7.234  10.077  0.2712 -0.0372 -0.6499
  110OSM    H6F11414   2.379   7.254  10.146  1.6511  1.7104  0.6204
  110OSM    H6G11415   2.453   7.124  10.063 -1.4946 -0.1264  1.0734
  110OSM    C7F11416   2.475   7.311   9.941 -0.2010  0.6779 -0.0489
  110OSM    H7F11417   2.556   7.272   9.876 -1.2578  0.4600 -1.2852
  110OSM    H7G11418   2.506   7.416   9.958  1.8487  0.1141  0.0145
  110OSM    C8F11419   2.345   7.322   9.872  0.0283  0.4965  1.1064
  110OSM    H8F11420   2.267   7.365   9.938  0.3869 -0.3295  2.1011
  110OSM    H8G11421   2.315   7.217   9.848  1.0137  0.6281 -0.8911
  110OSM    C9F11422   2.365   7.405   9.752 -0.4663 -0.1473 -0.5715
  110OSM    H9F11423   2.405   7.504   9.776 -0.2670 -0.2441 -0.5013
  110OSM   C10F11424   2.332   7.389   9.624 -0.6439  0.7297  0.6467
  110OSM   H10F11425   2.377   7.464   9.558  0.4844 -1.2622 -0.9927
  110OSM   C11F11426   2.267   7.274   9.548 -0.5427 -0.5315 -0.4569
  110OSM   H11F11427   2.214   7.205   9.616 -1.3290  0.7290  0.2489
  110OSM   H11G11428   2.337   7.211   9.489  0.6249 -0.3511  0.6660
  110OSM   C12F11429   2.188   7.340   9.433 -0.2175  0.4822  0.0403
  110OSM   H12F11430   2.248   7.408   9.370 -1.1627  0.4610 -0.9243
  110OSM   H12G11431   2.106   7.403   9.475  0.2950  2.8613 -2.2666
  110OSM   C13F11432   2.132   7.239   9.327 -0.7625  0.8667 -0.8656
  110OSM   H13F11433   2.090   7.149   9.377 -0.7798  0.9741 -0.6893
  110OSM   H13G11434   2.222   7.213   9.267 -1.3004 -5.1591  0.2912
  110OSM   C14F11435   2.019   7.314   9.258 -0.0542 -0.7010  0.2495
  110OSM   H14F11436   2.056   7.406   9.208  1.0448 -1.6802 -0.8310
  110OSM   H14G11437   1.946   7.339   9.337  0.3274  0.1568  0.3437
  110OSM   C15F11438   1.938   7.223   9.156 -0.9358 -0.2927 -0.7377
  110OSM   H15F11439   1.946   7.121   9.200  0.6090  0.4318  0.7565
  110OSM   H15G11440   1.985   7.219   9.055 -0.0706  1.6118 -0.4518
  110OSM   C16F11441   1.796   7.275   9.145 -0.9614  0.8634  0.3514
  110OSM   H16F11442   1.807   7.379   9.109  2.0563  0.2552 -0.7990
  110OSM   H16G11443   1.737   7.268   9.239 -0.6414  0.4856  0.5299
  110OSM   C17F11444   1.716   7.204   9.037  0.7094 -0.5050 -0.2589
  110OSM   H17F11445   1.755   7.234   8.937  1.1750  3.0554  0.8542
  110OSM   H17G11446   1.615   7.250   9.033  0.9844  0.1953  0.5416
  110OSM   C18F11447   1.698   7.049   9.037 -0.4801 -0.2892  0.2818
  110OSM   H18F11448   1.795   6.996   9.026 -1.1276 -1.2157 -1.2385
  110OSM   H18G11449   1.645   7.014   8.947  2.7635  1.7097 -2.6844
  110OSM   H18H11450   1.662   7.008   9.134 -0.6722  1.0982  0.8134
  111OSM      N11451   2.525   5.185  10.997  0.1776 -0.1371  0.3367
  111OSM    C1511452   2.611   5.136  10.884 -0.2380  0.3329 -0.0353
  111OSM   H15A11453   2.677   5.213  10.845  1.4849 -1.9305 -1.8892
  111OSM   H15B11454   2.544   5.106  10.805 -1.0419  1.6196  0.1263
  111OSM   H15C11455   2.678   5.058  10.916  1.7359  1.8745 -0.1650
  111OSM    C1411456   2.620   5.222  11.110  0.5084 -1.2750  0.2116
  111OSM   H14A11457   2.562   5.258  11.194 -0.6929 -0.6279 -0.8709
  111OSM   H14B11458   2.681   5.308  11.084 -0.4011 -0.2159  1.4321
  111OSM   H14C11459   2.681   5.136  11.131  1.4771 -0.4089  1.0513
  111OSM    C1311460   2.449   5.309  10.958 -0.2103  0.5805 -0.2094
  111OSM   H13A11461   2.392   5.347  11.041 -2.6626  0.2340 -1.6300
  111OSM   H13B11462   2.372   5.292  10.883 -0.5985  0.1855  0.2724
  111OSM   H13C11463   2.529   5.376  10.931  0.6976  0.4717  2.0546
  111OSM    C1211464   2.436   5.081  11.053  0.6580 -0.3356  0.1458
  111OSM   H12A11465   2.414   5.110  11.155  2.2647 -0.2263  0.4819
  111OSM   H12B11466   2.499   4.997  11.078  0.1269 -0.4472  1.1567
  111OSM    C1111467   2.305   5.031  10.977  0.3447  0.0456  0.2492
  111OSM   H11A11468   2.250   5.125  10.953  0.5564  0.1389  0.1274
  111OSM   H11B11469   2.238   4.965  11.037  0.8450  0.0485  0.8238
  111OSM      P11470   2.387   4.828  10.840  0.0016 -0.0120 -0.1561
  111OSM    O1311471   2.471   4.819  10.715  0.0854 -0.2791 -1.0286
  111OSM    O1411472   2.439   4.784  10.974  0.2135  0.7482  0.2253
  111OSM    O1111473   2.257   4.742  10.813  0.1075  0.0559 -0.3702
  111OSM    O1211474   2.343   4.977  10.849  0.3223 -0.3403  0.3528
  111OSM    C1S11475   2.132   4.799  10.769  0.1486  0.0481  0.4584
  111OSM    H1S11476   2.111   4.900  10.808  0.2394  1.3309 -2.5185
  111OSM    H1T11477   2.046   4.735  10.800 -0.1073  1.0513  1.8860
  111OSM     NF11478   1.992   4.902  10.585 -0.5204  0.0325 -0.1111
  111OSM    HNF11479   1.916   4.845  10.555  0.9115 -2.8274  1.2368
  111OSM    C2S11480   2.116   4.824  10.613  0.2667  0.5221 -0.0267
  111OSM    H2S11481   2.207   4.883  10.589  0.9760 -0.4227  0.2672
  111OSM    C3S11482   2.117   4.685  10.545 -0.5630 -0.6157 -0.2133
  111OSM    H3S11483   2.026   4.625  10.566 -0.6822 -0.1562  0.5916
  111OSM     O311484   2.230   4.598  10.574  0.0434 -0.0562 -0.1786
  111OSM    HO311485   2.289   4.647  10.631 -1.5038  2.3187 -0.4594
  111OSM    C4S11486   2.124   4.720  10.397  0.0793  0.1077  0.4158
  111OSM    H4S11487   2.216   4.771  10.365  0.1498  1.7898  3.0226
  111OSM    C5S11488   2.027   4.692  10.313  0.8169 -0.0815 -0.4749
  111OSM    H5S11489   1.929   4.648  10.338  0.7561  0.3622  0.0868
  111OSM    C6S11490   2.030   4.731  10.167 -0.5431 -0.4717  0.4841
  111OSM    H6S11491   2.084   4.656  10.106 -0.2510  0.5452 -0.5360
  111OSM    H6T11492   2.093   4.821  10.152  0.5831 -1.2677  0.2427
  111OSM    C7S11493   1.893   4.751  10.099  0.0829  0.3187  0.3704
  111OSM    H7S11494   1.827   4.812  10.164 -0.6682  0.6998 -0.7290
  111OSM    H7T11495   1.862   4.645  10.086  1.7571  0.0517 -2.0603
  111OSM    C8S11496   1.890   4.824   9.965  0.2925 -0.7177 -0.2532
  111OSM    H8S11497   1.935   4.924   9.982 -1.4644  0.3759 -1.6265
  111OSM    H8T11498   1.781   4.836   9.945  0.3394 -1.2191 -0.8439
  111OSM    C9S11499   1.963   4.750   9.858  1.1450  0.0638 -0.1270
  111OSM    H9S11500   2.063   4.717   9.893  0.0802 -1.6621  1.4593
  111OSM    H9T11501   1.988   4.813   9.769  0.0802 -2.2030 -2.1480
  111OSM   C10S11502   1.887   4.631   9.797 -0.1678  0.1645  0.3549
  111OSM   H10S11503   1.781   4.660   9.779 -0.9548 -2.1279  0.8812
  111OSM   H10T11504   1.870   4.549   9.870 -0.7574 -1.4373 -1.4890
  111OSM   C11S11505   1.956   4.569   9.671  0.5307 -0.1266  0.0667
  111OSM   H11S11506   2.037   4.508   9.716  0.1782 -1.0218 -0.5059
  111OSM   H11T11507   1.973   4.648   9.594 -1.2557  0.6416  0.3976
  111OSM   C12S11508   1.870   4.462   9.601  0.0134 -0.3745  0.9078
  111OSM   H12S11509   1.790   4.521   9.551 -1.0262 -1.7332  0.9233
  111OSM   H12T11510   1.833   4.377   9.662 -1.9514 -0.2745 -0.0626
  111OSM   C13S11511   1.947   4.394   9.481 -0.2907  0.0126 -1.1053
  111OSM   H13S11512   1.863   4.349   9.423 -1.0082  2.1939 -1.8454
  111OSM   H13T11513   2.011   4.308   9.511 -1.3600 -0.7852 -1.0557
  111OSM   C14S11514   2.039   4.480   9.387  0.6454 -0.3078 -0.7455
  111OSM   H14S11515   2.107   4.417   9.325 -0.0761 -3.3579  1.3538
  111OSM   H14T11516   2.109   4.545   9.444 -2.0142  1.0344  1.1791
  111OSM   C15S11517   1.958   4.581   9.304 -0.4643 -0.6872 -0.1960
  111OSM   H15S11518   1.905   4.650   9.373  0.1226 -1.3833  0.9847
  111OSM   H15T11519   1.879   4.530   9.246 -0.9028  0.2078 -0.4070
  111OSM   C16S11520   2.040   4.665   9.210 -0.6814 -0.0131  0.0857
  111OSM   H16S11521   1.973   4.719   9.139 -1.1160 -3.9429 -2.8218
  111OSM   H16T11522   2.088   4.588   9.146 -1.7163 -1.1912  0.6808
  111OSM   C17S11523   2.144   4.762   9.275  0.0633  0.4056 -0.2411
  111OSM   H17S11524   2.198   4.804   9.187  0.6753 -1.2107 -0.6893
  111OSM   H17T11525   2.215   4.711   9.344 -1.2686 -2.6573 -0.9583
  111OSM   C18S11526   2.075   4.878   9.334  0.4140 -0.0282  0.3991
  111OSM   H18S11527   2.146   4.955   9.370  1.8774  0.1370 -2.5223
  111OSM   H18T11528   2.028   4.837   9.426 -1.9539 -0.2532 -0.8410
  111OSM   H18U11529   1.987   4.920   9.282  0.8877  1.4958  0.7718
  111OSM    C1F11530   1.977   5.029  10.613  0.3209 -0.2820 -0.3897
  111OSM     OF11531   2.067   5.102  10.660  0.6044 -0.4630 -0.0938
  111OSM    C2F11532   1.848   5.086  10.571 -0.0286  0.1152  0.1103
  111OSM    H2F11533   1.822   5.169  10.640 -1.0619 -1.4028  1.6343
  111OSM    H2G11534   1.769   5.009  10.557  0.8937 -0.8168 -0.1398
  111OSM    C3F11535   1.859   5.168  10.438 -0.5386 -0.9254  0.4044
  111OSM    H3F11536   1.954   5.226  10.442 -0.6730 -0.7406  1.0606
  111OSM    H3G11537   1.782   5.247  10.434  0.5833  0.1759 -0.5218
  111OSM    C4F11538   1.852   5.088  10.311  0.5594 -0.0842 -0.0139
  111OSM    H4F11539   1.746   5.056  10.296  0.7115  0.4997 -2.9144
  111OSM    H4G11540   1.901   4.989  10.326 -0.1053 -0.1777  1.7860
  111OSM    C5F11541   1.910   5.164  10.189 -0.1404 -0.4680 -0.5642
  111OSM    H5F11542   1.855   5.255  10.157 -1.2488 -0.6160  0.7908
  111OSM    H5G11543   1.914   5.093  10.104 -1.1357  0.2543 -1.2388
  111OSM    C6F11544   2.060   5.213  10.196  0.5041  0.1428  0.3316
  111OSM    H6F11545   2.074   5.291  10.274 -0.9883 -1.8955  2.8117
  111OSM    H6G11546   2.087   5.262  10.099  2.0335 -1.1176  0.0933
  111OSM    C7F11547   2.166   5.100  10.206 -0.1162  0.7193 -0.5647
  111OSM    H7F11548   2.169   5.048  10.108 -0.0788 -0.4866  0.0547
  111OSM    H7G11549   2.136   5.037  10.293 -1.5389  0.0782 -1.4710
  111OSM    C8F11550   2.304   5.157  10.236 -0.3915  0.3705  0.3966
  111OSM    H8F11551   2.307   5.225  10.323  2.2431  0.5293  0.2557
  111OSM    H8G11552   2.336   5.219  10.150 -1.3181 -0.0603 -0.2736
  111OSM    C9F11553   2.401   5.041  10.252  0.6391  0.1778  0.5504
  111OSM    H9F11554   2.403   5.003  10.355  1.2692  0.3152  0.5937
  111OSM   C10F11555   2.453   4.971  10.156 -1.0867  0.3047 -0.2957
  111OSM   H10F11556   2.510   4.883  10.190  0.9868  2.0471  0.9488
  111OSM   C11F11557   2.432   4.984  10.004 -0.3354 -0.4114 -0.3628
  111OSM   H11F11558   2.526   5.025   9.961 -0.7134  0.0257 -0.7806
  111OSM   H11G11559   2.349   5.056   9.987 -0.1628  0.0812  0.7387
  111OSM   C12F11560   2.394   4.838   9.953 -0.1360 -0.2804  0.2510
  111OSM   H12F11561   2.307   4.804  10.013 -0.3461  0.8867  0.6304
  111OSM   H12G11562   2.479   4.769   9.971  1.1337  1.1888  0.0883
  111OSM   C13F11563   2.340   4.837   9.802 -0.6415  0.3787 -0.0541
  111OSM   H13F11564   2.258   4.912   9.793 -1.1030 -0.2842 -1.6356
  111OSM   H13G11565   2.293   4.738   9.782 -1.4818  0.8807 -0.6202
  111OSM   C14F11566   2.454   4.864   9.691  0.1238  0.5710 -0.2738
  111OSM   H14F11567   2.525   4.785   9.724 -1.0351 -0.3451  0.0765
  111OSM   H14G11568   2.507   4.960   9.707 -0.0363  1.0223 -2.1949
  111OSM   C15F11569   2.406   4.860   9.546  0.0135  0.4396  0.5670
  111OSM   H15F11570   2.308   4.911   9.535 -0.6197 -0.6216  1.0431
  111OSM   H15G11571   2.385   4.751   9.532  2.8907 -0.3232  1.5192
  111OSM   C16F11572   2.509   4.896   9.443  0.0106  0.9327  0.3257
  111OSM   H16F11573   2.593   4.822   9.444  0.1255  0.9998 -1.3475
  111OSM   H16G11574   2.560   4.988   9.478  1.5235  0.0684  0.5280
  111OSM   C17F11575   2.451   4.910   9.301  0.0354 -0.6322 -0.7498
  111OSM   H17F11576   2.369   4.985   9.301  1.3371  0.8484 -0.0158
  111OSM   H17G11577   2.421   4.808   9.268 -1.0259 -0.8479  0.7745
  111OSM   C18F11578   2.562   4.954   9.197  0.4845  0.0571 -1.2082
  111OSM   H18F11579   2.602   5.048   9.240 -0.4939 -0.7080  1.5634
  111OSM   H18G11580   2.509   4.978   9.103 -2.0884 -2.1806 -0.4384
  111OSM   H18H11581   2.652   4.889   9.190  0.3323 -0.7004  2.1168
  112OSM      N11582   3.028   1.295  11.395  0.1598  0.4162 -0.9351
  112OSM    C1511583   3.145   1.385  11.428 -0.2066  0.3447 -0.1270
  112OSM   H15A11584   3.176   1.447  11.345  0.6816 -0.6075 -0.5328
  112OSM   H15B11585   3.229   1.329  11.467 -0.2293  0.5260  0.1804
  112OSM   H15C11586   3.116   1.450  11.509  1.0765 -0.9035  1.3864
  112OSM    C1411587   2.983   1.237  11.531 -0.2339 -0.0192  0.0080
  112OSM   H14A11588   2.957   1.317  11.599 -3.1150 -1.8305  1.2421
  112OSM   H14B11589   3.068   1.190  11.579  1.0286  1.1246 -1.0318
  112OSM   H14C11590   2.908   1.159  11.528 -0.9761  0.6834 -0.2206
  112OSM    C1311591   2.915   1.382  11.355  0.0362 -0.6706  0.2401
  112OSM   H13A11592   2.838   1.334  11.297 -1.1843 -0.4184  1.5833
  112OSM   H13B11593   2.947   1.463  11.291 -0.9986 -0.4479 -0.0074
  112OSM   H13C11594   2.873   1.430  11.442 -0.2713  1.5341 -1.0319
  112OSM    C1211595   3.068   1.194  11.292  0.3393  0.1526  0.6571
  112OSM   H12A11596   2.992   1.118  11.288  0.0586  0.3995  1.2750
  112OSM   H12B11597   3.169   1.158  11.310  1.3717  1.9838 -1.0346
  112OSM    C1111598   3.083   1.242  11.137 -0.0070 -0.2908 -0.1215
  112OSM   H11A11599   2.984   1.286  11.112  0.0618  0.2055  0.4592
  112OSM   H11B11600   3.095   1.153  11.072  0.6996  0.9152 -1.7037
  112OSM      P11601   3.340   1.315  11.121  0.0163 -0.0447 -0.0699
  112OSM    O1311602   3.406   1.443  11.148  0.1035  0.1347  0.0419
  112OSM    O1411603   3.367   1.209  11.218 -0.1269 -0.0045  0.1990
  112OSM    O1111604   3.377   1.268  10.980 -0.1830 -0.5303 -0.2780
  112OSM    O1211605   3.188   1.336  11.112  0.7051 -0.3921  0.5351
  112OSM    C1S11606   3.354   1.137  10.923 -0.0402 -0.4301 -0.0463
  112OSM    H1S11607   3.276   1.083  10.982  0.7033 -1.2244  0.2332
  112OSM    H1T11608   3.448   1.079  10.916  0.2457  0.0188  0.0418
  112OSM     NF11609   3.249   1.007  10.751  0.0175  0.0686  0.1780
  112OSM    HNF11610   3.321   0.958  10.702 -1.0068  1.6551 -3.1463
  112OSM    C2S11611   3.284   1.145  10.780 -0.9386 -0.2641 -0.2091
  112OSM    H2S11612   3.190   1.204  10.786  0.1386  1.4307  1.1067
  112OSM    C3S11613   3.377   1.211  10.670 -0.1619 -0.2064 -0.1677
  112OSM    H3S11614   3.486   1.190  10.672  0.0529  0.3958 -2.4623
  112OSM     O311615   3.379   1.355  10.692  0.3683 -0.1132  0.2192
  112OSM    HO311616   3.366   1.351  10.787  0.4654 -0.7295  0.2117
  112OSM    C4S11617   3.332   1.186  10.527 -0.0143 -0.0500 -0.9231
  112OSM    H4S11618   3.227   1.212  10.508 -0.5151 -2.2122 -1.3288
  112OSM    C5S11619   3.404   1.145  10.421 -0.1127  0.4130  0.0705
  112OSM    H5S11620   3.510   1.118  10.435 -0.3621 -0.2907  0.6607
  112OSM    C6S11621   3.350   1.128  10.282 -0.0020  0.2873  0.0992
  112OSM    H6S11622   3.403   1.183  10.202 -0.7235  0.8115 -0.0304
  112OSM    H6T11623   3.239   1.143  10.283 -0.2367 -1.2725 -0.1530
  112OSM    C7S11624   3.362   0.978  10.252 -0.3629  0.7527  0.5342
  112OSM    H7S11625   3.320   0.933  10.345 -0.6579  0.2041  0.1382
  112OSM    H7T11626   3.470   0.953  10.244 -0.1403  1.4734  1.1856
  112OSM    C8S11627   3.288   0.933  10.121  0.5776 -0.2645 -0.6897
  112OSM    H8S11628   3.207   1.006  10.098  1.5457  1.3785  0.9312
  112OSM    H8T11629   3.244   0.836  10.153  0.3495  0.3762  1.0040
  112OSM    C9S11630   3.375   0.925  10.005  0.1734  0.5167  0.6515
  112OSM    H9S11631   3.459   0.855  10.022  0.6506  0.4863 -1.5509
  112OSM    H9T11632   3.419   1.023   9.982  1.5252  0.0259  1.0688
  112OSM   C10S11633   3.309   0.872   9.875 -0.2092  0.1902 -0.1866
  112OSM   H10S11634   3.228   0.942   9.845 -0.0355  0.7641  0.6396
  112OSM   H10T11635   3.249   0.781   9.896 -4.2442  2.8792  1.1191
  112OSM   C11S11636   3.411   0.862   9.761 -0.4006 -0.1205 -0.1519
  112OSM   H11S11637   3.487   0.783   9.780  0.0072  0.5052  0.8429
  112OSM   H11T11638   3.465   0.959   9.753  0.1110 -0.2931  0.9933
  112OSM   C12S11639   3.344   0.825   9.629  0.5910  0.3554 -0.3409
  112OSM   H12S11640   3.254   0.890   9.625  0.5906  0.3873  0.1290
  112OSM   H12T11641   3.310   0.719   9.633  0.2445  0.4940  0.6602
  112OSM   C13S11642   3.433   0.860   9.510  0.3299  0.4188  0.4074
  112OSM   H13S11643   3.516   0.786   9.510 -1.2268 -1.3813 -0.1458
  112OSM   H13T11644   3.469   0.965   9.514  0.3442  0.8898 -4.6776
  112OSM   C14S11645   3.367   0.850   9.369  0.4923 -0.0177  0.6782
  112OSM   H14S11646   3.280   0.920   9.366  1.0632  0.7022  0.4134
  112OSM   H14T11647   3.333   0.746   9.351  1.1696 -0.5965  2.6120
  112OSM   C15S11648   3.455   0.910   9.259  1.0442 -0.7138  0.4402
  112OSM   H15S11649   3.558   0.870   9.249  1.2626 -0.5026  1.6490
  112OSM   H15T11650   3.479   1.013   9.293  1.4291 -0.5749 -0.2505
  112OSM   C16S11651   3.374   0.932   9.126  0.2025  0.7357  0.1218
  112OSM   H16S11652   3.264   0.938   9.140  0.1401 -2.5487  2.2568
  112OSM   H16T11653   3.390   0.834   9.076 -0.2917  0.1952  0.9830
  112OSM   C17S11654   3.421   1.062   9.055  0.0504 -0.2611  0.2476
  112OSM   H17S11655   3.531   1.066   9.039  0.5185 -0.5869  2.8676
  112OSM   H17T11656   3.400   1.149   9.121  0.8726 -0.2555  0.5167
  112OSM   C18S11657   3.356   1.093   8.922 -0.3459  1.1642  1.0168
  112OSM   H18S11658   3.411   1.035   8.845 -1.2633 -0.3838  1.4796
  112OSM   H18T11659   3.352   1.201   8.896  0.3277  0.6402 -1.5083
  112OSM   H18U11660   3.251   1.059   8.911 -0.0130  0.7973 -1.7076
  112OSM    C1F11661   3.149   0.929  10.796  0.6239  0.0036 -0.3184
  112OSM     OF11662   3.063   0.972  10.876 -0.3392 -0.1339  0.3862
  112OSM    C2F11663   3.154   0.789  10.755 -0.1528  0.8595  0.3456
  112OSM    H2F11664   3.147   0.719  10.842 -1.1395  0.5444  0.0277
  112OSM    H2G11665   3.243   0.770  10.691 -2.3338  1.4420 -3.1247
  112OSM    C3F11666   3.030   0.771  10.662  0.4707 -0.1491  0.2136
  112OSM    H3F11667   2.951   0.813  10.729  2.5647  1.5554  1.7683
  112OSM    H3G11668   3.014   0.662  10.649 -0.2824  0.0577 -0.6523
  112OSM    C4F11669   3.049   0.833  10.526 -0.0016 -0.4675  0.8799
  112OSM    H4F11670   3.149   0.799  10.490 -0.1063 -0.2795  0.4008
  112OSM    H4G11671   3.055   0.943  10.533  0.2295 -0.5425  2.2430
  112OSM    C5F11672   2.935   0.789  10.429 -0.4288 -0.5163 -0.2736
  112OSM    H5F11673   2.851   0.818  10.495  2.0897  1.5133  2.3212
  112OSM    H5G11674   2.944   0.680  10.412  1.8153 -0.3727 -0.3583
  112OSM    C6F11675   2.935   0.866  10.293 -0.5586 -0.0094  0.0731
  112OSM    H6F11676   3.036   0.832  10.260 -0.1347  0.2019  1.1025
  112OSM    H6G11677   2.942   0.974  10.318  0.5135 -0.0487 -0.0179
  112OSM    C7F11678   2.822   0.826  10.204  0.6227 -0.3974  0.4121
  112OSM    H7F11679   2.726   0.827  10.259  0.1320 -0.4081 -0.4289
  112OSM    H7G11680   2.836   0.717  10.185  0.8078 -0.5600  1.3947
  112OSM    C8F11681   2.820   0.900  10.072  0.4824 -1.2103 -0.0250
  112OSM    H8F11682   2.924   0.891  10.032 -0.1103 -0.1287 -1.9425
  112OSM    H8G11683   2.804   1.009  10.080  2.2641 -0.7026 -2.2311
  112OSM    C9F11684   2.719   0.833   9.983 -0.3151  0.1666 -0.1374
  112OSM    H9F11685   2.620   0.825  10.029 -0.0219  2.8825  1.1745
  112OSM   C10F11686   2.736   0.787   9.858  0.6530 -0.4530  0.2188
  112OSM   H10F11687   2.645   0.736   9.823 -0.7879  0.4805  2.4105
  112OSM   C11F11688   2.867   0.796   9.791  0.4424  0.5396 -0.2225
  112OSM   H11F11689   2.938   0.719   9.828 -0.8319 -0.7000 -0.2904
  112OSM   H11G11690   2.914   0.894   9.817 -2.5941  2.1896 -0.4866
  112OSM   C12F11691   2.843   0.789   9.638  0.4801  0.0895 -0.4928
  112OSM   H12F11692   2.764   0.860   9.606 -0.5748 -1.2060 -0.8162
  112OSM   H12G11693   2.827   0.684   9.606  0.5272 -0.2943  0.6947
  112OSM   C13F11694   2.967   0.832   9.561  0.3922  0.1183  1.1169
  112OSM   H13F11695   3.057   0.800   9.618 -0.4395 -0.9544  1.8730
  112OSM   H13G11696   2.964   0.943   9.556 -2.5860  0.1973  2.6868
  112OSM   C14F11697   2.978   0.764   9.423  0.3388 -0.4227  0.0722
  112OSM   H14F11698   2.923   0.667   9.423 -0.4992  0.0225 -1.1910
  112OSM   H14G11699   3.085   0.741   9.402  0.1916 -0.1261 -1.0895
  112OSM   C15F11700   2.905   0.847   9.317 -0.1631  0.1609  0.6695
  112OSM   H15F11701   2.960   0.944   9.322  1.0587 -0.4200 -0.6656
  112OSM   H15G11702   2.797   0.865   9.339  0.5616  1.4346  3.6251
  112OSM   C16F11703   2.924   0.784   9.169 -0.5688  0.3800 -0.8601
  112OSM   H16F11704   2.895   0.678   9.183 -0.9612  0.4699 -0.9793
  112OSM   H16G11705   3.034   0.789   9.156 -0.4748  0.3569 -0.1028
  112OSM   C17F11706   2.826   0.858   9.076 -0.1545 -0.3793  0.2180
  112OSM   H17F11707   2.849   0.966   9.090  1.6377 -0.1623 -3.2266
  112OSM   H17G11708   2.719   0.837   9.094 -0.1626  0.1616  0.8490
  112OSM   C18F11709   2.858   0.815   8.930 -0.4752 -0.3626  0.5193
  112OSM   H18F11710   2.792   0.860   8.853  2.1048  0.9190 -1.0656
  112OSM   H18G11711   2.837   0.706   8.928  0.8477 -0.6302  0.6977
  112OSM   H18H11712   2.964   0.838   8.908 -0.7461 -1.6220 -2.5940
  113OSM      N11713   0.855   2.816  11.294  0.8239 -0.7031 -0.0118
  113OSM    C1511714   0.732   2.738  11.340  0.2332 -0.1608 -0.2721
  113OSM   H15A11715   0.695   2.766  11.438  0.5355 -0.6404 -0.0137
  113OSM   H15B11716   0.754   2.633  11.347 -2.3097 -0.6665  1.6153
  113OSM   H15C11717   0.649   2.752  11.273 -1.5935  1.1918  2.1074
  113OSM    C1411718   0.825   2.954  11.349 -0.5504  0.0291  0.4261
  113OSM   H14A11719   0.819   2.956  11.457  1.5618  3.0850  0.6344
  113OSM   H14B11720   0.738   3.004  11.309  1.4645  2.8061 -0.8725
  113OSM   H14C11721   0.907   3.015  11.314  2.5248 -3.5959  0.6403
  113OSM    C1311722   0.979   2.761  11.353  0.2898  0.4719 -0.0744
  113OSM   H13A11723   1.058   2.833  11.336 -0.7711  1.4645 -0.9014
  113OSM   H13B11724   1.001   2.665  11.306 -3.9698 -0.4970 -0.4415
  113OSM   H13C11725   0.971   2.742  11.459  0.3727 -0.2774 -0.1916
  113OSM    C1211726   0.864   2.808  11.142  0.2326 -0.3053  0.0461
  113OSM   H12A11727   0.878   2.704  11.115 -0.0349 -0.6681  1.2342
  113OSM   H12B11728   0.960   2.850  11.116  0.2475 -1.8243 -2.8065
  113OSM    C1111729   0.750   2.860  11.060 -0.3354 -0.7090 -0.3433
  113OSM   H11A11730   0.767   2.868  10.950  2.2350  1.8318  0.1217
  113OSM   H11B11731   0.728   2.961  11.100  0.6660  0.1234 -1.7689
  113OSM      P11732   0.491   2.808  11.056  0.1462  0.1117 -0.1350
  113OSM    O1311733   0.410   2.702  11.131  0.3148 -0.7430 -0.2095
  113OSM    O1411734   0.475   2.951  11.096  0.4234  0.0061 -0.0630
  113OSM    O1111735   0.462   2.803  10.900 -0.2593 -0.0235  0.8148
  113OSM    O1211736   0.638   2.773  11.070 -0.7044 -0.5126  0.2960
  113OSM    C1S11737   0.514   2.680  10.839 -0.6520 -0.7706  0.0557
  113OSM    H1S11738   0.453   2.589  10.857  0.4170 -2.2188 -2.9607
  113OSM    H1T11739   0.619   2.666  10.871 -1.2992 -0.5156  2.5033
  113OSM     NF11740   0.576   2.560  10.638  0.4496 -0.1676  0.0561
  113OSM    HNF11741   0.669   2.562  10.601  0.3418  1.4281 -0.1980
  113OSM    C2S11742   0.531   2.692  10.683 -0.7872  0.2751  0.8592
  113OSM    H2S11743   0.430   2.716  10.644 -0.4036  0.3659 -0.0868
  113OSM    C3S11744   0.624   2.807  10.638  0.6257 -0.2300 -0.4839
  113OSM    H3S11745   0.731   2.792  10.665  1.0779  3.5870  0.4592
  113OSM     O311746   0.597   2.928  10.709 -0.1765 -0.5305  0.1406
  113OSM    HO311747   0.543   2.903  10.785  3.6833 -2.1431  2.6669
  113OSM    C4S11748   0.630   2.826  10.490  0.0038 -0.5199 -0.3207
  113OSM    H4S11749   0.711   2.774  10.436  2.1644  0.9787  1.3073
  113OSM    C5S11750   0.548   2.907  10.420 -0.1194 -0.6950 -0.7403
  113OSM    H5S11751   0.474   2.964  10.478 -0.6157  0.6992 -2.6565
  113OSM    C6S11752   0.529   2.910  10.269 -0.3836  0.2994 -0.3699
  113OSM    H6S11753   0.504   3.015  10.245 -1.3479  0.7195  2.2491
  113OSM    H6T11754   0.436   2.851  10.257 -0.9043  1.1553 -0.5614
  113OSM    C7S11755   0.635   2.866  10.172 -0.6238  0.1416  0.6858
  113OSM    H7S11756   0.665   2.759  10.185 -3.2774 -0.9827 -1.4907
  113OSM    H7T11757   0.728   2.927  10.171  1.0788 -1.9519 -4.5788
  113OSM    C8S11758   0.594   2.897  10.023  0.1125 -0.3816  0.1268
  113OSM    H8S11759   0.494   2.850  10.010 -1.3037  1.9022  1.9453
  113OSM    H8T11760   0.661   2.843   9.953  0.5605  2.5220 -1.8257
  113OSM    C9S11761   0.600   3.041   9.985  0.3329 -0.6308  0.8630
  113OSM    H9S11762   0.696   3.089  10.013  0.3349  0.2207 -0.4960
  113OSM    H9T11763   0.529   3.108  10.037 -1.6421 -1.3697 -0.7488
  113OSM   C10S11764   0.575   3.068   9.837  0.8166  0.3650  0.1018
  113OSM   H10S11765   0.582   3.179   9.830 -1.6975  0.6094  0.5228
  113OSM   H10T11766   0.474   3.028   9.815  0.2165  0.2355  2.7017
  113OSM   C11S11767   0.678   3.008   9.744 -0.8593  0.1363  0.3465
  113OSM   H11S11768   0.673   2.899   9.723  3.6422  0.3844 -3.8123
  113OSM   H11T11769   0.777   3.021   9.792 -0.8056 -1.1223  0.6069
  113OSM   C12S11770   0.688   3.062   9.609  0.8063  0.2914  0.5400
  113OSM   H12S11771   0.717   3.169   9.611 -2.1311  1.1644  1.8115
  113OSM   H12T11772   0.585   3.059   9.567  0.8386 -1.2071  0.5128
  113OSM   C13S11773   0.787   2.989   9.518 -0.1223 -0.4871  0.1881
  113OSM   H13S11774   0.749   2.886   9.502  0.2241 -0.6540  0.4336
  113OSM   H13T11775   0.881   2.981   9.576 -0.6359  0.5530  1.2159
  113OSM   C14S11776   0.819   3.067   9.394 -0.1980 -0.1926 -0.0846
  113OSM   H14S11777   0.870   3.158   9.430 -0.3032 -0.5257  0.9439
  113OSM   H14T11778   0.722   3.107   9.357 -1.4063 -1.0069  2.0461
  113OSM   C15S11779   0.877   2.980   9.296 -0.2578  0.2579 -0.5827
  113OSM   H15S11780   0.811   2.896   9.265  2.1347 -0.8484 -3.1160
  113OSM   H15T11781   0.967   2.936   9.344 -1.0035 -0.7974 -0.1038
  113OSM   C16S11782   0.907   3.051   9.159 -0.0087 -0.1914 -0.7097
  113OSM   H16S11783   0.997   3.117   9.162 -0.5196  0.4965  0.2657
  113OSM   H16T11784   0.820   3.116   9.136  1.7094  2.0978 -1.1981
  113OSM   C17S11785   0.925   2.952   9.041  0.2719  1.3378 -0.6516
  113OSM   H17S11786   0.830   2.897   9.030  1.2292 -0.6659  0.4934
  113OSM   H17T11787   1.006   2.888   9.084 -3.1515 -1.6442  1.9710
  113OSM   C18S11788   0.970   3.015   8.910 -0.2375  0.0321 -0.0764
  113OSM   H18S11789   0.882   3.045   8.849 -0.6455 -2.4069 -0.8054
  113OSM   H18T11790   1.026   2.939   8.851  0.9612  1.4546 -0.8452
  113OSM   H18U11791   1.032   3.105   8.928  1.4570 -1.2836  0.9119
  113OSM    C1F11792   0.501   2.449  10.640  0.5499 -0.1016  0.9389
  113OSM     OF11793   0.377   2.450  10.670 -0.3326  0.2939  0.0707
  113OSM    C2F11794   0.571   2.319  10.609 -0.6177 -0.3786 -0.1465
  113OSM    H2F11795   0.616   2.277  10.702 -1.3707  0.8781  0.8351
  113OSM    H2G11796   0.648   2.354  10.538  0.8483 -0.1502  1.4714
  113OSM    C3F11797   0.473   2.209  10.554 -0.9506 -0.1343  0.3513
  113OSM    H3F11798   0.388   2.194  10.624  0.4863 -0.0663  2.1926
  113OSM    H3G11799   0.537   2.119  10.558 -1.9662 -0.8782  0.1281
  113OSM    C4F11800   0.416   2.240  10.411 -0.2194  0.2318 -0.4737
  113OSM    H4F11801   0.485   2.315  10.366 -0.7799  0.0617 -1.6603
  113OSM    H4G11802   0.313   2.278  10.427  0.2593  0.3501  3.0152
  113OSM    C5F11803   0.403   2.114  10.327 -0.4038 -0.5052  0.2694
  113OSM    H5F11804   0.361   2.025  10.378 -1.5810  0.7802  1.6307
  113OSM    H5G11805   0.509   2.105  10.293 -0.7162 -1.5239 -0.4667
  113OSM    C6F11806   0.336   2.135  10.193 -0.4190  0.2062  0.4567
  113OSM    H6F11807   0.387   2.214  10.135 -3.2957  1.0044 -1.1710
  113OSM    H6G11808   0.240   2.183  10.220  0.0013  0.2461  1.9754
  113OSM    C7F11809   0.334   2.005  10.122  1.3767 -0.1505 -0.2460
  113OSM    H7F11810   0.293   1.922  10.184  0.8662  0.6299  0.4808
  113OSM    H7G11811   0.441   1.980  10.106  1.6436  0.7351  0.0574
  113OSM    C8F11812   0.247   1.995   9.989 -0.4807 -0.1127  0.1442
  113OSM    H8F11813   0.151   2.046  10.010 -1.4163 -1.6484 -0.2288
  113OSM    H8G11814   0.224   1.887   9.976  1.3575 -0.2546 -3.1505
  113OSM    C9F11815   0.319   2.047   9.868  0.0335  0.4714  0.2138
  113OSM    H9F11816   0.385   1.973   9.820  1.7570  0.3810  2.5411
  113OSM   C10F11817   0.305   2.173   9.822 -0.3555  0.2180  0.4365
  113OSM   H10F11818   0.355   2.197   9.727  0.3270 -2.4666  0.0519
  113OSM   C11F11819   0.214   2.281   9.883 -0.4191 -0.1584  0.1965
  113OSM   H11F11820   0.275   2.373   9.891 -0.0069 -0.5807  2.5446
  113OSM   H11G11821   0.186   2.261   9.988  0.2766 -0.4499  0.3315
  113OSM   C12F11822   0.092   2.316   9.791 -0.5822 -0.2284 -0.9070
  113OSM   H12F11823   0.115   2.327   9.683  0.1048  1.1507 -0.6384
  113OSM   H12G11824   0.051   2.414   9.823  2.1355  0.7590 -0.1509
  113OSM   C13F11825  -0.023   2.204   9.793  0.6217  0.0885 -0.0013
  113OSM   H13F11826  -0.070   2.202   9.894 -2.6053  0.2628 -1.3961
  113OSM   H13G11827   0.029   2.106   9.786 -0.6691 -0.6783  0.7400
  113OSM   C14F11828  -0.130   2.242   9.691 -0.1528  0.4551 -0.2028
  113OSM   H14F11829  -0.162   2.349   9.698  0.0175  0.4047  1.7626
  113OSM   H14G11830  -0.215   2.178   9.723  1.0087  0.2464  2.7810
  113OSM   C15F11831  -0.096   2.211   9.542  0.0952 -0.7676  0.3798
  113OSM   H15F11832  -0.075   2.102   9.541  3.6894 -0.1920 -0.0589
  113OSM   H15G11833  -0.001   2.257   9.507  1.0614 -1.6846  1.7012
  113OSM   C16F11834  -0.203   2.249   9.438 -0.0099  0.6871  0.4911
  113OSM   H16F11835  -0.232   2.354   9.460  0.2751  0.5492  1.5921
  113OSM   H16G11836  -0.285   2.177   9.461  0.7344  0.7671  3.8898
  113OSM   C17F11837  -0.175   2.210   9.291  0.7030 -0.0563 -1.2817
  113OSM   H17F11838  -0.148   2.103   9.305 -3.2683 -1.3557 -2.2261
  113OSM   H17G11839  -0.085   2.263   9.251  1.2669 -1.2302 -1.6089
  113OSM   C18F11840  -0.295   2.229   9.204 -0.2893  0.3036 -0.3938
  113OSM   H18F11841  -0.360   2.314   9.233 -1.4996  0.3204 -2.8662
  113OSM   H18G11842  -0.351   2.135   9.227  0.6717  0.1730  1.6433
  113OSM   H18H11843  -0.253   2.240   9.102  2.0541 -1.9129  0.2071
  114OSM      N11844   1.295   0.444  11.169  0.3073 -0.2920 -0.4646
  114OSM    C1511845   1.199   0.409  11.273 -0.0497  0.2630 -0.8198
  114OSM   H15A11846   1.246   0.403  11.370 -0.6650 -1.6881 -0.5978
  114OSM   H15B11847   1.135   0.324  11.255  0.0045  0.4631 -2.0456
  114OSM   H15C11848   1.122   0.483  11.288  0.9619  0.9287  1.4905
  114OSM    C1411849   1.223   0.484  11.046 -0.5024 -0.3689 -0.1549
  114OSM   H14A11850   1.168   0.401  11.003  0.3350 -0.6723 -0.6652
  114OSM   H14B11851   1.297   0.517  10.974  1.4135  1.9592  2.6357
  114OSM   H14C11852   1.154   0.566  11.060 -0.6749 -0.5081 -0.1937
  114OSM    C1311853   1.388   0.545  11.215 -0.8778 -0.6477 -0.5271
  114OSM   H13A11854   1.349   0.645  11.205 -0.2989 -0.1378  1.6961
  114OSM   H13B11855   1.472   0.524  11.151 -2.3948 -1.1110 -2.4746
  114OSM   H13C11856   1.419   0.528  11.317 -0.1887 -0.4466 -0.6995
  114OSM    C1211857   1.375   0.318  11.158 -0.7055  0.8087 -0.3616
  114OSM   H12A11858   1.304   0.238  11.147  1.6190 -1.1006 -3.1499
  114OSM   H12B11859   1.418   0.289  11.253  0.3379 -0.3495 -1.1465
  114OSM    C1111860   1.482   0.311  11.046 -0.4655 -0.5975 -1.1568
  114OSM   H11A11861   1.445   0.332  10.943 -0.7223  1.3851 -0.6818
  114OSM   H11B11862   1.503   0.202  11.037  1.9479 -0.2627 -0.3401
  114OSM      P11863   1.692   0.474  11.004 -0.3698 -0.0441  0.0447
  114OSM    O1311864   1.642   0.609  11.032 -0.1531 -0.3435  0.0627
  114OSM    O1411865   1.830   0.456  11.040 -1.2364 -0.8146 -0.6087
  114OSM    O1111866   1.663   0.450  10.857  0.2449  0.1975 -0.2739
  114OSM    O1211867   1.600   0.373  11.081 -0.6366 -0.0678 -0.5967
  114OSM    C1S11868   1.754   0.482  10.751  0.4298  0.1213 -0.0758
  114OSM    H1S11869   1.829   0.401  10.737  0.0089 -0.3571  0.4082
  114OSM    H1T11870   1.796   0.584  10.768 -2.3337  1.1690  1.1486
  114OSM     NF11871   1.771   0.531  10.514  0.6656 -0.3882  0.4954
  114OSM    HNF11872   1.787   0.625  10.485 -1.1719  0.0014  0.6396
  114OSM    C2S11873   1.676   0.492  10.617  0.5250 -0.9035 -0.1658
  114OSM    H2S11874   1.631   0.392  10.600 -3.6821  0.5160  1.2186
  114OSM    C3S11875   1.555   0.593  10.623  0.1988  0.2869 -0.4833
  114OSM    H3S11876   1.600   0.685  10.666  0.9674  0.0815 -0.8275
  114OSM     O311877   1.453   0.559  10.711 -0.1039  0.0535 -0.5575
  114OSM    HO311878   1.502   0.514  10.780 -0.0506  0.1208 -0.5518
  114OSM    C4S11879   1.492   0.607  10.490 -0.2494  0.1862 -0.4664
  114OSM    H4S11880   1.449   0.510  10.462  2.6981 -2.3911  2.9955
  114OSM    C5S11881   1.499   0.712  10.406 -0.0953 -0.1522  0.5791
  114OSM    H5S11882   1.559   0.798  10.437 -0.5114  0.8271 -1.2114
  114OSM    C6S11883   1.421   0.731  10.271 -0.3424 -0.0789 -0.0034
  114OSM    H6S11884   1.395   0.839  10.261  0.1478  0.1455  1.0094
  114OSM    H6T11885   1.317   0.691  10.267 -0.0891 -0.7547  0.0612
  114OSM    C7S11886   1.497   0.673  10.148 -0.1836  0.2268 -0.4948
  114OSM    H7S11887   1.507   0.563  10.157  0.0429  0.0286 -2.6019
  114OSM    H7T11888   1.599   0.718  10.136  0.5385 -1.5305 -1.1909
  114OSM    C8S11889   1.401   0.683  10.032  0.2835 -0.1230  0.1936
  114OSM    H8S11890   1.376   0.791  10.017  1.2533 -0.0146 -0.7847
  114OSM    H8T11891   1.303   0.634  10.051 -1.2228  2.3943 -0.4976
  114OSM    C9S11892   1.457   0.644   9.895 -0.0643 -0.2888  0.2629
  114OSM    H9S11893   1.469   0.536   9.874  0.7932  0.1491 -1.7879
  114OSM    H9T11894   1.554   0.693   9.874  0.3419 -1.3022 -0.2849
  114OSM   C10S11895   1.367   0.704   9.782 -0.0336  0.1809 -0.1389
  114OSM   H10S11896   1.360   0.814   9.793 -0.3026  0.1274  0.2446
  114OSM   H10T11897   1.264   0.666   9.796  0.5364 -0.8279  1.6072
  114OSM   C11S11898   1.422   0.676   9.643 -0.2002 -0.4302  0.3768
  114OSM   H11S11899   1.375   0.588   9.594  1.1062 -2.7796  3.0340
  114OSM   H11T11900   1.533   0.665   9.644 -0.1837 -0.3236 -0.0409
  114OSM   C12S11901   1.401   0.795   9.550  0.4403 -0.3303 -0.2421
  114OSM   H12S11902   1.460   0.882   9.585  2.1032 -1.9400  1.2017
  114OSM   H12T11903   1.294   0.822   9.553  0.3996 -0.6076  1.5287
  114OSM   C13S11904   1.459   0.764   9.406 -0.1084  0.0132 -0.4695
  114OSM   H13S11905   1.407   0.673   9.368  3.3094 -2.2356 -0.2710
  114OSM   H13T11906   1.564   0.731   9.419  0.3029  0.8684 -1.5477
  114OSM   C14S11907   1.447   0.882   9.315  0.6274 -0.0526 -0.5588
  114OSM   H14S11908   1.534   0.948   9.333  1.1147 -0.3787 -1.6141
  114OSM   H14T11909   1.348   0.919   9.349  0.6665  0.7664 -1.3150
  114OSM   C15S11910   1.438   0.845   9.173  0.1105  0.5918  0.1868
  114OSM   H15S11911   1.340   0.794   9.164  0.4000  0.0976 -0.2374
  114OSM   H15T11912   1.509   0.762   9.149 -1.4261 -1.2214  1.5445
  114OSM   C16S11913   1.428   0.961   9.073  0.3788  0.1546 -0.8227
  114OSM   H16S11914   1.503   1.040   9.095  0.1640 -0.4293  2.3992
  114OSM   H16T11915   1.329   1.010   9.082  1.3760  1.9520  1.0550
  114OSM   C17S11916   1.437   0.901   8.925 -0.5344  0.0776  0.2640
  114OSM   H17S11917   1.359   0.822   8.926  0.4491 -0.9596  2.4827
  114OSM   H17T11918   1.543   0.868   8.929  0.4459  2.9414  0.3787
  114OSM   C18S11919   1.419   1.015   8.821  0.5146 -0.1732  0.3311
  114OSM   H18S11920   1.428   0.980   8.716  0.9977  2.0275 -0.4041
  114OSM   H18T11921   1.495   1.095   8.833  0.9536 -0.6550  0.9002
  114OSM   H18U11922   1.320   1.065   8.825  1.6889  2.2311  0.8707
  114OSM    C1F11923   1.852   0.443  10.460 -0.3490  0.0145 -0.7388
  114OSM     OF11924   1.832   0.324  10.478 -0.6894  0.4519 -0.1153
  114OSM    C2F11925   1.977   0.487  10.390  0.2892 -0.0850  0.0399
  114OSM    H2F11926   2.050   0.407  10.412  0.2072  0.0337  0.7588
  114OSM    H2G11927   2.018   0.587  10.417  2.0399 -0.6126 -0.5564
  114OSM    C3F11928   1.952   0.480  10.241 -0.0205  0.4975  0.2933
  114OSM    H3F11929   1.903   0.384  10.213  0.4342  1.1342 -3.1878
  114OSM    H3G11930   2.053   0.489  10.196 -1.7607  2.3689 -3.7575
  114OSM    C4F11931   1.874   0.595  10.188 -0.3295  0.1678  0.2065
  114OSM    H4F11932   1.923   0.693  10.205  1.5100 -0.2954 -1.9290
  114OSM    H4G11933   1.771   0.590  10.229 -0.3446 -0.6251  0.0877
  114OSM    C5F11934   1.843   0.586  10.029 -0.4378  0.1935  0.5590
  114OSM    H5F11935   1.781   0.673  10.001  0.8133  0.6145 -1.0400
  114OSM    H5G11936   1.770   0.502  10.026 -1.0357  0.6971  0.9097
  114OSM    C6F11937   1.968   0.574   9.946 -0.2231  0.3193 -0.5964
  114OSM    H6F11938   2.021   0.480   9.970 -1.2536  0.2693  1.7027
  114OSM    H6G11939   2.041   0.655   9.970 -0.7407  0.8115 -0.6707
  114OSM    C7F11940   1.936   0.584   9.792  0.1665 -0.8198 -0.2724
  114OSM    H7F11941   2.030   0.556   9.739  0.9018  0.3952  0.3539
  114OSM    H7G11942   1.895   0.680   9.757 -0.1777 -1.6727 -2.3409
  114OSM    C8F11943   1.824   0.495   9.755  1.0366 -0.7435 -0.0966
  114OSM    H8F11944   1.724   0.530   9.788 -0.0736 -3.1747 -0.7030
  114OSM    H8G11945   1.832   0.394   9.801  2.5948 -1.2896 -1.4588
  114OSM    C9F11946   1.806   0.491   9.605  0.9045 -0.2492 -0.1865
  114OSM    H9F11947   1.827   0.587   9.555  0.6956  0.2708  0.7155
  114OSM   C10F11948   1.757   0.394   9.528 -0.3096  0.4092 -0.3627
  114OSM   H10F11949   1.747   0.419   9.421  0.7555 -2.2367 -1.1451
  114OSM   C11F11950   1.695   0.269   9.579  0.3606 -0.0472  0.0489
  114OSM   H11F11951   1.591   0.280   9.540 -0.0535 -0.1962  1.0628
  114OSM   H11G11952   1.689   0.260   9.689  0.8789  0.0320  0.0832
  114OSM   C12F11953   1.750   0.133   9.530 -0.1872 -0.4389  0.1185
  114OSM   H12F11954   1.689   0.056   9.581 -0.8840  0.6961  1.0700
  114OSM   H12G11955   1.851   0.124   9.575 -0.1983  0.7083  0.4242
  114OSM   C13F11956   1.748   0.116   9.380 -0.7354  0.1422 -0.4860
  114OSM   H13F11957   1.850   0.145   9.346 -0.2300 -0.9313  0.0498
  114OSM   H13G11958   1.665   0.174   9.334 -0.1552  0.2245 -1.4507
  114OSM   C14F11959   1.744  -0.029   9.336 -0.3424  0.1683  0.4015
  114OSM   H14F11960   1.640  -0.059   9.362 -1.1504  0.7412 -1.9361
  114OSM   H14G11961   1.808  -0.094   9.399 -1.5024 -0.5373  0.8952
  114OSM   C15F11962   1.789  -0.041   9.193 -0.6796 -1.0327  0.0643
  114OSM   H15F11963   1.897  -0.015   9.180 -1.2616  1.0416 -0.9923
  114OSM   H15G11964   1.744   0.040   9.133 -0.8610 -0.7702  0.5495
  114OSM   C16F11965   1.760  -0.176   9.127 -0.3724  0.0216  0.9523
  114OSM   H16F11966   1.651  -0.185   9.147 -1.0439  1.4312 -1.5845
  114OSM   H16G11967   1.820  -0.256   9.176  1.6580  0.0766 -1.2099
  114OSM   C17F11968   1.772  -0.169   8.972 -0.2155  0.6330  0.0516
  114OSM   H17F11969   1.739  -0.268   8.935 -1.8610  1.1560  0.0438
  114OSM   H17G11970   1.881  -0.166   8.949 -0.5093 -0.3500 -1.6911
  114OSM   C18F11971   1.699  -0.052   8.902 -0.6181 -0.2158 -0.6052
  114OSM   H18F11972   1.769   0.034   8.902  1.3778 -1.7686 -1.1416
  114OSM   H18G11973   1.605  -0.024   8.955 -1.7958 -0.6727 -2.3625
  114OSM   H18H11974   1.661  -0.071   8.799 -0.7793  0.9833 -0.7804
  115OSM      N11975   5.060   0.175  11.140 -0.2235  0.4488 -0.2101
  115OSM    C1511976   5.016   0.195  11.001  0.2340  0.0008 -0.0743
  115OSM   H15A11977   4.912   0.223  11.004  0.3316  0.4006 -0.2790
  115OSM   H15B11978   5.022   0.100  10.951  2.9396  0.4994 -0.9029
  115OSM   H15C11979   5.083   0.268  10.958  1.2505 -0.6882  0.2897
  115OSM    C1411980   5.069   0.304  11.213  0.5975  0.3350  0.1976
  115OSM   H14A11981   5.148   0.366  11.172  0.3782  1.9560  2.0781
  115OSM   H14B11982   5.099   0.285  11.315 -3.9891 -0.2936  1.6641
  115OSM   H14C11983   4.978   0.363  11.209  0.0081 -0.4244  1.7304
  115OSM    C1311984   4.961   0.099  11.213  0.3019  0.5108  0.3520
  115OSM   H13A11985   4.862   0.142  11.201  0.0093  0.0521  1.0639
  115OSM   H13B11986   4.983   0.101  11.319  0.7136 -0.1985  0.2899
  115OSM   H13C11987   4.960  -0.005  11.186 -0.5227  0.2112  1.4942
  115OSM    C1211988   5.199   0.105  11.154  0.4459  0.0253 -0.8903
  115OSM   H12A11989   5.217   0.078  11.257 -1.1586  1.6672 -0.1346
  115OSM   H12B11990   5.278   0.173  11.126  2.3791 -1.0861  1.4794
  115OSM    C1111991   5.212  -0.030  11.077 -0.0474 -0.3579 -0.4286
  115OSM   H11A11992   5.316  -0.070  11.077  0.0881 -0.0109 -0.1483
  115OSM   H11B11993   5.196  -0.005  10.970  1.4152  1.1246 -0.3379
  115OSM      P11994   5.042  -0.236  11.059  0.3552  0.6416  0.1498
  115OSM    O1311995   5.037  -0.365  11.127 -0.3773  0.2775 -0.0496
  115OSM    O1411996   4.914  -0.167  11.044  0.0507  0.1603 -0.2110
  115OSM    O1111997   5.100  -0.259  10.911  0.1566 -0.3021 -0.3472
  115OSM    O1211998   5.137  -0.132  11.132  0.9680  0.7880 -0.0723
  115OSM    C1S11999   5.026  -0.329  10.819  0.3043 -0.1479  0.4856
  115OSM    H1S12000   4.917  -0.330  10.843  0.1308  0.8176 -0.1996
  115OSM    H1T12001   5.053  -0.436  10.803 -0.1898 -0.2289  0.1815
  115OSM     NF12002   4.935  -0.350  10.583 -0.0074  0.0544  0.4108
  115OSM    HNF12003   4.968  -0.422  10.522 -0.2676 -0.3514  0.7437
  115OSM    C2S12004   5.024  -0.272  10.670  0.5531 -0.6577 -0.3166
  115OSM    H2S12005   4.986  -0.168  10.673  2.8296  0.3284 -2.1852
  115OSM    C3S12006   5.171  -0.262  10.614  0.2531 -0.1102 -0.1988
  115OSM    H3S12007   5.219  -0.362  10.619  1.8634  0.5436 -1.7496
  115OSM     O312008   5.254  -0.178  10.698  0.3005  0.0839  0.0692
  115OSM    HO312009   5.202  -0.162  10.777 -1.0436 -0.3403 -0.7183
  115OSM    C4S12010   5.180  -0.210  10.478 -0.5433  0.4716  0.2674
  115OSM    H4S12011   5.169  -0.101  10.465  0.1915  0.5991  0.6744
  115OSM    C5S12012   5.197  -0.286  10.361  0.1018  1.2357 -0.5165
  115OSM    H5S12013   5.203  -0.395  10.370 -0.1608  1.3062  0.7517
  115OSM    C6S12014   5.192  -0.240  10.217  0.3360  0.4799  0.4832
  115OSM    H6S12015   5.118  -0.158  10.219  0.1097  0.2632  1.3052
  115OSM    H6T12016   5.153  -0.327  10.160  0.2732  0.5939  0.3511
  115OSM    C7S12017   5.328  -0.203  10.164 -0.5493  0.1439 -0.6237
  115OSM    H7S12018   5.407  -0.275  10.194 -1.1718 -0.5913 -0.7188
  115OSM    H7T12019   5.362  -0.107  10.209 -1.5296 -0.2145  0.9448
  115OSM    C8S12020   5.337  -0.165  10.008 -0.2975  0.8940 -0.5144
  115OSM    H8S12021   5.271  -0.075  10.007 -2.2848 -0.4775 -2.4919
  115OSM    H8T12022   5.303  -0.253   9.949  0.9727 -0.6393  0.9370
  115OSM    C9S12023   5.475  -0.121   9.966  0.1307  0.1287 -0.4754
  115OSM    H9S12024   5.548  -0.203   9.982 -0.4765 -0.0427  1.8774
  115OSM    H9T12025   5.497  -0.047  10.046 -2.4761  1.2115 -0.6388
  115OSM   C10S12026   5.481  -0.039   9.828 -0.0799 -0.4637 -0.8006
  115OSM   H10S12027   5.502   0.068   9.848  0.4411  0.0524 -3.7611
  115OSM   H10T12028   5.384  -0.052   9.776 -1.5908 -1.4525  2.0044
  115OSM   C11S12029   5.579  -0.092   9.723 -0.1658  0.0179 -0.6279
  115OSM   H11S12030   5.603  -0.195   9.756  1.1496  0.0328 -1.4654
  115OSM   H11T12031   5.668  -0.027   9.738 -1.5036  2.2391 -1.7887
  115OSM   C12S12032   5.542  -0.089   9.574  0.5628 -0.2170 -0.3124
  115OSM   H12S12033   5.513   0.012   9.539  0.9694 -0.5267 -1.6274
  115OSM   H12T12034   5.443  -0.140   9.570 -0.7074  2.1285 -0.1818
  115OSM   C13S12035   5.647  -0.133   9.475 -0.2914  0.0290  0.0670
  115OSM   H13S12036   5.677  -0.238   9.495  0.7436  0.3784  0.3519
  115OSM   H13T12037   5.725  -0.055   9.483 -1.7293  2.0180 -3.0412
  115OSM   C14S12038   5.592  -0.125   9.321  0.0012 -0.5503  0.5612
  115OSM   H14S12039   5.537  -0.029   9.314 -0.8512 -0.8747  2.2563
  115OSM   H14T12040   5.518  -0.208   9.316 -0.9476  0.2949  0.1588
  115OSM   C15S12041   5.690  -0.146   9.205 -0.0364 -0.3613  0.2803
  115OSM   H15S12042   5.710  -0.254   9.189  0.2314 -0.3567  0.5585
  115OSM   H15T12043   5.792  -0.108   9.227  1.0451 -1.5679 -2.3115
  115OSM   C16S12044   5.634  -0.073   9.081 -0.4025 -0.7398 -0.6726
  115OSM   H16S12045   5.650   0.035   9.101 -2.5709 -0.6169  0.6683
  115OSM   H16T12046   5.527  -0.093   9.062 -0.1496 -1.0292 -1.8659
  115OSM   C17S12047   5.696  -0.105   8.943  0.1228 -0.1366  0.2796
  115OSM   H17S12048   5.803  -0.135   8.944  0.5969  1.3922 -0.9979
  115OSM   H17T12049   5.689  -0.011   8.884 -2.8869 -0.1161  0.5172
  115OSM   C18S12050   5.619  -0.221   8.876  0.1857  0.1311 -0.3193
  115OSM   H18S12051   5.510  -0.203   8.870 -0.0515  0.0313  2.4022
  115OSM   H18T12052   5.626  -0.311   8.940  2.4838  0.5433  0.1257
  115OSM   H18U12053   5.660  -0.252   8.778 -0.5763 -1.4781 -0.1600
  115OSM    C1F12054   4.801  -0.352  10.598 -0.7599  0.6301 -0.2188
  115OSM     OF12055   4.739  -0.293  10.688 -0.3775  0.0636  0.2280
  115OSM    C2F12056   4.729  -0.425  10.490 -0.0881  0.0114 -0.1080
  115OSM    H2F12057   4.803  -0.465  10.418  0.3595 -0.7991  0.7772
  115OSM    H2G12058   4.656  -0.362  10.435  1.3148  0.8010 -1.1419
  115OSM    C3F12059   4.661  -0.548  10.543  0.0141 -0.0052  0.6559
  115OSM    H3F12060   4.587  -0.525  10.623 -0.1996 -2.8253  1.3775
  115OSM    H3G12061   4.744  -0.600  10.595  1.9054  2.0437 -0.1418
  115OSM    C4F12062   4.598  -0.637  10.436  0.4419  0.5544  0.4483
  115OSM    H4F12063   4.550  -0.728  10.479  0.7607  0.9544  1.7002
  115OSM    H4G12064   4.673  -0.690  10.374 -2.1916 -0.3009 -2.2325
  115OSM    C5F12065   4.513  -0.561  10.335  0.2054 -0.2634 -0.0519
  115OSM    H5F12066   4.580  -0.492  10.280  0.3930 -1.9147 -2.0129
  115OSM    H5G12067   4.444  -0.492  10.388  1.0021  0.3668  0.1872
  115OSM    C6F12068   4.436  -0.650  10.238 -0.1694 -0.4917 -0.4646
  115OSM    H6F12069   4.375  -0.723  10.295  2.6163 -2.2262  0.4971
  115OSM    H6G12070   4.516  -0.708  10.188  0.2214 -0.6866  0.3731
  115OSM    C7F12071   4.346  -0.576  10.142  0.6625  0.2935 -0.0173
  115OSM    H7F12072   4.260  -0.516  10.181 -0.1463 -1.3661  0.8977
  115OSM    H7G12073   4.293  -0.660  10.092 -1.0559  1.8020 -0.8362
  115OSM    C8F12074   4.424  -0.490  10.034  0.1318 -0.4181 -0.2911
  115OSM    H8F12075   4.508  -0.555  10.001 -0.1490  0.0876 -2.0843
  115OSM    H8G12076   4.468  -0.403  10.088 -1.5059 -0.4205  1.1251
  115OSM    C9F12077   4.344  -0.447   9.915 -0.5598  0.2470  0.2640
  115OSM    H9F12078   4.293  -0.352   9.935 -0.0861  0.2254  1.7180
  115OSM   C10F12079   4.336  -0.491   9.787  0.3380 -0.0100  0.0377
  115OSM   H10F12080   4.277  -0.430   9.719  2.0738  1.4127 -0.2663
  115OSM   C11F12081   4.415  -0.600   9.718  0.3670  0.4100 -0.4115
  115OSM   H11F12082   4.356  -0.687   9.680  1.1900 -1.0275  1.4356
  115OSM   H11G12083   4.484  -0.636   9.798  1.6632  2.0648 -0.7277
  115OSM   C12F12084   4.498  -0.564   9.593 -0.6977  0.1385  0.4034
  115OSM   H12F12085   4.590  -0.627   9.591 -0.3563  0.3857  3.2583
  115OSM   H12G12086   4.514  -0.454   9.596 -2.7210  0.4873 -0.1501
  115OSM   C13F12087   4.413  -0.574   9.464 -0.7437  0.5249  0.6070
  115OSM   H13F12088   4.319  -0.517   9.479 -1.1283  0.4891 -1.3788
  115OSM   H13G12089   4.378  -0.679   9.456  1.3802 -0.2323  0.8208
  115OSM   C14F12090   4.479  -0.514   9.336 -0.0545  0.1899  0.7915
  115OSM   H14F12091   4.583  -0.553   9.323  0.1539  1.3308 -1.3442
  115OSM   H14G12092   4.493  -0.404   9.347  4.1941  0.1134 -1.5739
  115OSM   C15F12093   4.405  -0.549   9.212  0.2658 -0.5351  0.6733
  115OSM   H15F12094   4.449  -0.491   9.128  2.4784 -1.1325  1.3677
  115OSM   H15G12095   4.299  -0.517   9.223 -0.6676 -2.5035 -1.7106
  115OSM   C16F12096   4.403  -0.698   9.162 -0.2740 -0.1554  0.4447
  115OSM   H16F12097   4.336  -0.750   9.234 -2.8433  0.0792 -1.6400
  115OSM   H16G12098   4.502  -0.748   9.150  0.1740  0.5932  0.9293
  115OSM   C17F12099   4.334  -0.705   9.022  0.1559  0.2545 -0.3557
  115OSM   H17F12100   4.394  -0.644   8.951  0.7922 -0.9694 -0.9188
  115OSM   H17G12101   4.225  -0.684   9.021  0.0935  0.2105  1.6740
  115OSM   C18F12102   4.341  -0.855   8.965 -0.6181 -0.1608 -0.4238
  115OSM   H18F12103   4.266  -0.859   8.882 -2.6477  1.2547  1.2318
  115OSM   H18G12104   4.294  -0.931   9.031  0.9758  0.3605  1.3688
  115OSM   H18H12105   4.444  -0.888   8.939 -0.0359 -0.0970  1.6885
  116OSM      N12106   4.022   3.048  11.231  0.0048  0.2586 -0.5017
  116OSM    C1512107   4.102   3.170  11.261  0.4767  0.4843  0.0984
  116OSM   H15A12108   4.208   3.153  11.250  0.1520 -0.2175 -2.7381
  116OSM   H15B12109   4.087   3.207  11.362  1.8118  1.3186  0.0146
  116OSM   H15C12110   4.070   3.243  11.188  0.4897 -0.9587 -1.3890
  116OSM    C1412111   4.032   3.027  11.086  0.5219  0.0174 -0.0422
  116OSM   H14A12112   4.022   2.922  11.064 -0.5270 -0.2824  1.7322
  116OSM   H14B12113   4.128   3.044  11.039  0.4800 -1.7960 -0.8631
  116OSM   H14C12114   3.951   3.080  11.037  1.1287 -1.1343 -2.4514
  116OSM    C1312115   4.083   2.938  11.309 -0.6167  0.9996  0.7807
  116OSM   H13A12116   4.187   2.917  11.289 -1.5565 -0.9285 -3.0927
  116OSM   H13B12117   4.022   2.848  11.304 -1.2084  1.4693 -1.9125
  116OSM   H13C12118   4.069   2.959  11.414 -1.2645 -0.9094  1.1244
  116OSM    C1212119   3.881   3.070  11.278  0.5744 -0.2357  0.6152
  116OSM   H12A12120   3.886   3.104  11.380 -1.3865  1.8104  0.1203
  116OSM   H12B12121   3.830   2.975  11.279 -3.0180  1.3504 -2.8038
  116OSM    C1112122   3.793   3.186  11.215 -0.2026 -0.2665 -0.2164
  116OSM   H11A12123   3.846   3.284  11.212  1.3170 -1.0683 -0.9775
  116OSM   H11B12124   3.702   3.204  11.276  0.5304 -0.5470  0.9966
  116OSM      P12125   3.698   3.017  11.030 -0.1694 -0.0303 -0.0701
  116OSM    O1312126   3.766   2.900  11.083 -0.0171  0.1760  0.3517
  116OSM    O1412127   3.553   3.014  11.042  0.2152 -0.2809 -0.7876
  116OSM    O1112128   3.724   3.034  10.880 -0.0120  0.4508 -0.4255
  116OSM    O1212129   3.759   3.154  11.080 -0.2938  0.5181 -1.0602
  116OSM    C1S12130   3.738   3.160  10.813  0.6867  0.6163 -0.1406
  116OSM    H1S12131   3.834   3.209  10.840  0.9855  0.7468 -1.3903
  116OSM    H1T12132   3.654   3.227  10.839  1.0308  0.6896  0.8317
  116OSM     NF12133   3.784   3.291  10.603 -0.3169  0.0949 -0.0046
  116OSM    HNF12134   3.713   3.360  10.593  1.0302  1.8310  1.6358
  116OSM    C2S12135   3.749   3.154  10.651 -0.1102  0.2455 -0.4107
  116OSM    H2S12136   3.828   3.079  10.632 -2.0195 -2.3062  1.0870
  116OSM    C3S12137   3.628   3.096  10.592  0.2359 -0.1840  0.1109
  116OSM    H3S12138   3.535   3.152  10.619 -1.2235 -2.8502  0.9447
  116OSM     O312139   3.594   2.969  10.648  0.6319 -0.0669 -0.5062
  116OSM    HO312140   3.654   2.948  10.720 -0.1319 -0.4801  0.0153
  116OSM    C4S12141   3.638   3.086  10.446 -0.2348  0.2903  0.2241
  116OSM    H4S12142   3.712   3.026  10.392 -3.5643 -1.9510 -2.2105
  116OSM    C5S12143   3.560   3.154  10.366  0.4204  0.1947  0.7966
  116OSM    H5S12144   3.489   3.226  10.410  0.0898 -0.1878  0.8938
  116OSM    C6S12145   3.562   3.157  10.219 -0.2805 -0.4572 -0.0104
  116OSM    H6S12146   3.582   3.263  10.194 -0.5011 -0.7482 -1.5705
  116OSM    H6T12147   3.467   3.125  10.171  0.7560 -0.0545 -2.5110
  116OSM    C7S12148   3.681   3.082  10.148  0.8035  0.3013 -0.1828
  116OSM    H7S12149   3.670   2.974  10.173  0.2126  0.0774 -1.3494
  116OSM    H7T12150   3.779   3.124  10.180 -0.1420  1.6734  1.0470
  116OSM    C8S12151   3.675   3.080  10.005  0.3792 -0.2298  0.0661
  116OSM    H8S12152   3.691   3.188   9.985  1.0224 -0.2386  0.4672
  116OSM    H8T12153   3.580   3.041   9.964  0.2742  0.0467  0.0488
  116OSM    C9S12154   3.782   3.001   9.928 -0.2857 -0.0481  0.3545
  116OSM    H9S12155   3.782   2.897   9.966 -0.8156 -0.6471 -1.2273
  116OSM    H9T12156   3.880   3.045   9.957 -1.4841  1.5706  2.1958
  116OSM   C10S12157   3.759   3.000   9.783 -0.0962  0.6644  0.2271
  116OSM   H10S12158   3.798   3.089   9.729  0.4948  0.6782  0.6669
  116OSM   H10T12159   3.650   2.998   9.762 -0.0736  1.6242 -0.0298
  116OSM   C11S12160   3.830   2.882   9.706 -0.1786  0.3845  0.6996
  116OSM   H11S12161   3.818   2.784   9.756  0.0707 -1.4915 -2.6452
  116OSM   H11T12162   3.939   2.903   9.713  0.1990  0.3982 -2.9824
  116OSM   C12S12163   3.815   2.873   9.553 -0.5024  0.3224  0.1931
  116OSM   H12S12164   3.724   2.817   9.521  0.4169 -0.3329 -1.3869
  116OSM   H12T12165   3.905   2.823   9.513  0.1963  1.4481  0.3244
  116OSM   C13S12166   3.794   3.006   9.484  0.8307 -0.8576  0.3777
  116OSM   H13S12167   3.858   3.091   9.516  0.4821  0.9558 -3.1907
  116OSM   H13T12168   3.686   3.030   9.502  0.9609 -0.5527  0.7710
  116OSM   C14S12169   3.802   3.001   9.325 -0.2835  0.5080 -0.2151
  116OSM   H14S12170   3.740   2.920   9.282 -1.5677  0.3054  1.8751
  116OSM   H14T12171   3.908   2.981   9.295  0.0213 -0.6369  1.5044
  116OSM   C15S12172   3.754   3.137   9.268  0.2560 -0.0477  0.3621
  116OSM   H15S12173   3.828   3.216   9.293  0.2812 -0.0552  0.3106
  116OSM   H15T12174   3.665   3.178   9.319 -0.0354  1.7003 -1.4311
  116OSM   C16S12175   3.735   3.124   9.118  0.8991  0.0515  0.0820
  116OSM   H16S12176   3.814   3.064   9.067 -0.4212 -0.2155 -1.7236
  116OSM   H16T12177   3.741   3.228   9.080 -3.5355 -0.4440 -2.5593
  116OSM   C17S12178   3.609   3.049   9.077 -0.5826 -0.0918  0.5308
  116OSM   H17S12179   3.529   3.097   9.136  0.0528  0.6290  0.8266
  116OSM   H17T12180   3.629   2.944   9.108  0.1170  0.0987  0.7600
  116OSM   C18S12181   3.574   3.061   8.923 -0.1453  0.2476  0.1127
  116OSM   H18S12182   3.656   3.002   8.877  1.2221  1.2659  1.1456
  116OSM   H18T12183   3.587   3.168   8.896  0.9809  0.2489  0.6110
  116OSM   H18U12184   3.478   3.011   8.896 -0.2908  2.0431 -3.1304
  116OSM    C1F12185   3.912   3.330  10.616 -0.3879  1.3499  0.5901
  116OSM     OF12186   3.998   3.253  10.664 -0.5443 -0.3628  0.1203
  116OSM    C2F12187   3.944   3.468  10.575  0.7778 -0.4720 -0.7542
  116OSM    H2F12188   4.025   3.493  10.647  2.3473  0.0524 -2.6357
  116OSM    H2G12189   3.859   3.538  10.590  0.7484 -1.0035  2.2560
  116OSM    C3F12190   4.003   3.485  10.437  0.3180 -0.7755  0.7230
  116OSM    H3F12191   4.096   3.426  10.424  0.0981 -1.1949  1.0617
  116OSM    H3G12192   4.032   3.592  10.429 -1.0514 -0.2907  1.6991
  116OSM    C4F12193   3.900   3.444  10.329 -0.0777 -0.4979  0.5037
  116OSM    H4F12194   3.807   3.501  10.352  0.6754 -0.6812  4.9856
  116OSM    H4G12195   3.877   3.336  10.337 -0.1275 -0.4306  1.3695
  116OSM    C5F12196   3.943   3.488  10.182  0.4763 -0.2375 -0.4523
  116OSM    H5F12197   4.016   3.407  10.161 -0.9797 -1.4521 -1.0077
  116OSM    H5G12198   3.987   3.589  10.176 -1.4243  0.7767  1.2872
  116OSM    C6F12199   3.837   3.485  10.068  0.0833 -0.5512 -0.3579
  116OSM    H6F12200   3.765   3.559  10.110 -0.6356 -1.7604  0.5856
  116OSM    H6G12201   3.784   3.389  10.049 -1.8178  0.3418  0.1593
  116OSM    C7F12202   3.877   3.557   9.936  0.6729 -0.3010  0.4163
  116OSM    H7F12203   3.951   3.494   9.881 -0.3025 -0.3362 -0.8986
  116OSM    H7G12204   3.933   3.651   9.956 -0.7359  0.9626 -1.2179
  116OSM    C8F12205   3.747   3.576   9.840  0.0910  0.1640 -0.5340
  116OSM    H8F12206   3.680   3.653   9.886  0.1527 -1.1720  1.9689
  116OSM    H8G12207   3.689   3.482   9.841 -2.3369  1.5743 -1.2782
  116OSM    C9F12208   3.801   3.625   9.709 -0.2009  0.4503  0.5542
  116OSM    H9F12209   3.825   3.732   9.701 -0.2191  0.3560 -0.9209
  116OSM   C10F12210   3.822   3.550   9.599  0.1267 -0.4874 -0.2042
  116OSM   H10F12211   3.871   3.606   9.519 -0.1547 -0.7007 -0.5274
  116OSM   C11F12212   3.778   3.404   9.582 -0.3280 -0.6301  0.4405
  116OSM   H11F12213   3.775   3.341   9.674  0.1559 -1.1490  0.1000
  116OSM   H11G12214   3.858   3.367   9.515 -0.0266  1.5779 -0.5044
  116OSM   C12F12215   3.627   3.394   9.530 -0.5046  0.0720 -0.2690
  116OSM   H12F12216   3.561   3.455   9.595 -2.7147 -1.2808 -1.1413
  116OSM   H12G12217   3.584   3.293   9.541  0.4513 -0.2506  0.5895
  116OSM   C13F12218   3.602   3.445   9.387  0.3692 -0.1072  0.0536
  116OSM   H13F12219   3.649   3.375   9.314  2.2329 -1.2661  2.2513
  116OSM   H13G12220   3.642   3.548   9.397  1.2886 -0.6058  1.8902
  116OSM   C14F12221   3.446   3.450   9.363  0.2120  0.0612  0.2967
  116OSM   H14F12222   3.392   3.515   9.435  0.1098 -0.2347  0.4887
  116OSM   H14G12223   3.405   3.347   9.376 -1.7175  0.6701 -0.6160
  116OSM   C15F12224   3.400   3.482   9.224 -0.2694 -0.1890  0.2440
  116OSM   H15F12225   3.465   3.438   9.145 -0.9314  0.4656 -0.6822
  116OSM   H15G12226   3.398   3.590   9.198 -1.1237  0.0846  1.3663
  116OSM   C16F12227   3.253   3.434   9.195  0.1206 -0.2030 -0.0803
  116OSM   H16F12228   3.198   3.503   9.127  1.0933 -0.4604 -1.1493
  116OSM   H16G12229   3.203   3.448   9.294  2.3131  1.1501  0.9135
  116OSM   C17F12230   3.233   3.300   9.137  0.4497  0.3359  0.7212
  116OSM   H17F12231   3.244   3.225   9.219  0.7037 -0.6678 -0.2177
  116OSM   H17G12232   3.312   3.286   9.061  2.0103  0.8788  2.1806
  116OSM   C18F12233   3.091   3.261   9.072 -0.5061  0.8176  0.2119
  116OSM   H18F12234   3.089   3.162   9.021  0.0902  0.0302  1.6526
  116OSM   H18G12235   3.059   3.345   9.007  1.0110 -0.1315 -1.8578
  116OSM   H18H12236   3.010   3.244   9.147  0.9930  0.0981  1.7438
  117OSM      N12237   6.298   2.848  10.642  0.1717 -0.4675 -0.5335
  117OSM    C1512238   6.286   2.861  10.489  0.5979 -0.5874  0.4429
  117OSM   H15A12239   6.206   2.932  10.475  2.3472  1.2206 -0.9653
  117OSM   H15B12240   6.237   2.773  10.451 -2.9867  0.8695  1.2716
  117OSM   H15C12241   6.379   2.894  10.445  0.4743 -0.4287  0.2993
  117OSM    C1412242   6.284   2.983  10.707 -0.1634  0.4512  0.5184
  117OSM   H14A12243   6.185   3.019  10.682 -2.0813 -2.1837  3.4809
  117OSM   H14B12244   6.362   3.053  10.681 -0.7425  1.0608  0.3933
  117OSM   H14C12245   6.292   2.961  10.812 -0.8802 -3.4405 -0.0907
  117OSM    C1312246   6.178   2.761  10.688 -0.8665 -0.3977  0.1608
  117OSM   H13A12247   6.174   2.678  10.619 -0.0564 -0.8711  0.6734
  117OSM   H13B12248   6.084   2.812  10.701 -0.9294 -0.3431 -0.4620
  117OSM   H13C12249   6.205   2.738  10.790  1.2467  2.3166  0.3010
  117OSM    C1212250   6.428   2.778  10.666 -0.5345  0.0311 -0.4056
  117OSM   H12A12251   6.497   2.853  10.631  0.4146 -0.3563  0.5748
  117OSM   H12B12252   6.421   2.692  10.600 -1.5123  0.8739 -1.4394
  117OSM    C1112253   6.461   2.746  10.814  0.3376  0.1763 -0.2114
  117OSM   H11A12254   6.435   2.833  10.878  0.3127 -0.0452  0.0837
  117OSM   H11B12255   6.569   2.719  10.813  0.0091 -1.2151 -2.0952
  117OSM      P12256   6.407   2.489  10.809 -0.0280  0.5397 -0.0702
  117OSM    O1312257   6.479   2.418  10.912  0.0742 -0.0437  0.1915
  117OSM    O1412258   6.280   2.430  10.761 -0.1091  0.0359 -0.0335
  117OSM    O1112259   6.508   2.499  10.688 -0.5231 -0.3694  0.2216
  117OSM    O1212260   6.376   2.638  10.863 -0.1130  0.0666  0.3653
  117OSM    C1S12261   6.563   2.397  10.616  0.2950  0.5040  0.1383
  117OSM    H1S12262   6.481   2.327  10.591  1.5058 -0.4043 -1.5416
  117OSM    H1T12263   6.645   2.342  10.669  1.9806  1.8895 -0.9325
  117OSM     NF12264   6.598   2.316  10.398  0.3428  0.0665 -0.3511
  117OSM    HNF12265   6.679   2.258  10.396 -1.4161 -2.5551 -0.7064
  117OSM    C2S12266   6.614   2.434  10.477  0.3498 -0.2054 -0.0737
  117OSM    H2S12267   6.544   2.507  10.430  0.2343  0.5623  1.2541
  117OSM    C3S12268   6.759   2.490  10.491  0.5302 -0.3084 -0.3337
  117OSM    H3S12269   6.830   2.409  10.520  2.0367  0.4187 -1.8281
  117OSM     O312270   6.758   2.588  10.590 -0.4993  0.0855 -0.2089
  117OSM    HO312271   6.675   2.581  10.637  0.8173  2.2467  2.8071
  117OSM    C4S12272   6.801   2.552  10.366  0.6114 -0.1463 -0.6069
  117OSM    H4S12273   6.761   2.654  10.356 -1.9091 -0.7597  2.0244
  117OSM    C5S12274   6.894   2.502  10.275  0.4223  0.1424  0.0015
  117OSM    H5S12275   6.929   2.399  10.290 -3.7146 -1.7398 -1.8629
  117OSM    C6S12276   6.934   2.568  10.146 -0.5738 -1.0925 -0.1206
  117OSM    H6S12277   6.913   2.504  10.057  1.1265  0.1152 -1.4501
  117OSM    H6T12278   7.044   2.577  10.141 -0.7222  0.7456 -0.9229
  117OSM    C7S12279   6.879   2.706  10.122 -0.0564 -0.8421  0.1500
  117OSM    H7S12280   6.880   2.771  10.211 -0.8378  0.5325 -0.8141
  117OSM    H7T12281   6.772   2.682  10.100 -0.3899  1.2041 -0.6560
  117OSM    C8S12282   6.916   2.788   9.989 -0.0320 -0.0739 -0.7398
  117OSM    H8S12283   7.008   2.848  10.001  0.7577 -1.6079  1.4303
  117OSM    H8T12284   6.835   2.865   9.987 -0.5855 -0.5550  1.2945
  117OSM    C9S12285   6.928   2.713   9.859  0.2752  0.3606  0.2226
  117OSM    H9S12286   6.834   2.719   9.799  0.2251 -0.8141  0.1688
  117OSM    H9T12287   6.943   2.603   9.864  2.2845  0.6245  0.8344
  117OSM   C10S12288   7.030   2.773   9.766  0.3032 -0.0158  0.0635
  117OSM   H10S12289   7.046   2.704   9.681 -2.2541 -1.7930  0.9267
  117OSM   H10T12290   7.129   2.777   9.818  0.2461 -2.1749  0.3961
  117OSM   C11S12291   7.004   2.910   9.713  0.1575 -0.1955  0.1869
  117OSM   H11S12292   7.006   2.983   9.797 -1.6457 -1.8550  1.8062
  117OSM   H11T12293   6.907   2.915   9.659 -0.2213 -0.8419  0.7728
  117OSM   C12S12294   7.101   2.954   9.610  0.1525 -0.0483 -0.8953
  117OSM   H12S12295   7.204   2.914   9.622 -0.5835 -2.8901 -2.9105
  117OSM   H12T12296   7.105   3.065   9.616 -0.5700 -0.0562  4.0999
  117OSM   C13S12297   7.065   2.901   9.471  0.6090 -0.1633  0.1286
  117OSM   H13S12298   6.971   2.947   9.435  1.5957 -1.2659 -4.4877
  117OSM   H13T12299   7.054   2.790   9.471  1.6420 -0.2794  1.0294
  117OSM   C14S12300   7.182   2.932   9.370  0.1366 -0.3255 -0.2338
  117OSM   H14S12301   7.272   2.882   9.412  0.0134  0.5138  1.0988
  117OSM   H14T12302   7.195   3.042   9.372 -1.3751 -0.0200  4.0222
  117OSM   C15S12303   7.159   2.873   9.229 -0.1160  0.0295  0.5233
  117OSM   H15S12304   7.052   2.874   9.200  0.5823  0.8602 -2.4686
  117OSM   H15T12305   7.182   2.765   9.217 -2.0340 -0.3940  0.3205
  117OSM   C16S12306   7.233   2.964   9.128 -0.1217  0.2620  0.0118
  117OSM   H16S12307   7.335   2.962   9.172  0.5176 -0.2567 -1.4196
  117OSM   H16T12308   7.185   3.064   9.135 -0.3598  0.0510  2.2792
  117OSM   C17S12309   7.228   2.905   8.985  0.0867 -0.3486 -0.4351
  117OSM   H17S12310   7.132   2.939   8.939  0.5153  1.7016  0.0733
  117OSM   H17T12311   7.227   2.794   8.991  0.4664 -0.4478 -1.9060
  117OSM   C18S12312   7.343   2.941   8.889  0.5614  0.4384 -0.2251
  117OSM   H18S12313   7.441   2.893   8.913  1.5745  1.7886 -1.4948
  117OSM   H18T12314   7.358   3.051   8.876 -2.3453  0.8284 -1.0494
  117OSM   H18U12315   7.320   2.913   8.784 -0.1267  2.2698 -0.5982
  117OSM    C1F12316   6.479   2.283  10.339  0.1723  0.0707 -0.2565
  117OSM     OF12317   6.388   2.360  10.355  0.1959  0.0908  0.2479
  117OSM    C2F12318   6.460   2.143  10.268  0.5885  0.1020  0.5941
  117OSM    H2F12319   6.391   2.080  10.327  1.7845 -0.7146  1.1524
  117OSM    H2G12320   6.557   2.091  10.284  1.0323  0.8965  0.5581
  117OSM    C3F12321   6.437   2.136  10.112 -0.6216  0.6583  0.1715
  117OSM    H3F12322   6.488   2.050  10.065 -0.4642  0.1915  1.1724
  117OSM    H3G12323   6.496   2.224  10.077 -0.4899  1.4622  2.2724
  117OSM    C4F12324   6.289   2.137  10.076 -0.0165 -0.0352  0.1670
  117OSM    H4F12325   6.242   2.227  10.121  0.1824  0.7246 -1.1100
  117OSM    H4G12326   6.242   2.049  10.126  0.5128  0.4809  1.6300
  117OSM    C5F12327   6.261   2.151   9.922  0.3192  0.7096  0.0849
  117OSM    H5F12328   6.342   2.212   9.876 -0.6675  1.2263 -1.0507
  117OSM    H5G12329   6.164   2.201   9.900 -0.2749  0.1506  1.3420
  117OSM    C6F12330   6.264   2.008   9.866  0.5702  0.4278  0.1206
  117OSM    H6F12331   6.183   1.946   9.910  1.1785 -2.1955 -2.1867
  117OSM    H6G12332   6.355   1.949   9.889 -0.6075 -2.1294 -1.3322
  117OSM    C7F12333   6.257   1.998   9.712  0.0242  1.0771 -0.3954
  117OSM    H7F12334   6.276   1.893   9.683 -0.4736  0.6007  0.9168
  117OSM    H7G12335   6.338   2.061   9.669  2.7812 -1.1148  1.2534
  117OSM    C8F12336   6.115   2.030   9.662 -0.0181 -0.1500 -0.7348
  117OSM    H8F12337   6.086   2.126   9.710  0.3035 -1.2075  1.7544
  117OSM    H8G12338   6.045   1.949   9.694  0.5918 -0.6038 -0.5232
  117OSM    C9F12339   6.106   2.031   9.511  0.6214 -0.0818 -0.2672
  117OSM    H9F12340   6.123   1.934   9.462  1.2565  0.7031 -1.6441
  117OSM   C10F12341   6.089   2.137   9.432 -0.3945  0.5553  0.6372
  117OSM   H10F12342   6.103   2.120   9.324  1.8493  0.2858  0.9218
  117OSM   C11F12343   6.086   2.286   9.464 -0.2882 -0.3038  0.6310
  117OSM   H11F12344   6.187   2.324   9.492  0.6488  0.0350 -2.7352
  117OSM   H11G12345   6.016   2.304   9.548 -1.7461 -2.4682 -0.0550
  117OSM   C12F12346   6.028   2.368   9.350 -0.2620 -0.3780  0.5503
  117OSM   H12F12347   5.991   2.464   9.391 -1.4203  0.1282 -1.5442
  117OSM   H12G12348   5.932   2.328   9.312 -0.0151  0.1582 -0.6670
  117OSM   C13F12349   6.125   2.406   9.232  0.7224  0.8521 -0.3715
  117OSM   H13F12350   6.162   2.314   9.183 -2.2131 -0.1120 -0.9903
  117OSM   H13G12351   6.212   2.458   9.278  1.8536 -1.5672  0.3770
  117OSM   C14F12352   6.059   2.490   9.124  0.7814  0.7941  0.2942
  117OSM   H14F12353   6.132   2.527   9.049 -1.0101 -0.2325 -2.1108
  117OSM   H14G12354   6.013   2.571   9.184  1.4472 -0.6544  2.9121
  117OSM   C15F12355   5.947   2.408   9.061 -0.5226 -0.4841  0.3122
  117OSM   H15F12356   5.874   2.380   9.140 -0.1556 -1.4007  0.3312
  117OSM   H15G12357   5.990   2.315   9.018 -1.5369 -0.9209  0.2194
  117OSM   C16F12358   5.874   2.475   8.946 -0.3778 -0.7168  0.4197
  117OSM   H16F12359   5.942   2.507   8.864 -0.4331  2.4523  1.4779
  117OSM   H16G12360   5.839   2.572   8.989  1.3568  0.3164 -0.3613
  117OSM   C17F12361   5.748   2.409   8.897 -0.0141  0.3213 -0.0489
  117OSM   H17F12362   5.676   2.478   8.848  1.1140  1.0867 -0.6477
  117OSM   H17G12363   5.698   2.359   8.983  1.9383 -0.1885  0.8483
  117OSM   C18F12364   5.788   2.291   8.790 -0.2392 -0.7044 -0.2780
  117OSM   H18F12365   5.805   2.193   8.840  0.4702 -0.6408 -0.3859
  117OSM   H18G12366   5.867   2.323   8.718  0.1238 -1.1801 -0.0958
  117OSM   H18H12367   5.700   2.260   8.730 -1.7383  2.0002  0.3868
  118OSM      N12368   6.615   4.215  11.272  0.0374  0.1495 -0.0073
  118OSM    C1512369   6.731   4.292  11.321  0.6528 -0.2424  0.4736
  118OSM   H15A12370   6.824   4.238  11.331  1.3183  0.3969 -1.7868
  118OSM   H15B12371   6.711   4.339  11.416  0.4242  1.5516 -0.4273
  118OSM   H15C12372   6.757   4.362  11.244  1.7060  1.0709  1.9593
  118OSM    C1412373   6.601   4.098  11.366  0.4884  0.0404  0.0151
  118OSM   H14A12374   6.687   4.032  11.361 -1.7560 -3.2243  1.2393
  118OSM   H14B12375   6.511   4.041  11.348 -0.5220  0.4728  3.1668
  118OSM   H14C12376   6.582   4.136  11.465 -0.1465 -1.6198  0.5540
  118OSM    C1312377   6.506   4.309  11.296  0.6036  0.0936 -0.0158
  118OSM   H13A12378   6.468   4.329  11.395 -0.3719 -1.2397 -0.0952
  118OSM   H13B12379   6.418   4.287  11.238  0.4031  0.7129  0.0512
  118OSM   H13C12380   6.538   4.404  11.256  0.6271 -0.7212 -2.0299
  118OSM    C1212381   6.640   4.172  11.127 -0.4981  0.4014 -0.2718
  118OSM   H12A12382   6.575   4.090  11.103  0.3907 -0.6827  0.8834
  118OSM   H12B12383   6.736   4.123  11.128 -1.7644 -2.2327 -0.4384
  118OSM    C1112384   6.631   4.277  11.015 -0.2368  0.0558  0.2451
  118OSM   H11A12385   6.524   4.290  10.991 -1.0453  0.1047  3.4437
  118OSM   H11B12386   6.682   4.228  10.929  1.1719  0.0713  1.0299
  118OSM      P12387   6.630   4.542  11.029 -0.3249  0.0161 -0.4619
  118OSM    O1312388   6.539   4.572  11.144 -0.1249 -0.1094  0.2017
  118OSM    O1412389   6.735   4.640  10.995 -0.5018 -0.2661 -0.4691
  118OSM    O1112390   6.527   4.538  10.904 -0.4709  0.0683 -0.1596
  118OSM    O1212391   6.698   4.397  11.045 -0.6064 -0.4273  0.3155
  118OSM    C1S12392   6.569   4.503  10.772  0.1932  0.0285 -0.5483
  118OSM    H1S12393   6.589   4.394  10.760  0.3498  0.0479 -0.4533
  118OSM    H1T12394   6.672   4.540  10.754 -0.2492  1.7448  0.2801
  118OSM     NF12395   6.497   4.478  10.530 -0.7966  0.2408 -0.0154
  118OSM    HNF12396   6.536   4.531  10.455  0.0755 -0.3222  0.0322
  118OSM    C2S12397   6.467   4.540  10.659 -0.1080  0.4666  0.1535
  118OSM    H2S12398   6.368   4.493  10.681 -0.3655  0.3539 -1.1531
  118OSM    C3S12399   6.441   4.693  10.657 -1.0053 -0.3230  0.9982
  118OSM    H3S12400   6.537   4.739  10.623 -2.2281  3.9624  2.6053
  118OSM     O312401   6.407   4.763  10.776  0.4280 -0.5398 -0.5268
  118OSM    HO312402   6.420   4.696  10.843 -0.1880 -0.4177 -0.2763
  118OSM    C4S12403   6.331   4.727  10.552 -0.2567  0.0341  0.5771
  118OSM    H4S12404   6.366   4.771  10.457 -0.9747  0.0416  0.3045
  118OSM    C5S12405   6.200   4.727  10.569 -0.0697  0.3962 -0.4906
  118OSM    H5S12406   6.151   4.696  10.663 -0.3155  2.3126  0.0474
  118OSM    C6S12407   6.096   4.772  10.471 -0.2076 -0.0462 -0.6847
  118OSM    H6S12408   6.036   4.851  10.522  1.9574  0.4152  1.3098
  118OSM    H6T12409   6.020   4.691  10.463  3.0186 -3.3305 -0.7267
  118OSM    C7S12410   6.139   4.811  10.332  0.1241 -0.3164 -0.3408
  118OSM    H7S12411   6.205   4.730  10.293  0.3814  0.0094 -0.5956
  118OSM    H7T12412   6.214   4.893  10.319  0.0419 -0.2866 -0.6533
  118OSM    C8S12413   6.023   4.836  10.240  0.0491 -0.2100  0.4395
  118OSM    H8S12414   5.978   4.931  10.276  1.0020  1.2059 -1.9009
  118OSM    H8T12415   5.955   4.749  10.253 -0.2151  0.1444  1.5588
  118OSM    C9S12416   6.065   4.845  10.094 -0.4004 -0.4512 -0.1799
  118OSM    H9S12417   6.128   4.758  10.068  3.3329  2.2424 -0.9788
  118OSM    H9T12418   6.126   4.937  10.079  0.8516 -1.5857 -2.5617
  118OSM   C10S12419   5.956   4.852   9.987  0.3483 -0.8053 -0.7318
  118OSM   H10S12420   5.895   4.943  10.006  0.3822 -0.8564 -0.3721
  118OSM   H10T12421   5.894   4.761  10.005 -0.5077 -0.0281  0.5098
  118OSM   C11S12422   6.024   4.850   9.853  0.4486  0.4466  0.2036
  118OSM   H11S12423   6.068   4.749   9.839 -2.5063 -0.9382  0.1045
  118OSM   H11T12424   6.105   4.926   9.851  1.4656 -0.5872  0.5932
  118OSM   C12S12425   5.932   4.878   9.732 -0.1690  0.3452  0.4107
  118OSM   H12S12426   5.884   4.978   9.744 -2.4476 -0.4792 -1.0520
  118OSM   H12T12427   5.845   4.810   9.720 -0.2441  0.0986  2.0819
  118OSM   C13S12428   6.018   4.864   9.596 -0.3825 -0.0935 -0.5129
  118OSM   H13S12429   6.091   4.780   9.593 -0.3416 -0.1037  0.4272
  118OSM   H13T12430   6.086   4.952   9.596 -1.0722  0.4499 -0.5580
  118OSM   C14S12431   5.928   4.854   9.463 -0.7068 -1.2287  0.3588
  118OSM   H14S12432   5.884   4.954   9.446  0.6003 -0.4545  1.3289
  118OSM   H14T12433   5.841   4.789   9.487 -1.0062 -0.9099  0.1457
  118OSM   C15S12434   6.014   4.825   9.339  0.9399 -0.5303 -0.0379
  118OSM   H15S12435   6.052   4.721   9.345 -1.4352 -1.4041  1.1110
  118OSM   H15T12436   6.107   4.886   9.336  1.5646 -1.4968 -1.2538
  118OSM   C16S12437   5.944   4.845   9.202 -0.1024  0.2843 -0.5110
  118OSM   H16S12438   5.868   4.925   9.216 -0.8283 -0.6747  1.3580
  118OSM   H16T12439   5.901   4.750   9.163 -0.1727 -0.2527  0.8174
  118OSM   C17S12440   6.035   4.896   9.100 -0.4815 -0.0401 -0.0482
  118OSM   H17S12441   6.102   4.818   9.059  0.5122  0.3860  0.7346
  118OSM   H17T12442   6.098   4.970   9.154  1.4944 -1.7006  0.0317
  118OSM   C18S12443   5.959   4.961   8.983 -0.4529  0.1479  0.3298
  118OSM   H18S12444   6.032   5.010   8.915  1.5590  1.8541  3.4744
  118OSM   H18T12445   5.890   5.034   9.031 -0.5461 -0.9863  2.0064
  118OSM   H18U12446   5.890   4.882   8.947 -0.5769 -0.0512  0.9917
  118OSM    C1F12447   6.518   4.349  10.516  0.0451  0.0065  0.7228
  118OSM     OF12448   6.476   4.270  10.601 -0.0428  0.0032 -0.3020
  118OSM    C2F12449   6.605   4.301  10.407 -0.2498  0.9447 -0.4571
  118OSM    H2F12450   6.711   4.304  10.440 -0.2381 -1.1888 -0.1533
  118OSM    H2G12451   6.579   4.363  10.318 -1.3539  0.7453 -0.2954
  118OSM    C3F12452   6.574   4.152  10.364 -0.0173  0.3629 -0.1469
  118OSM    H3F12453   6.468   4.119  10.355  0.2829 -1.3723  1.8672
  118OSM    H3G12454   6.619   4.088  10.442  0.5560  1.5720  0.5299
  118OSM    C4F12455   6.639   4.112  10.227 -0.4768  0.0160 -0.0628
  118OSM    H4F12456   6.647   4.002  10.218 -0.1645  0.0190  0.1520
  118OSM    H4G12457   6.742   4.153  10.219 -0.5507 -0.0798 -1.9603
  118OSM    C5F12458   6.537   4.166  10.119 -0.0398 -0.2169 -0.0167
  118OSM    H5F12459   6.530   4.277  10.123  1.4452 -0.1020  0.2602
  118OSM    H5G12460   6.439   4.127  10.153 -0.2244  0.4201  0.1949
  118OSM    C6F12461   6.569   4.143   9.971 -0.6113 -0.6703 -0.3204
  118OSM    H6F12462   6.527   4.045   9.939  1.4384 -1.3989 -0.9048
  118OSM    H6G12463   6.679   4.141   9.977 -0.6353 -2.2157  0.0357
  118OSM    C7F12464   6.533   4.279   9.893  0.2499  0.2380 -0.0087
  118OSM    H7F12465   6.595   4.350   9.952 -0.6954  2.2302 -1.2892
  118OSM    H7G12466   6.424   4.300   9.893  0.2291  0.1329  0.3066
  118OSM    C8F12467   6.575   4.286   9.749 -0.0331  0.4668  0.4287
  118OSM    H8F12468   6.684   4.299   9.731 -0.0572  0.0926 -0.0029
  118OSM    H8G12469   6.517   4.372   9.708 -1.8290 -0.1361  1.5675
  118OSM    C9F12470   6.536   4.167   9.670 -0.6563  0.8273  0.4489
  118OSM    H9F12471   6.583   4.072   9.698 -3.0034 -1.5537 -2.8539
  118OSM   C10F12472   6.453   4.162   9.570  0.3739 -0.2208 -0.1153
  118OSM   H10F12473   6.438   4.072   9.509 -0.5866  0.6649 -1.2324
  118OSM   C11F12474   6.388   4.283   9.508  0.2564  0.2602 -0.4560
  118OSM   H11F12475   6.465   4.362   9.499  0.0859  0.6449  1.1285
  118OSM   H11G12476   6.313   4.323   9.579  0.0942 -2.1821  0.8726
  118OSM   C12F12477   6.325   4.263   9.369 -1.0465 -0.5761  0.1155
  118OSM   H12F12478   6.270   4.360   9.369 -2.5681 -1.3775 -1.2791
  118OSM   H12G12479   6.239   4.193   9.356 -0.4845 -1.4246  0.9326
  118OSM   C13F12480   6.425   4.243   9.250 -0.2121  0.0870 -0.0514
  118OSM   H13F12481   6.488   4.153   9.270 -2.8727 -2.4244 -1.9584
  118OSM   H13G12482   6.489   4.333   9.253 -2.1407  1.5176  3.5404
  118OSM   C14F12483   6.353   4.218   9.112  0.2878  0.0651 -0.8712
  118OSM   H14F12484   6.279   4.300   9.108  2.2229  1.9548  0.0733
  118OSM   H14G12485   6.301   4.120   9.114  0.4956 -0.0489  0.8382
  118OSM   C15F12486   6.446   4.206   8.991 -0.5241 -0.2851  0.6536
  118OSM   H15F12487   6.513   4.120   9.013 -0.1332  0.3758  2.2135
  118OSM   H15G12488   6.510   4.295   8.972  1.7298 -2.1702 -1.1765
  118OSM   C16F12489   6.372   4.162   8.866  0.5212 -0.9014  0.4410
  118OSM   H16F12490   6.310   4.251   8.842  1.9786  0.3512  1.1187
  118OSM   H16G12491   6.317   4.067   8.884  0.8080 -1.0818  0.3793
  118OSM   C17F12492   6.481   4.139   8.757  0.5906  0.3074  0.0977
  118OSM   H17F12493   6.532   4.045   8.785  0.9302 -0.1616 -1.9394
  118OSM   H17G12494   6.553   4.222   8.776 -0.2820  0.6647  2.1743
  118OSM   C18F12495   6.423   4.125   8.611  0.0346  0.2992 -0.2326
  118OSM   H18F12496   6.504   4.116   8.535  0.4901 -0.7440  0.3560
  118OSM   H18G12497   6.371   4.220   8.587  2.3349  1.6353 -0.2394
  118OSM   H18H12498   6.361   4.032   8.610  2.4782 -1.4312  0.0214
  119OSM      N12499   0.591   2.291  11.206 -0.5592 -0.9638 -0.3685
  119OSM    C1512500   0.714   2.231  11.266  0.5076  0.1259  0.2477
  119OSM   H15A12501   0.758   2.297  11.339 -0.9355 -0.0156  1.2845
  119OSM   H15B12502   0.784   2.221  11.184 -0.9384 -0.2591 -0.9853
  119OSM   H15C12503   0.688   2.135  11.309  1.7499 -1.1474 -1.6645
  119OSM    C1412504   0.538   2.207  11.097  0.4839  0.8375  0.3400
  119OSM   H14A12505   0.461   2.245  11.031 -0.6036  2.1595  2.2838
  119OSM   H14B12506   0.498   2.115  11.136  6.0196 -1.7209  1.0286
  119OSM   H14C12507   0.618   2.174  11.032  1.6877 -1.0030  2.6094
  119OSM    C1312508   0.493   2.300  11.317 -0.1006 -0.3141  0.1667
  119OSM   H13A12509   0.491   2.201  11.358 -1.0427 -1.8309 -3.2009
  119OSM   H13B12510   0.402   2.334  11.269  0.8554  2.4851  0.1297
  119OSM   H13C12511   0.515   2.374  11.393  0.7167  1.3885 -1.6154
  119OSM    C1212512   0.632   2.429  11.155  0.0435 -0.9183  0.3416
  119OSM   H12A12513   0.688   2.483  11.229  1.1807  1.5936 -2.1832
  119OSM   H12B12514   0.539   2.479  11.131  0.3726 -1.7742 -3.3159
  119OSM    C1112515   0.715   2.448  11.025  0.8917 -0.1674  0.4407
  119OSM   H11A12516   0.738   2.555  11.006 -2.1537  0.4365 -0.4538
  119OSM   H11B12517   0.647   2.420  10.942 -2.6724  3.5572  1.7948
  119OSM      P12518   0.980   2.430  11.061  0.8935  0.2091 -0.3988
  119OSM    O1312519   0.966   2.518  11.182 -0.5426  0.1435  0.0993
  119OSM    O1412520   1.075   2.320  11.059  0.5864 -0.3181  0.0920
  119OSM    O1112521   0.991   2.533  10.938  0.3901 -0.2694 -0.5442
  119OSM    O1212522   0.837   2.367  11.024  0.2242 -0.0134  0.2529
  119OSM    C1S12523   0.986   2.490  10.804 -0.3030  0.7014  0.6671
  119OSM    H1S12524   0.881   2.482  10.768 -0.0640 -0.2920  0.1298
  119OSM    H1T12525   1.035   2.391  10.788 -0.5847  0.3511  1.8750
  119OSM     NF12526   1.053   2.538  10.564  0.5348  0.1485 -0.7986
  119OSM    HNF12527   1.136   2.486  10.543  1.2157  0.3019  1.2523
  119OSM    C2S12528   1.063   2.585  10.703  0.0726 -0.6050  0.1013
  119OSM    H2S12529   1.016   2.686  10.704  0.5675 -0.3758  0.3953
  119OSM    C3S12530   1.209   2.601  10.745  0.4607 -0.2762  0.2617
  119OSM    H3S12531   1.253   2.499  10.740  1.1395  0.0361 -0.2974
  119OSM     O312532   1.224   2.655  10.876 -0.2140  0.3983  0.0181
  119OSM    HO312533   1.136   2.673  10.909  0.2920 -0.1072  1.7254
  119OSM    C4S12534   1.289   2.692  10.659 -0.0517 -0.4188 -0.1725
  119OSM    H4S12535   1.260   2.798  10.664 -1.3597 -0.7402 -0.3279
  119OSM    C5S12536   1.394   2.650  10.583 -0.7792  0.9179 -0.5042
  119OSM    H5S12537   1.416   2.543  10.567 -2.1057  0.8580 -2.3205
  119OSM    C6S12538   1.481   2.740  10.498  0.1865  0.0128  1.1061
  119OSM    H6S12539   1.587   2.706  10.504  0.6247  1.5277  3.9530
  119OSM    H6T12540   1.490   2.846  10.530  1.1337  0.2870  0.0361
  119OSM    C7S12541   1.444   2.733  10.342  0.5587  0.3333  0.2935
  119OSM    H7S12542   1.335   2.753  10.332  0.6849  0.1193 -2.4409
  119OSM    H7T12543   1.477   2.639  10.292  2.0294  1.1762 -0.4032
  119OSM    C8S12544   1.517   2.841  10.254  0.4720  0.3836  0.1276
  119OSM    H8S12545   1.628   2.835  10.259  0.3997 -0.8352  0.4869
  119OSM    H8T12546   1.497   2.943  10.294  1.6900  0.7526 -0.1623
  119OSM    C9S12547   1.469   2.830  10.112  0.0789  0.5967  0.1470
  119OSM    H9S12548   1.358   2.838  10.109  0.1536  1.7423 -0.3629
  119OSM    H9T12549   1.494   2.738  10.056 -0.1020  0.1344  0.8221
  119OSM   C10S12550   1.514   2.946  10.030  0.3814 -0.6653 -0.5779
  119OSM   H10S12551   1.503   3.034  10.098  1.2754 -1.7457  1.0506
  119OSM   H10T12552   1.446   2.957   9.943 -0.3160  0.9440  0.1199
  119OSM   C11S12553   1.654   2.952   9.986 -0.0764  0.1516 -0.1085
  119OSM   H11S12554   1.678   2.864   9.922 -2.1976 -0.1282 -0.6109
  119OSM   H11T12555   1.722   2.940  10.073  0.4169  1.9777 -0.2208
  119OSM   C12S12556   1.683   3.074   9.899  0.4471  0.0908  0.3558
  119OSM   H12S12557   1.793   3.094   9.894  0.4940 -0.3789 -1.9560
  119OSM   H12T12558   1.650   3.175   9.931  0.8298  0.2935  0.1186
  119OSM   C13S12559   1.636   3.062   9.756  0.7192 -0.0480  0.1505
  119OSM   H13S12560   1.528   3.089   9.748  0.3229 -1.2154  1.2837
  119OSM   H13T12561   1.658   2.961   9.717 -1.3992 -0.5986  0.2746
  119OSM   C14S12562   1.715   3.160   9.674 -0.5750 -0.1923 -0.8931
  119OSM   H14S12563   1.821   3.128   9.677 -0.9628 -1.5156 -0.7096
  119OSM   H14T12564   1.712   3.257   9.729  3.4369  0.4371 -1.5244
  119OSM   C15S12565   1.665   3.177   9.525  0.2779 -0.5149 -0.1675
  119OSM   H15S12566   1.561   3.214   9.532 -0.1186 -1.7992  1.1829
  119OSM   H15T12567   1.682   3.084   9.466 -1.5244 -0.3738 -0.9513
  119OSM   C16S12568   1.737   3.273   9.438  0.5634 -0.6857  0.0390
  119OSM   H16S12569   1.688   3.283   9.339 -0.1201 -0.8162  0.3605
  119OSM   H16T12570   1.842   3.243   9.415  0.6009 -0.7524  0.2957
  119OSM   C17S12571   1.745   3.416   9.497  0.1613  0.9922 -0.9919
  119OSM   H17S12572   1.838   3.433   9.555 -0.8747  2.6344  0.2929
  119OSM   H17T12573   1.665   3.412   9.574 -0.1771 -2.4222 -1.3579
  119OSM   C18S12574   1.730   3.535   9.400 -0.4417  0.0473 -0.6840
  119OSM   H18S12575   1.728   3.633   9.453  1.0864 -0.7710  0.9883
  119OSM   H18T12576   1.636   3.516   9.344 -1.0133 -3.8356  1.2338
  119OSM   H18U12577   1.813   3.529   9.327 -1.0648  1.0187 -1.5086
  119OSM    C1F12578   0.931   2.525  10.504 -0.7377 -0.6168 -0.8705
  119OSM     OF12579   0.828   2.564  10.554  0.1695  0.2622 -0.3244
  119OSM    C2F12580   0.935   2.446  10.378  0.4348 -0.2698  0.4707
  119OSM    H2F12581   0.947   2.336  10.391  1.1961 -0.3754 -0.9906
  119OSM    H2G12582   1.025   2.466  10.317 -0.5356 -1.7973 -1.5913
  119OSM    C3F12583   0.810   2.479  10.282 -0.8955  0.9018 -0.6721
  119OSM    H3F12584   0.804   2.590  10.283  0.9067  1.0364 -1.0163
  119OSM    H3G12585   0.717   2.437  10.327 -0.4461 -0.8291 -1.2752
  119OSM    C4F12586   0.816   2.420  10.141 -0.5959 -0.4290 -0.5255
  119OSM    H4F12587   0.797   2.311  10.140 -0.5664 -0.5464  2.3703
  119OSM    H4G12588   0.922   2.437  10.111 -0.5251  1.7686  0.7179
  119OSM    C5F12589   0.722   2.490  10.042 -0.9201  0.3621 -0.1156
  119OSM    H5F12590   0.720   2.601  10.038  0.1423  0.4225  0.5796
  119OSM    H5G12591   0.614   2.466  10.051 -1.0683  0.2604 -1.8236
  119OSM    C6F12592   0.748   2.438   9.900  0.0301  0.0707 -0.4841
  119OSM    H6F12593   0.725   2.330   9.896  1.8599 -0.3452 -0.6407
  119OSM    H6G12594   0.858   2.439   9.884 -0.0374  2.0011 -1.0930
  119OSM    C7F12595   0.676   2.516   9.793 -0.1336 -0.1611 -0.1211
  119OSM    H7F12596   0.718   2.617   9.774  0.0817 -0.3419 -0.6242
  119OSM    H7G12597   0.572   2.524   9.831  0.0373 -2.7864  1.1065
  119OSM    C8F12598   0.673   2.451   9.653 -0.0687 -0.4227  0.6484
  119OSM    H8F12599   0.618   2.356   9.665 -0.1202 -0.4933 -0.1204
  119OSM    H8G12600   0.775   2.419   9.621 -0.8288 -1.9121 -0.3674
  119OSM    C9F12601   0.616   2.540   9.546 -0.1963  0.7855  0.0567
  119OSM    H9F12602   0.687   2.600   9.487 -0.7333  0.3523 -1.0490
  119OSM   C10F12603   0.490   2.546   9.498  1.1438  0.0579 -0.0688
  119OSM   H10F12604   0.451   2.619   9.427  0.9242 -0.2021 -0.2176
  119OSM   C11F12605   0.379   2.443   9.549 -0.0025  0.7571 -0.0467
  119OSM   H11F12606   0.297   2.507   9.588 -0.0907  0.4914  0.2073
  119OSM   H11G12607   0.409   2.375   9.631 -0.9851  1.0642  0.5810
  119OSM   C12F12608   0.319   2.357   9.429 -0.6150 -0.3046  0.5754
  119OSM   H12F12609   0.244   2.285   9.468  0.3780 -0.9911  1.2870
  119OSM   H12G12610   0.408   2.295   9.404  0.7445  2.1350 -1.0275
  119OSM   C13F12611   0.275   2.437   9.307  0.6424 -0.1369  0.3971
  119OSM   H13F12612   0.271   2.372   9.217 -0.6302 -1.5801  1.4422
  119OSM   H13G12613   0.341   2.520   9.275 -2.9131  3.3272  1.2115
  119OSM   C14F12614   0.133   2.493   9.329  0.0300 -0.0658  0.0464
  119OSM   H14F12615   0.133   2.561   9.417 -0.1786  0.2811 -0.2202
  119OSM   H14G12616   0.057   2.423   9.370  1.1670 -0.0333  2.3803
  119OSM   C15F12617   0.074   2.572   9.216  0.2633 -0.3239  1.2286
  119OSM   H15F12618   0.124   2.669   9.198  0.1278 -0.6729 -1.4907
  119OSM   H15G12619  -0.031   2.600   9.239  0.3301  1.9878 -0.8976
  119OSM   C16F12620   0.068   2.501   9.082  0.7839  0.7873 -0.1677
  119OSM   H16F12621   0.006   2.411   9.098 -3.4650  3.3342 -0.6986
  119OSM   H16G12622   0.173   2.475   9.057  0.2246  0.2968 -2.1481
  119OSM   C17F12623   0.027   2.584   8.971  0.1181 -0.2424  0.2038
  119OSM   H17F12624   0.101   2.666   8.953 -0.8321  0.7163  0.5918
  119OSM   H17G12625  -0.072   2.630   8.991  0.7487  0.8380  0.9498
  119OSM   C18F12626   0.024   2.494   8.850  0.2953  0.8414  0.0651
  119OSM   H18F12627  -0.013   2.548   8.760  0.9551 -0.2269 -0.8937
  119OSM   H18G12628  -0.044   2.410   8.875 -0.0333  0.7788 -0.9738
  119OSM   H18H12629   0.123   2.448   8.827 -0.3959 -2.3371  2.7437
  120OSM      N12630   0.185   0.482  10.575  0.5490 -0.1870 -0.7337
  120OSM    C1512631   0.050   0.401  10.588  0.1719  0.1930  0.0448
  120OSM   H15A12632   0.024   0.384  10.692  0.1214  1.6429  0.2895
  120OSM   H15B12633   0.053   0.312  10.527  0.1115  0.0815  0.2022
  120OSM   H15C12634  -0.026   0.463  10.543 -1.0614 -1.7311 -0.6237
  120OSM    C1412635   0.216   0.514  10.432 -0.0089 -0.1453 -0.1184
  120OSM   H14A12636   0.247   0.418  10.392 -1.1885 -2.4067  3.8390
  120OSM   H14B12637   0.299   0.578  10.405 -1.3304  1.8300  0.2649
  120OSM   H14C12638   0.128   0.551  10.381 -0.8215 -1.9741 -0.1251
  120OSM    C1312639   0.154   0.607  10.652  1.3853 -0.0016 -0.2394
  120OSM   H13A12640   0.096   0.674  10.591  0.3378 -0.9255 -0.2767
  120OSM   H13B12641   0.246   0.663  10.662  0.5068  1.3714  0.5583
  120OSM   H13C12642   0.112   0.583  10.749  0.3296  1.0404 -0.4293
  120OSM    C1212643   0.295   0.398  10.637  0.1478  0.8111 -0.5947
  120OSM   H12A12644   0.315   0.314  10.572 -2.1743 -1.0537  0.9364
  120OSM   H12B12645   0.263   0.352  10.729 -0.8435 -0.7888 -1.7050
  120OSM    C1112646   0.437   0.459  10.649  0.1608  0.3482 -0.1137
  120OSM   H11A12647   0.482   0.488  10.551  0.6923 -0.1257 -0.0137
  120OSM   H11B12648   0.501   0.378  10.690  0.1992 -0.7450 -2.1784
  120OSM      P12649   0.548   0.668  10.773  0.1619 -0.2483  0.0466
  120OSM    O1312650   0.490   0.793  10.820 -0.1956 -0.1147 -0.1032
  120OSM    O1412651   0.641   0.590  10.860  0.0253 -0.5384  0.2550
  120OSM    O1112652   0.629   0.710  10.644 -0.3790  0.2801 -0.1620
  120OSM    O1212653   0.430   0.574  10.733  0.1871  0.1469  0.6541
  120OSM    C1S12654   0.571   0.773  10.534 -0.0806  0.1250 -0.0458
  120OSM    H1S12655   0.556   0.878  10.566  2.1940 -0.3511  3.0089
  120OSM    H1T12656   0.474   0.728  10.505  0.1610  0.0667 -0.7762
  120OSM     NF12657   0.602   0.854  10.300 -0.1276  0.2271 -0.9370
  120OSM    HNF12658   0.546   0.813  10.230 -0.2960 -1.3775  0.0807
  120OSM    C2S12659   0.659   0.765  10.406  0.2577 -0.9990 -0.1397
  120OSM    H2S12660   0.757   0.808  10.437 -0.0621  1.4827 -2.2149
  120OSM    C3S12661   0.675   0.618  10.361 -0.6107  0.6771 -0.2781
  120OSM    H3S12662   0.578   0.569  10.341 -1.1491  1.5032  0.2294
  120OSM     O312663   0.750   0.535  10.455 -0.1386  0.0893  0.3485
  120OSM    HO312664   0.713   0.555  10.541 -1.8345 -0.1787 -0.2703
  120OSM    C4S12665   0.739   0.625  10.225 -0.2572 -0.8477  0.3853
  120OSM    H4S12666   0.669   0.653  10.145  1.8193  1.2349 -0.8318
  120OSM    C5S12667   0.868   0.620  10.191  0.0111 -0.5286  0.5591
  120OSM    H5S12668   0.941   0.610  10.273 -1.3927 -0.4281  1.8762
  120OSM    C6S12669   0.940   0.644  10.054  0.2906 -0.7833 -0.5456
  120OSM    H6S12670   1.012   0.560  10.052 -1.7865 -2.8437  2.7358
  120OSM    H6T12671   0.996   0.741  10.052 -0.8900  0.0520  2.2526
  120OSM    C7S12672   0.842   0.644   9.933 -1.1356  0.5691 -0.0982
  120OSM    H7S12673   0.792   0.743   9.945  0.5619  1.3024  1.3821
  120OSM    H7T12674   0.770   0.560   9.938 -0.8236  0.0194 -3.0745
  120OSM    C8S12675   0.929   0.641   9.804  0.7370 -0.1226 -0.4016
  120OSM    H8S12676   0.981   0.543   9.804 -0.7941 -0.9878  0.9896
  120OSM    H8T12677   0.995   0.729   9.787 -0.0887  0.3897 -1.0467
  120OSM    C9S12678   0.847   0.625   9.676  0.0482 -0.5300 -0.1874
  120OSM    H9S12679   0.791   0.717   9.651 -0.1025 -0.4363  0.4822
  120OSM    H9T12680   0.776   0.544   9.704 -1.7465  1.2525  0.6397
  120OSM   C10S12681   0.934   0.590   9.550 -0.3267 -0.1954 -0.0869
  120OSM   H10S12682   0.988   0.493   9.557 -0.4198 -0.1573  1.6221
  120OSM   H10T12683   1.013   0.667   9.544  1.2031 -1.3912  2.6463
  120OSM   C11S12684   0.847   0.592   9.423  0.4704 -0.4298 -0.7364
  120OSM   H11S12685   0.804   0.695   9.428  2.6602  0.4903  0.4609
  120OSM   H11T12686   0.759   0.524   9.426  0.2296 -0.1472 -1.2138
  120OSM   C12S12687   0.922   0.599   9.287 -0.7920 -0.0076  0.2641
  120OSM   H12S12688   0.989   0.511   9.291 -0.5483  0.1942  0.6571
  120OSM   H12T12689   0.992   0.686   9.290  0.0073 -0.4037 -2.9329
  120OSM   C13S12690   0.836   0.596   9.153  0.3379 -0.1974  0.1075
  120OSM   H13S12691   0.905   0.618   9.068  0.6724 -0.7886  0.2190
  120OSM   H13T12692   0.756   0.673   9.162 -0.4074 -1.0889  1.1698
  120OSM   C14S12693   0.782   0.457   9.126 -0.1987 -0.4485 -0.1990
  120OSM   H14S12694   0.724   0.432   9.217 -0.6309  1.9523  0.2560
  120OSM   H14T12695   0.871   0.390   9.119 -0.5549 -1.3689  2.7824
  120OSM   C15S12696   0.699   0.452   8.999  0.7200  0.4708 -0.9921
  120OSM   H15S12697   0.622   0.531   9.013 -0.4293 -0.8954  0.9233
  120OSM   H15T12698   0.633   0.363   8.999 -1.0570  1.4492  3.9789
  120OSM   C16S12699   0.771   0.478   8.878 -0.5024 -0.2106  1.0344
  120OSM   H16S12700   0.835   0.390   8.860  0.9452  0.5089  2.4078
  120OSM   H16T12701   0.826   0.574   8.878 -2.3544  0.9689 -1.2635
  120OSM   C17S12702   0.674   0.488   8.756 -0.1149 -0.2953  0.3337
  120OSM   H17S12703   0.744   0.504   8.672  0.8981 -2.6431  0.6585
  120OSM   H17T12704   0.618   0.583   8.772  1.4271  0.4699  1.3535
  120OSM   C18S12705   0.599   0.361   8.723 -0.3641 -0.4717 -0.1675
  120OSM   H18S12706   0.532   0.364   8.635 -1.1649  1.3403  0.4607
  120OSM   H18T12707   0.540   0.323   8.809 -0.3415  1.4488  0.7466
  120OSM   H18U12708   0.675   0.285   8.695  0.6219  0.7273 -0.8860
  120OSM    C1F12709   0.605   0.986  10.315  0.2730 -0.4016  0.6161
  120OSM     OF12710   0.662   1.040  10.408 -0.1439  0.5543 -0.4152
  120OSM    C2F12711   0.532   1.068  10.217 -0.0806 -0.6792 -0.2397
  120OSM    H2F12712   0.465   1.135  10.275  0.3018  0.7310 -1.3745
  120OSM    H2G12713   0.461   1.013  10.152 -1.9044  2.6575 -1.3273
  120OSM    C3F12714   0.624   1.158  10.139 -0.0464 -0.4161 -0.0341
  120OSM    H3F12715   0.678   1.229  10.205 -0.8060  0.0025  0.1423
  120OSM    H3G12716   0.556   1.217  10.074 -0.6994 -0.0406  0.9754
  120OSM    C4F12717   0.730   1.096  10.048  0.2081  0.0504 -0.1016
  120OSM    H4F12718   0.775   1.004  10.091  2.5914  1.1528 -0.0601
  120OSM    H4G12719   0.817   1.164  10.040  1.2726 -1.3477 -1.0969
  120OSM    C5F12720   0.669   1.076   9.903 -0.6291  0.1209 -0.0863
  120OSM    H5F12721   0.608   1.167   9.883 -1.4054  0.5645  3.6637
  120OSM    H5G12722   0.601   0.988   9.907  0.6695 -0.9765 -1.2234
  120OSM    C6F12723   0.781   1.076   9.790 -0.3194 -0.2274  0.0167
  120OSM    H6F12724   0.846   0.987   9.802 -0.0410  0.2986  3.0321
  120OSM    H6G12725   0.841   1.169   9.805  0.1247 -0.0699 -2.3057
  120OSM    C7F12726   0.728   1.081   9.643  0.3933  0.1273 -0.8218
  120OSM    H7F12727   0.652   1.162   9.645 -2.9310 -2.8091  0.2347
  120OSM    H7G12728   0.683   0.987   9.606 -1.3895  0.9546 -0.8545
  120OSM    C8F12729   0.838   1.126   9.544 -0.0455  0.2668 -0.4951
  120OSM    H8F12730   0.896   1.214   9.580  0.8609 -0.5957  0.2188
  120OSM    H8G12731   0.780   1.145   9.451  0.2884 -4.1714 -1.8464
  120OSM    C9F12732   0.932   1.016   9.529 -0.3139  0.5436 -0.2632
  120OSM    H9F12733   0.999   0.995   9.613  0.5140  2.6223 -0.3675
  120OSM   C10F12734   0.953   0.949   9.416  0.2686 -0.3741  0.2154
  120OSM   H10F12735   1.034   0.875   9.408  0.1293 -0.7216  1.6629
  120OSM   C11F12736   0.868   0.971   9.295  0.3527 -0.2083 -0.6943
  120OSM   H11F12737   0.759   0.991   9.309  0.3369 -0.5966 -0.2359
  120OSM   H11G12738   0.875   0.874   9.242 -0.7751 -2.4581  2.8633
  120OSM   C12F12739   0.920   1.077   9.190  0.7662 -0.3961  0.2481
  120OSM   H12F12740   1.029   1.064   9.174  1.7755  2.7207  3.4570
  120OSM   H12G12741   0.916   1.181   9.227  1.5808  0.9346 -3.0061
  120OSM   C13F12742   0.851   1.073   9.048  0.3603  0.1849 -0.1043
  120OSM   H13F12743   0.875   1.174   9.009  2.8343 -0.3637 -0.1693
  120OSM   H13G12744   0.743   1.066   9.072  0.6004  0.2892  1.0467
  120OSM   C14F12745   0.910   0.975   8.949  0.0784  0.3293  0.5019
  120OSM   H14F12746   0.904   0.873   8.993  3.3455  0.1009  0.6808
  120OSM   H14G12747   1.021   0.981   8.941  0.1786 -0.1941  1.3151
  120OSM   C15F12748   0.830   0.964   8.809 -0.3239 -0.1449  0.3147
  120OSM   H15F12749   0.729   0.956   8.855  0.0073  0.0473  1.1026
  120OSM   H15G12750   0.869   0.877   8.753  1.6525  0.1996  1.0699
  120OSM   C16F12751   0.852   1.082   8.716 -0.0574 -0.1261 -0.4064
  120OSM   H16F12752   0.949   1.071   8.662  0.7371 -0.5071  1.0510
  120OSM   H16G12753   0.877   1.173   8.775  2.5369 -1.3828  0.5807
  120OSM   C17F12754   0.744   1.090   8.608 -0.3727 -0.0194  0.0601
  120OSM   H17F12755   0.644   1.087   8.656  0.4457  0.3451  1.8518
  120OSM   H17G12756   0.733   1.000   8.542  0.6510 -0.5258  0.5510
  120OSM   C18F12757   0.749   1.217   8.525  0.9205 -0.9721 -0.4325
  120OSM   H18F12758   0.676   1.290   8.568  0.0032 -1.3128 -1.3685
  120OSM   H18G12759   0.700   1.203   8.426 -0.2854 -2.3011  0.3084
  120OSM   H18H12760   0.847   1.269   8.532  0.4531 -0.0170 -0.7743
  121OSM      N12761   1.271   3.487  11.056 -0.8073 -0.0146 -0.8957
  121OSM    C1512762   1.402   3.491  10.994  0.3128 -0.3874  0.6409
  121OSM   H15A12763   1.408   3.567  10.917 -2.1265 -0.3687  0.3904
  121OSM   H15B12764   1.432   3.393  10.960  0.2823 -0.1527 -0.0708
  121OSM   H15C12765   1.482   3.506  11.066  2.1576 -0.1025 -1.3598
  121OSM    C1412766   1.260   3.383  11.158 -0.8599 -0.1512 -0.1921
  121OSM   H14A12767   1.340   3.398  11.228  0.1081 -2.2617 -0.7665
  121OSM   H14B12768   1.265   3.284  11.116 -2.1437  1.1131 -3.6928
  121OSM   H14C12769   1.166   3.391  11.211 -1.1555 -0.1458 -0.7094
  121OSM    C1312770   1.245   3.624  11.105 -0.5065 -0.0030  0.1807
  121OSM   H13A12771   1.247   3.702  11.031  2.4138 -1.9539 -2.0230
  121OSM   H13B12772   1.326   3.661  11.166 -0.8537 -0.5922  1.0238
  121OSM   H13C12773   1.155   3.625  11.165 -0.9264  1.3393 -0.4561
  121OSM    C1212774   1.174   3.453  10.944 -0.4010 -0.0225  0.7866
  121OSM   H12A12775   1.177   3.348  10.920 -1.0801  0.1585 -0.1501
  121OSM   H12B12776   1.196   3.513  10.857  0.7998  0.5164  1.4494
  121OSM    C1112777   1.027   3.491  10.974 -0.1233  0.0756 -0.2842
  121OSM   H11A12778   0.957   3.474  10.890  0.3434  0.3194 -0.7211
  121OSM   H11B12779   1.007   3.600  10.974  2.1368  0.5257 -0.9984
  121OSM      P12780   0.887   3.303  11.119  0.2195 -0.4705  0.3069
  121OSM    O1312781   0.967   3.213  11.209 -0.1646  0.0274  0.1415
  121OSM    O1412782   0.745   3.340  11.155 -1.0737 -0.3725  0.2457
  121OSM    O1112783   0.908   3.246  10.969 -0.6027  0.6612  0.5015
  121OSM    O1212784   0.976   3.429  11.100  0.1106 -0.1455 -0.0733
  121OSM    C1S12785   0.799   3.214  10.879 -0.1371  0.7393  0.4190
  121OSM    H1S12786   0.727   3.297  10.863 -1.0787  0.0885  1.1442
  121OSM    H1T12787   0.742   3.127  10.918 -1.6793  1.8025  0.5930
  121OSM     NF12788   0.750   3.180  10.640  0.4289  0.0534 -0.5925
  121OSM    HNF12789   0.700   3.098  10.614 -1.1200  0.4556  0.9850
  121OSM    C2S12790   0.855   3.174  10.737  0.1091 -0.2989  0.7752
  121OSM    H2S12791   0.933   3.249  10.712 -0.9494  0.0672 -1.6735
  121OSM    C3S12792   0.922   3.039  10.747  0.0962  0.1811 -0.1245
  121OSM    H3S12793   0.853   2.961  10.788 -0.5609  1.1445  0.6609
  121OSM     O312794   1.026   3.038  10.844 -0.0074 -0.3442  0.2386
  121OSM    HO312795   1.004   3.114  10.900 -0.2696  0.6927 -1.2043
  121OSM    C4S12796   0.964   2.998  10.610  0.2944  0.2980 -0.4603
  121OSM    H4S12797   0.875   2.959  10.558 -0.7327 -2.5145  3.0389
  121OSM    C5S12798   1.080   3.029  10.550 -0.3987  0.8383  0.4539
  121OSM    H5S12799   1.157   3.086  10.603 -2.0718  2.6483  1.0361
  121OSM    C6S12800   1.104   2.982  10.410  0.1722 -0.1416 -0.0211
  121OSM    H6S12801   1.185   2.906  10.408  0.7565  0.4441 -2.7419
  121OSM    H6T12802   1.140   3.072  10.356 -1.4247  0.5618  0.0416
  121OSM    C7S12803   0.992   2.928  10.315  0.4232 -0.5123 -0.3306
  121OSM    H7S12804   0.917   3.007  10.294  0.4729  0.2779  2.1477
  121OSM    H7T12805   0.943   2.840  10.362 -0.9927  0.3377 -0.1635
  121OSM    C8S12806   1.066   2.900  10.183  0.1181  0.3373 -0.7786
  121OSM    H8S12807   1.155   2.837  10.205  0.9231  0.8753 -2.3837
  121OSM    H8T12808   1.110   2.998  10.154  0.3347  0.0528 -1.4162
  121OSM    C9S12809   0.983   2.821  10.083 -0.7166 -0.3498 -0.0264
  121OSM    H9S12810   0.900   2.878  10.036 -0.4923  1.3410  1.5322
  121OSM    H9T12811   0.936   2.738  10.139  0.2526 -0.8604  0.0465
  121OSM   C10S12812   1.083   2.764   9.983  0.1972 -0.8424 -0.1212
  121OSM   H10S12813   1.158   2.695  10.027 -0.3704 -0.1141  2.1315
  121OSM   H10T12814   1.143   2.852   9.951 -0.7545 -0.1901 -0.1665
  121OSM   C11S12815   1.019   2.690   9.861 -0.6960 -0.0504 -0.2690
  121OSM   H11S12816   0.941   2.759   9.822 -1.2537  0.1504  1.1548
  121OSM   H11T12817   0.994   2.586   9.889  3.7097 -1.0935  0.4692
  121OSM   C12S12818   1.114   2.682   9.743 -0.3701  0.4108  1.0389
  121OSM   H12S12819   1.194   2.612   9.773 -1.5222 -1.8379 -0.8487
  121OSM   H12T12820   1.142   2.786   9.716  2.1523 -0.4334  0.0974
  121OSM   C13S12821   1.042   2.618   9.622 -0.2113  0.2473  0.2548
  121OSM   H13S12822   0.946   2.672   9.606  0.5755  1.8175  0.7192
  121OSM   H13T12823   1.023   2.510   9.643  1.5135 -0.2156 -0.3906
  121OSM   C14S12824   1.140   2.634   9.501  0.0546  0.0300 -0.6775
  121OSM   H14S12825   1.246   2.620   9.532 -0.1845 -0.3487 -0.0222
  121OSM   H14T12826   1.125   2.739   9.469  0.7247 -0.4653 -2.7577
  121OSM   C15S12827   1.095   2.552   9.383  0.3020  0.5276  0.7386
  121OSM   H15S12828   0.992   2.583   9.353 -0.3347 -1.8196  0.2922
  121OSM   H15T12829   1.079   2.444   9.404  1.6014  0.5641  2.0120
  121OSM   C16S12830   1.194   2.574   9.270  0.6160 -0.0756 -0.3750
  121OSM   H16S12831   1.300   2.562   9.301  0.4672 -1.6118 -0.4047
  121OSM   H16T12832   1.173   2.679   9.241  0.5770 -0.3397 -1.3135
  121OSM   C17S12833   1.154   2.493   9.140 -0.2499  0.5272  0.2461
  121OSM   H17S12834   1.053   2.524   9.105 -0.1700  1.3939  0.7481
  121OSM   H17T12835   1.153   2.383   9.153 -2.3606  0.7015  2.2123
  121OSM   C18S12836   1.241   2.529   9.026 -0.8630 -0.2108  0.0386
  121OSM   H18S12837   1.215   2.471   8.935 -2.5557  2.1512 -1.1002
  121OSM   H18T12838   1.347   2.501   9.043 -0.5280  0.4490 -0.8909
  121OSM   H18U12839   1.216   2.636   9.010 -4.3696 -0.6869  1.4211
  121OSM    C1F12840   0.712   3.300  10.587 -0.5812  0.2218  0.7989
  121OSM     OF12841   0.790   3.400  10.602  0.0207  0.4642  0.4163
  121OSM    C2F12842   0.584   3.305  10.512 -0.0222  0.0474  0.4784
  121OSM    H2F12843   0.505   3.257  10.573 -0.1763  0.6722  0.7737
  121OSM    H2G12844   0.593   3.248  10.417  1.5376 -3.2373  2.4176
  121OSM    C3F12845   0.535   3.445  10.481 -0.2286  0.3256  0.0386
  121OSM    H3F12846   0.529   3.524  10.559 -1.1550  2.3035 -1.9358
  121OSM    H3G12847   0.431   3.430  10.448 -0.3370 -0.9069  0.8618
  121OSM    C4F12848   0.606   3.514  10.356 -0.2097  0.2467  0.0104
  121OSM    H4F12849   0.713   3.542  10.370 -1.0071  3.8091  0.1220
  121OSM    H4G12850   0.553   3.609  10.331  1.2357  0.9198 -0.6231
  121OSM    C5F12851   0.594   3.432  10.227  0.0273  0.5689 -0.5143
  121OSM    H5F12852   0.492   3.388  10.235 -0.2540  1.2436 -0.2962
  121OSM    H5G12853   0.669   3.350  10.229  1.4663  1.8596 -0.0137
  121OSM    C6F12854   0.634   3.521  10.105  1.2119  0.6137 -0.0465
  121OSM    H6F12855   0.725   3.583  10.125  2.3777 -1.0541 -0.0011
  121OSM    H6G12856   0.545   3.587  10.093  2.3080  1.6799 -3.3499
  121OSM    C7F12857   0.656   3.432   9.979  0.0404  0.1960 -0.4060
  121OSM    H7F12858   0.565   3.372   9.956 -1.1715  1.2457  1.3826
  121OSM    H7G12859   0.737   3.360  10.005 -0.8615  0.2354  3.0398
  121OSM    C8F12860   0.690   3.516   9.853 -0.7972 -0.6013  0.1034
  121OSM    H8F12861   0.629   3.609   9.855 -0.5143 -0.3718 -1.2040
  121OSM    H8G12862   0.649   3.472   9.759 -2.1557  2.4433 -0.8640
  121OSM    C9F12863   0.840   3.547   9.855 -0.0596  0.2921  0.1734
  121OSM    H9F12864   0.873   3.552   9.959 -0.8239 -2.1278  0.5862
  121OSM   C10F12865   0.920   3.546   9.745  0.1908 -0.4208  0.1330
  121OSM   H10F12866   1.026   3.572   9.761 -0.0077 -0.2830  1.3566
  121OSM   C11F12867   0.878   3.530   9.594  0.0341 -0.0518  0.2736
  121OSM   H11F12868   0.895   3.624   9.538  2.2707  0.0378  1.0350
  121OSM   H11G12869   0.774   3.495   9.573  0.1311  0.0253 -0.3462
  121OSM   C12F12870   0.974   3.430   9.519 -0.1957  0.3074 -0.1621
  121OSM   H12F12871   0.921   3.400   9.427 -2.0020  0.5146  0.7701
  121OSM   H12G12872   0.989   3.332   9.569  0.6945  1.5936  2.2725
  121OSM   C13F12873   1.114   3.486   9.471 -0.0765  0.2637 -0.0814
  121OSM   H13F12874   1.179   3.485   9.562  0.1745 -0.4571 -0.2608
  121OSM   H13G12875   1.094   3.587   9.430 -2.7188 -0.9580 -2.0462
  121OSM   C14F12876   1.186   3.404   9.368  0.1896  0.0285 -0.5144
  121OSM   H14F12877   1.114   3.363   9.294  0.9154 -0.8511 -0.7534
  121OSM   H14G12878   1.231   3.308   9.401 -1.4420 -0.9666 -1.1024
  121OSM   C15F12879   1.296   3.483   9.291  0.2303 -0.0840  0.3949
  121OSM   H15F12880   1.370   3.510   9.369 -0.4958 -0.3807  1.2076
  121OSM   H15G12881   1.243   3.573   9.252  1.2150 -0.0938 -1.0283
  121OSM   C16F12882   1.358   3.396   9.177 -0.1993 -0.4690  0.1392
  121OSM   H16F12883   1.282   3.350   9.110  0.4121  0.2379 -1.0755
  121OSM   H16G12884   1.409   3.307   9.219  1.4223 -0.3298 -1.3739
  121OSM   C17F12885   1.451   3.469   9.081 -0.1168  0.5197 -0.1663
  121OSM   H17F12886   1.551   3.490   9.122  0.0225  3.0510 -1.5971
  121OSM   H17G12887   1.401   3.568   9.072  1.9398  1.5126 -1.4622
  121OSM   C18F12888   1.468   3.403   8.947 -0.3267  0.0525  0.4835
  121OSM   H18F12889   1.370   3.381   8.899  0.2306  0.5154 -0.8983
  121OSM   H18G12890   1.530   3.311   8.953  2.4701  1.8958  1.2117
  121OSM   H18H12891   1.525   3.466   8.877  1.8028 -1.5227  0.7057
  122OSM      N12892   2.337   2.574  11.081  0.6673  0.4953 -0.1158
  122OSM    C1512893   2.288   2.698  11.144  0.2838 -0.2278 -0.6221
  122OSM   H15A12894   2.181   2.696  11.157  0.4299 -1.5647  0.6337
  122OSM   H15B12895   2.317   2.794  11.103  1.1389 -0.1975  0.0177
  122OSM   H15C12896   2.325   2.696  11.246  2.3768  2.8207 -1.1818
  122OSM    C1412897   2.487   2.571  11.091 -0.4792  0.9600  0.2908
  122OSM   H14A12898   2.514   2.480  11.040 -1.0906  0.4331  0.8874
  122OSM   H14B12899   2.517   2.563  11.195  0.2049 -0.1185  0.0154
  122OSM   H14C12900   2.538   2.647  11.034  2.1266 -1.2474 -0.4904
  122OSM    C1312901   2.267   2.464  11.163  0.3625 -0.9339  0.2370
  122OSM   H13A12902   2.160   2.472  11.145  0.7883  1.3640 -1.7883
  122OSM   H13B12903   2.300   2.471  11.265  0.6018 -1.2956  0.1877
  122OSM   H13C12904   2.281   2.365  11.122 -2.8135 -0.7763 -1.6412
  122OSM    C1212905   2.291   2.559  10.936  0.1595  0.1779 -0.0861
  122OSM   H12A12906   2.328   2.462  10.906 -1.9131 -0.8210  0.4162
  122OSM   H12B12907   2.350   2.629  10.879 -0.1739  0.4472 -0.1036
  122OSM    C1112908   2.140   2.577  10.898 -0.1847  0.0136  0.7109
  122OSM   H11A12909   2.151   2.566  10.788  2.3338 -3.4556  1.1267
  122OSM   H11B12910   2.098   2.673  10.937  1.8421  0.7065  1.3338
  122OSM      P12911   2.084   2.324  10.893 -0.0121  1.2366  0.1813
  122OSM    O1312912   2.209   2.256  10.933  0.1594 -0.3298 -0.0766
  122OSM    O1412913   1.958   2.252  10.934  0.1972 -0.0900 -0.1323
  122OSM    O1112914   2.078   2.335  10.739  0.4947 -0.3383  0.7273
  122OSM    O1212915   2.061   2.470  10.944 -0.0306  0.0525  0.9030
  122OSM    C1S12916   1.963   2.318  10.652  0.6837  0.4925 -0.9534
  122OSM    H1S12917   1.879   2.379  10.692  0.9011  1.5895 -2.1232
  122OSM    H1T12918   1.931   2.211  10.656  1.0228  0.3701 -1.4241
  122OSM     NF12919   1.872   2.366  10.420 -0.1603 -0.0286 -0.1332
  122OSM    HNF12920   1.845   2.299  10.351  1.1475  0.3891 -1.0937
  122OSM    C2S12921   1.996   2.348  10.501 -0.0380  0.1045  0.2562
  122OSM    H2S12922   2.050   2.444  10.511 -1.6342  1.0956 -0.2230
  122OSM    C3S12923   2.091   2.234  10.450  0.1684 -0.1523 -0.3270
  122OSM    H3S12924   2.037   2.139  10.425 -0.6381  0.0819  0.4631
  122OSM     O312925   2.187   2.186  10.539 -0.1833 -0.1041 -0.3205
  122OSM    HO312926   2.181   2.243  10.616  1.3244 -0.3890  0.0358
  122OSM    C4S12927   2.152   2.269  10.311 -0.8089 -0.4137 -0.1061
  122OSM    H4S12928   2.208   2.363  10.308  0.1103 -0.9783 -1.0359
  122OSM    C5S12929   2.139   2.208  10.190  0.0063  0.2481  0.2258
  122OSM    H5S12930   2.063   2.128  10.189 -0.5721  0.7913  0.1632
  122OSM    C6S12931   2.195   2.248  10.061  0.0953 -0.6983  1.1409
  122OSM    H6S12932   2.264   2.174  10.015 -0.6640 -0.2530 -0.8225
  122OSM    H6T12933   2.252   2.341  10.082  1.8116 -1.9121  2.0507
  122OSM    C7S12934   2.087   2.276   9.957 -0.6552  0.5099  0.5303
  122OSM    H7S12935   2.020   2.361   9.982  0.6657  2.1918 -1.2868
  122OSM    H7T12936   2.041   2.176   9.942  1.0230 -0.1133 -0.7395
  122OSM    C8S12937   2.143   2.318   9.810 -1.3047  0.4705 -0.7098
  122OSM    H8S12938   2.229   2.249   9.796 -3.2399 -1.6560 -2.8582
  122OSM    H8T12939   2.173   2.425   9.824 -2.4904  0.6906  0.2879
  122OSM    C9S12940   2.052   2.311   9.693 -0.1742 -0.2169  0.6661
  122OSM    H9S12941   1.966   2.380   9.708  0.0718 -0.1254  1.6826
  122OSM    H9T12942   2.009   2.213   9.666 -2.8728  1.0429  0.0483
  122OSM   C10S12943   2.131   2.351   9.557  0.9215  0.6895 -0.5804
  122OSM   H10S12944   2.195   2.268   9.519  0.5267  1.7176 -3.7338
  122OSM   H10T12945   2.190   2.442   9.580  1.6674  0.2306 -0.6567
  122OSM   C11S12946   2.038   2.389   9.441  0.4649  0.6742 -0.0293
  122OSM   H11S12947   1.959   2.452   9.489 -2.6390 -2.3743 -0.7191
  122OSM   H11T12948   1.992   2.293   9.409  0.8251  0.1828  0.9180
  122OSM   C12S12949   2.101   2.460   9.313 -0.0080 -0.0437 -0.1003
  122OSM   H12S12950   2.160   2.547   9.348  1.0121  0.1598 -2.1580
  122OSM   H12T12951   2.024   2.515   9.255 -0.3493  0.5919  0.9349
  122OSM   C13S12952   2.188   2.361   9.228  0.8428  0.4315 -0.2371
  122OSM   H13S12953   2.238   2.283   9.289 -1.2738 -0.5380  0.3542
  122OSM   H13T12954   2.267   2.419   9.175  1.6238 -0.7973 -0.4473
  122OSM   C14S12955   2.107   2.301   9.113 -0.0228  0.0480  0.1354
  122OSM   H14S12956   2.096   2.390   9.048 -1.8216  1.5587  2.3448
  122OSM   H14T12957   2.004   2.275   9.146 -1.6337  0.2568 -4.1149
  122OSM   C15S12958   2.178   2.181   9.039  0.4824 -0.7255 -0.4288
  122OSM   H15S12959   2.175   2.094   9.108 -2.5855  1.6728  2.8444
  122OSM   H15T12960   2.284   2.212   9.026 -0.0701  1.0931 -0.9614
  122OSM   C16S12961   2.132   2.148   8.897  0.2519 -0.0046  0.9090
  122OSM   H16S12962   2.160   2.229   8.828 -1.4763 -0.1482 -0.0235
  122OSM   H16T12963   2.022   2.134   8.891  0.0776  1.7294 -0.7118
  122OSM   C17S12964   2.187   2.011   8.850  0.3442 -0.7403  0.1525
  122OSM   H17S12965   2.162   1.941   8.933  0.6466 -0.4097  0.5225
  122OSM   H17T12966   2.297   2.018   8.855  0.2449  1.0106  0.3618
  122OSM   C18S12967   2.126   1.963   8.725 -0.1535 -0.3200  0.5871
  122OSM   H18S12968   2.016   1.949   8.734  0.0584 -0.7332  3.4453
  122OSM   H18T12969   2.161   1.866   8.684 -0.2030 -0.5145  0.9988
  122OSM   H18U12970   2.141   2.043   8.649  0.3874 -1.5105 -0.5916
  122OSM    C1F12971   1.799   2.479  10.430 -0.0048 -0.0573 -0.2207
  122OSM     OF12972   1.808   2.559  10.522 -0.5150 -0.2225 -0.0766
  122OSM    C2F12973   1.694   2.496  10.315  0.1090  0.0030 -0.2524
  122OSM    H2F12974   1.670   2.605  10.314 -0.2163 -0.0682 -0.2320
  122OSM    H2G12975   1.599   2.441  10.329  1.1708 -1.9017 -0.2081
  122OSM    C3F12976   1.753   2.461  10.176 -0.4431 -0.4270  0.1585
  122OSM    H3F12977   1.735   2.351  10.169  0.2648 -0.5520  0.1931
  122OSM    H3G12978   1.862   2.480  10.175 -0.2973 -1.0947 -1.6139
  122OSM    C4F12979   1.674   2.523  10.065 -0.2481 -0.9675  0.1473
  122OSM    H4F12980   1.709   2.628  10.074 -1.1990 -0.5109 -1.3610
  122OSM    H4G12981   1.565   2.525  10.086 -0.6969  1.3482 -2.0023
  122OSM    C5F12982   1.703   2.474   9.919  0.2002  0.3603 -0.3205
  122OSM    H5F12983   1.683   2.365   9.925  4.2906 -0.5329 -0.3756
  122OSM    H5G12984   1.810   2.492   9.898  0.6009  0.4690  1.6711
  122OSM    C6F12985   1.596   2.532   9.816 -0.2327  0.4864 -0.4200
  122OSM    H6F12986   1.620   2.640   9.806  1.7397  0.1082 -0.2209
  122OSM    H6G12987   1.496   2.520   9.861 -0.5011 -0.1652 -1.1650
  122OSM    C7F12988   1.612   2.458   9.681  0.1690 -0.0363 -0.1185
  122OSM    H7F12989   1.595   2.351   9.706 -1.7183  0.4606  0.9811
  122OSM    H7G12990   1.711   2.458   9.630 -0.3349 -0.9673 -1.1426
  122OSM    C8F12991   1.510   2.497   9.577  0.5075 -0.6444  0.2245
  122OSM    H8F12992   1.412   2.489   9.628  0.9843  0.5058  1.3840
  122OSM    H8G12993   1.509   2.421   9.495 -0.8473  1.3729 -1.7502
  122OSM    C9F12994   1.535   2.642   9.517 -0.1276 -0.4116 -0.3564
  122OSM    H9F12995   1.468   2.719   9.557  1.8393  0.8287  0.6737
  122OSM   C10F12996   1.614   2.660   9.404 -0.4275 -0.0191 -0.6323
  122OSM   H10F12997   1.619   2.763   9.366 -0.7940 -0.0479 -0.7594
  122OSM   C11F12998   1.695   2.560   9.329 -0.7119 -0.0733 -0.8312
  122OSM   H11F12999   1.667   2.456   9.357 -2.3040  0.4459 -0.3836
  122OSM   H11G13000   1.800   2.589   9.350 -1.2198  0.4792  1.1718
  122OSM   C12F13001   1.677   2.567   9.178 -0.0551  0.2914  0.1444
  122OSM   H12F13002   1.726   2.661   9.146 -0.0339  0.2885  0.1684
  122OSM   H12G13003   1.571   2.561   9.149  0.2170 -1.0638 -0.6275
  122OSM   C13F13004   1.747   2.456   9.102 -0.6667  0.1684  0.7428
  122OSM   H13F13005   1.715   2.358   9.145 -0.7038 -1.1447 -2.0367
  122OSM   H13G13006   1.858   2.459   9.105 -0.4895 -2.1380 -0.6112
  122OSM   C14F13007   1.699   2.458   8.949  0.2457 -0.3243 -0.1762
  122OSM   H14F13008   1.714   2.563   8.916  0.4151  1.0398  3.7274
  122OSM   H14G13009   1.589   2.441   8.957 -0.1895  1.6671 -1.2441
  122OSM   C15F13010   1.765   2.348   8.862  0.1083 -0.0301  0.2986
  122OSM   H15F13011   1.748   2.258   8.925  1.9051  1.0641  2.4980
  122OSM   H15G13012   1.873   2.369   8.876  0.7609 -1.0692 -2.5324
  122OSM   C16F13013   1.721   2.338   8.718 -0.2087 -0.2465  0.1771
  122OSM   H16F13014   1.788   2.391   8.647 -0.3402 -0.9722 -0.5066
  122OSM   H16G13015   1.625   2.393   8.711 -0.0854 -0.1589 -1.2381
  122OSM   C17F13016   1.700   2.195   8.664 -0.4253 -0.0056  0.0184
  122OSM   H17F13017   1.797   2.142   8.674 -0.7014 -0.7908 -1.2762
  122OSM   H17G13018   1.683   2.206   8.555 -0.2345  0.3291  0.0205
  122OSM   C18F13019   1.602   2.105   8.736 -0.3373  0.5759 -0.0930
  122OSM   H18F13020   1.565   2.021   8.674 -1.1896 -0.1552  1.3683
  122OSM   H18G13021   1.509   2.159   8.765 -1.5618 -0.3196 -2.1547
  122OSM   H18H13022   1.645   2.062   8.829  1.5908 -1.8989 -1.9879
  123OSM      N13023   2.964   0.420   5.797  0.4429 -0.0163  0.3989
  123OSM    C1513024   3.035   0.525   5.715 -0.0819  0.0726  0.4487
  123OSM   H15A13025   2.997   0.524   5.613 -1.5346  1.0369  0.9585
  123OSM   H15B13026   3.141   0.502   5.712 -0.4114 -1.5677 -1.9207
  123OSM   H15C13027   3.019   0.625   5.750  0.3561  0.7073 -1.0579
  123OSM    C1413028   2.823   0.450   5.795  0.3208 -0.5157 -0.7646
  123OSM   H14A13029   2.802   0.547   5.837  0.8767 -0.6625 -0.1265
  123OSM   H14B13030   2.770   0.371   5.847  0.4502  0.5526  1.0493
  123OSM   H14C13031   2.797   0.458   5.690  0.8197  2.5856 -0.7416
  123OSM    C1313032   2.978   0.292   5.720  0.2647  0.1062  0.5080
  123OSM   H13A13033   3.068   0.238   5.746 -1.4872 -2.3571  1.8946
  123OSM   H13B13034   2.975   0.309   5.614 -0.5770  0.7223  0.6193
  123OSM   H13C13035   2.900   0.219   5.736 -0.3819  1.2579  3.0639
  123OSM    C1213036   3.021   0.408   5.938  0.1784 -0.0618 -0.4227
  123OSM   H12A13037   3.124   0.377   5.930 -0.4531 -1.9699 -1.6716
  123OSM   H12B13038   2.975   0.323   5.986  0.1054  0.5185  0.5818
  123OSM    C1113039   3.011   0.525   6.027 -0.0934  0.7800 -0.5282
  123OSM   H11A13040   2.907   0.549   6.057 -0.5248 -0.8308 -0.6461
  123OSM   H11B13041   3.040   0.616   5.970  0.0845  1.3011  0.3892
  123OSM      P13042   3.239   0.557   6.152 -0.0324 -0.3393 -0.3857
  123OSM    O1313043   3.321   0.450   6.092 -0.2143  0.1502 -0.0783
  123OSM    O1413044   3.247   0.695   6.095 -0.1686  0.2381 -0.1607
  123OSM    O1113045   3.272   0.563   6.307  0.5674 -0.3519 -0.0612
  123OSM    O1213046   3.088   0.508   6.144  0.0300  0.2216 -0.2052
  123OSM    C1S13047   3.186   0.632   6.395 -0.0057  0.2000 -0.2029
  123OSM    H1S13048   3.080   0.611   6.369  0.5189 -0.8631 -1.6705
  123OSM    H1T13049   3.199   0.742   6.400 -0.3440  0.1906  1.4683
  123OSM     NF13050   3.106   0.614   6.624 -0.1277 -0.8499  0.2451
  123OSM    HNF13051   3.116   0.687   6.691  0.0835  0.7786 -1.4873
  123OSM    C2S13052   3.217   0.594   6.537 -0.5601 -0.1460 -0.6891
  123OSM    H2S13053   3.230   0.484   6.528  1.3609  0.1668 -2.8798
  123OSM    C3S13054   3.352   0.662   6.592  0.1682  0.1302  0.4378
  123OSM    H3S13055   3.328   0.768   6.613  1.7666  0.6084  0.0652
  123OSM     O313056   3.455   0.655   6.495 -0.0823 -0.1433 -0.4999
  123OSM    HO313057   3.403   0.630   6.418 -0.6459 -2.6543  0.6226
  123OSM    C4S13058   3.392   0.598   6.720  0.2969 -0.2715  0.1842
  123OSM    H4S13059   3.369   0.661   6.807  1.4411  0.0423  0.2743
  123OSM    C5S13060   3.455   0.477   6.742 -0.8266 -0.4942  0.2926
  123OSM    H5S13061   3.464   0.416   6.651  2.6467  0.4979 -0.1692
  123OSM    C6S13062   3.476   0.415   6.877  0.0834 -0.1162 -0.1162
  123OSM    H6S13063   3.584   0.394   6.891 -0.1119 -0.5752  0.8057
  123OSM    H6T13064   3.418   0.320   6.875 -1.6857  0.8740  1.2101
  123OSM    C7S13065   3.441   0.500   7.009 -0.6571  0.3357  0.2577
  123OSM    H7S13066   3.332   0.521   7.013 -0.1802  3.1193  1.1439
  123OSM    H7T13067   3.499   0.595   7.003 -1.6798  1.0176  0.9461
  123OSM    C8S13068   3.478   0.435   7.144  0.2184 -0.1393  0.3540
  123OSM    H8S13069   3.581   0.393   7.150  0.0683 -0.4714  0.7041
  123OSM    H8T13070   3.415   0.345   7.159  0.7741 -0.1890  2.8278
  123OSM    C9S13071   3.453   0.527   7.266  0.6742 -0.2739  0.1578
  123OSM    H9S13072   3.348   0.562   7.270  1.4223  2.0784  0.5231
  123OSM    H9T13073   3.510   0.622   7.255  3.6265 -2.1502 -3.0527
  123OSM   C10S13074   3.489   0.461   7.390 -0.7540 -0.1982  0.0242
  123OSM   H10S13075   3.600   0.471   7.393 -0.8617  1.9390 -0.8572
  123OSM   H10T13076   3.470   0.352   7.385 -1.5733 -0.1299  1.2570
  123OSM   C11S13077   3.425   0.509   7.521  0.1612 -0.4949 -0.6132
  123OSM   H11S13078   3.321   0.541   7.497 -0.1844 -1.7768 -0.8943
  123OSM   H11T13079   3.484   0.598   7.550  1.2584  0.1198 -4.3190
  123OSM   C12S13080   3.432   0.412   7.636  0.3702  0.0668  0.2078
  123OSM   H12S13081   3.531   0.362   7.645  0.3088  0.3558  3.5447
  123OSM   H12T13082   3.370   0.321   7.618  0.5404 -0.1665  0.7878
  123OSM   C13S13083   3.398   0.473   7.774 -0.2779 -0.1038  0.1379
  123OSM   H13S13084   3.288   0.483   7.765 -0.1291  1.0758 -0.6967
  123OSM   H13T13085   3.436   0.576   7.790  1.4528 -0.3556 -1.9480
  123OSM   C14S13086   3.435   0.379   7.887  0.9762 -0.4589 -0.3852
  123OSM   H14S13087   3.541   0.353   7.867  1.0312  1.4361 -3.0580
  123OSM   H14T13088   3.365   0.293   7.876 -0.9166  0.9571  0.0006
  123OSM   C15S13089   3.412   0.457   8.024  0.1161  0.5158  0.4507
  123OSM   H15S13090   3.308   0.496   8.025  0.0633  0.4219  2.7080
  123OSM   H15T13091   3.484   0.541   8.033 -0.2561  0.7754  0.9911
  123OSM   C16S13092   3.429   0.367   8.146 -0.4551 -0.1646  0.2575
  123OSM   H16S13093   3.529   0.318   8.145  1.3797  3.2709  0.3079
  123OSM   H16T13094   3.349   0.292   8.163 -2.6973  1.9159 -0.5639
  123OSM   C17S13095   3.430   0.450   8.276 -0.2565  0.6975 -0.1646
  123OSM   H17S13096   3.473   0.394   8.363  1.2707  1.2552 -0.5155
  123OSM   H17T13097   3.329   0.485   8.304 -0.9993 -1.2927 -0.1849
  123OSM   C18S13098   3.527   0.568   8.276  0.0298 -0.7113 -0.6015
  123OSM   H18S13099   3.486   0.648   8.210 -3.2698 -0.4136  1.5619
  123OSM   H18T13100   3.633   0.539   8.264  0.7547  0.9333  1.2841
  123OSM   H18U13101   3.529   0.608   8.379 -2.4201 -1.5435 -0.1655
  123OSM    C1F13102   2.996   0.545   6.624 -0.6344 -0.0674  0.3998
  123OSM     OF13103   2.977   0.469   6.536 -0.6042  0.6544  0.2539
  123OSM    C2F13104   2.892   0.585   6.732 -0.4334  0.2856 -1.1157
  123OSM    H2F13105   2.908   0.684   6.779 -0.9994 -0.3570  0.5286
  123OSM    H2G13106   2.908   0.509   6.812 -0.1377  0.6623 -0.8135
  123OSM    C3F13107   2.746   0.585   6.677 -0.3644 -0.2076  0.3642
  123OSM    H3F13108   2.701   0.487   6.648 -1.4670  0.7626 -1.3303
  123OSM    H3G13109   2.758   0.643   6.584  2.7015 -3.0933 -1.2919
  123OSM    C4F13110   2.645   0.650   6.775 -0.0267 -0.1975 -0.0464
  123OSM    H4F13111   2.544   0.646   6.730  0.1638 -2.6240 -0.4149
  123OSM    H4G13112   2.681   0.755   6.778  0.4090 -0.3594  1.2675
  123OSM    C5F13113   2.619   0.591   6.912  0.7716  0.3811  0.8155
  123OSM    H5F13114   2.535   0.651   6.955  0.0260 -0.8577  1.1667
  123OSM    H5G13115   2.709   0.613   6.974  2.5857  0.3132 -1.6599
  123OSM    C6F13116   2.578   0.435   6.908  0.8077  0.7048 -0.3456
  123OSM    H6F13117   2.643   0.368   6.849 -0.0679  0.5825 -1.1879
  123OSM    H6G13118   2.479   0.440   6.858  1.5710  1.8320 -1.7957
  123OSM    C7F13119   2.572   0.376   7.049  0.3591  0.1490 -0.5143
  123OSM    H7F13120   2.537   0.272   7.036  1.7305 -0.3197 -0.5752
  123OSM    H7G13121   2.492   0.425   7.110 -0.3314  0.3446 -1.5526
  123OSM    C8F13122   2.705   0.385   7.123 -0.5847  0.6897 -0.2017
  123OSM    H8F13123   2.714   0.490   7.157  1.1366  0.7154 -0.6377
  123OSM    H8G13124   2.791   0.369   7.054 -1.8434 -0.8345 -1.5290
  123OSM    C9F13125   2.702   0.278   7.234  0.8565 -0.2242 -0.1868
  123OSM    H9F13126   2.761   0.186   7.221 -1.1746 -2.0280  2.4337
  123OSM   C10F13127   2.638   0.280   7.356  0.0730  0.0887  0.4243
  123OSM   H10F13128   2.652   0.193   7.422 -1.7961 -1.2304 -0.8196
  123OSM   C11F13129   2.550   0.396   7.404 -0.0469 -0.1231 -0.8458
  123OSM   H11F13130   2.456   0.353   7.446  0.4049  1.3362  1.9704
  123OSM   H11G13131   2.530   0.460   7.316  0.2434 -1.7856 -2.1705
  123OSM   C12F13132   2.603   0.483   7.521  0.0163  0.1042  0.5680
  123OSM   H12F13133   2.705   0.518   7.491 -0.4443  1.5524  0.6082
  123OSM   H12G13134   2.622   0.415   7.607 -0.8697 -1.7930 -0.6753
  123OSM   C13F13135   2.518   0.602   7.552 -0.1895 -0.0714 -0.1732
  123OSM   H13F13136   2.499   0.616   7.660  1.4818  1.5607 -0.0335
  123OSM   H13G13137   2.418   0.586   7.507 -0.4841 -1.5917  0.9756
  123OSM   C14F13138   2.561   0.738   7.490 -0.2432  1.2514 -0.2191
  123OSM   H14F13139   2.659   0.760   7.537  0.0364  1.1521 -0.7489
  123OSM   H14G13140   2.487   0.816   7.518 -1.6006 -0.6943  2.0695
  123OSM   C15F13141   2.589   0.741   7.341 -0.0718 -0.1044 -0.5368
  123OSM   H15F13142   2.500   0.703   7.288 -0.2636  0.9014 -0.9623
  123OSM   H15G13143   2.678   0.678   7.319 -0.7720 -2.6084  3.0267
  123OSM   C16F13144   2.610   0.883   7.294 -0.8513 -0.2978 -0.1939
  123OSM   H16F13145   2.682   0.938   7.358 -1.2998 -0.4057  0.4114
  123OSM   H16G13146   2.509   0.925   7.313 -0.9199 -1.2532  1.8153
  123OSM   C17F13147   2.648   0.892   7.141  0.0174  1.1563  0.0517
  123OSM   H17F13148   2.587   0.818   7.086 -0.4516  1.4255  0.1983
  123OSM   H17G13149   2.756   0.868   7.133 -0.6606 -1.5322 -2.4011
  123OSM   C18F13150   2.633   1.034   7.093 -0.3384  0.3724 -0.0141
  123OSM   H18F13151   2.703   1.098   7.151  0.0054 -0.9751  1.0920
  123OSM   H18G13152   2.533   1.067   7.129 -0.3878 -1.8665  2.1300
  123OSM   H18H13153   2.651   1.040   6.983  1.8700 -1.6478  0.1578
  124OSM      N13154   4.535   6.039   6.450 -0.2217  0.3588  0.0925
  124OSM    C1513155   4.662   5.993   6.511  0.2205  0.2126  0.5390
  124OSM   H15A13156   4.686   6.050   6.600  1.4056  1.6210 -0.6346
  124OSM   H15B13157   4.747   6.007   6.447 -0.3042 -0.7065 -0.3872
  124OSM   H15C13158   4.652   5.888   6.533  0.1836  0.1302  0.1383
  124OSM    C1413159   4.418   6.015   6.536 -0.4475  0.4000 -0.7551
  124OSM   H14A13160   4.434   6.031   6.641 -2.5962 -1.8741  0.0148
  124OSM   H14B13161   4.388   5.916   6.505  2.2291  0.3959 -3.8794
  124OSM   H14C13162   4.337   6.080   6.508 -0.4652  0.8417  0.2815
  124OSM    C1313163   4.559   6.185   6.416  0.0213 -0.7178  0.2392
  124OSM   H13A13164   4.582   6.244   6.503  1.5480 -0.6329 -0.1893
  124OSM   H13B13165   4.469   6.231   6.378  1.5031  1.0024 -1.3850
  124OSM   H13C13166   4.641   6.203   6.349  1.2873  0.9721  2.1433
  124OSM    C1213167   4.512   5.965   6.310  0.0170 -0.1199 -0.0536
  124OSM   H12A13168   4.599   5.969   6.246 -0.9092 -1.0258 -1.4326
  124OSM   H12B13169   4.441   6.027   6.258  2.5157  4.0193  1.0663
  124OSM    C1113170   4.474   5.811   6.314  0.1451 -0.2055 -0.6473
  124OSM   H11A13171   4.497   5.762   6.217 -0.9390 -2.3353  0.0994
  124OSM   H11B13172   4.366   5.792   6.331  0.1863 -1.2831 -1.4152
  124OSM      P13173   4.562   5.581   6.417 -0.0865  0.3005  0.5683
  124OSM    O1313174   4.470   5.512   6.324 -0.5930  0.5275  0.1736
  124OSM    O1413175   4.707   5.554   6.383 -0.0750  0.0308  0.1805
  124OSM    O1113176   4.537   5.553   6.565 -0.2051 -0.0281  0.1582
  124OSM    O1213177   4.548   5.742   6.417  0.4351 -0.0219 -0.2193
  124OSM    C1S13178   4.505   5.645   6.666 -0.1736 -0.1728 -0.2604
  124OSM    H1S13179   4.415   5.704   6.637 -0.3572  0.0637  0.7815
  124OSM    H1T13180   4.588   5.718   6.657 -1.2424  0.8635 -2.7730
  124OSM     NF13181   4.464   5.706   6.902 -0.7949  0.8362  0.2503
  124OSM    HNF13182   4.532   5.749   6.960 -0.2284  1.8219 -1.0888
  124OSM    C2S13183   4.501   5.594   6.814  0.4490  0.1092 -0.1799
  124OSM    H2S13184   4.429   5.509   6.821 -0.8188  0.7358 -3.5906
  124OSM    C3S13185   4.635   5.536   6.851 -0.6036  1.3405 -0.0209
  124OSM    H3S13186   4.713   5.609   6.822  1.9442 -0.9707  0.6609
  124OSM     O313187   4.664   5.419   6.768 -0.0820  0.0531 -0.2229
  124OSM    HO313188   4.599   5.411   6.698  1.3769 -0.3159 -1.5996
  124OSM    C4S13189   4.650   5.494   6.999  0.0897 -0.1074  0.5968
  124OSM    H4S13190   4.574   5.425   7.038 -1.1344  0.1481 -1.1926
  124OSM    C5S13191   4.742   5.552   7.079  0.1812 -0.0085 -0.1306
  124OSM    H5S13192   4.822   5.614   7.036  1.2662  0.6823  2.6962
  124OSM    C6S13193   4.761   5.526   7.229  0.5505  0.2607 -0.7815
  124OSM    H6S13194   4.718   5.613   7.285 -1.3213 -1.1765  0.1254
  124OSM    H6T13195   4.866   5.535   7.264  1.0103 -0.0613 -2.0639
  124OSM    C7S13196   4.681   5.400   7.287  0.8662  0.3515  0.4948
  124OSM    H7S13197   4.713   5.304   7.241  0.2544  0.8794 -1.1305
  124OSM    H7T13198   4.574   5.415   7.261  0.6970  2.6108  2.2311
  124OSM    C8S13199   4.703   5.380   7.442  0.5626  0.3841 -0.1245
  124OSM    H8S13200   4.808   5.366   7.477  0.0970  1.9967  2.1568
  124OSM    H8T13201   4.641   5.292   7.469  1.1393 -0.1780 -0.5877
  124OSM    C9S13202   4.647   5.494   7.536 -0.0094  1.0025  0.0467
  124OSM    H9S13203   4.540   5.513   7.510 -0.6979  0.4470  2.2419
  124OSM    H9T13204   4.715   5.580   7.521  0.1651  1.0602  1.1124
  124OSM   C10S13205   4.657   5.480   7.693 -0.1570 -0.3110  0.1341
  124OSM   H10S13206   4.613   5.381   7.716 -0.3444 -0.8561 -2.3230
  124OSM   H10T13207   4.591   5.553   7.744  1.4531  1.3102 -0.0002
  124OSM   C11S13208   4.795   5.485   7.749 -0.8092 -0.2993  0.3081
  124OSM   H11S13209   4.839   5.586   7.734  0.7440 -1.0519 -0.4855
  124OSM   H11T13210   4.858   5.414   7.690 -0.9096 -1.7554  1.8733
  124OSM   C12S13211   4.787   5.458   7.898  0.6797 -0.2135  0.3015
  124OSM   H12S13212   4.785   5.349   7.919 -0.1112  0.0535  1.7672
  124OSM   H12T13213   4.693   5.497   7.943  1.3139  0.0588  1.4562
  124OSM   C13S13214   4.904   5.523   7.981  0.6901  0.3756  0.0768
  124OSM   H13S13215   4.884   5.629   8.006  0.0635  0.4377 -0.6570
  124OSM   H13T13216   4.975   5.535   7.897 -1.0043  2.4260 -1.1644
  124OSM   C14S13217   4.946   5.450   8.109  0.6890 -0.4222  0.5034
  124OSM   H14S13218   4.856   5.463   8.172  0.0992 -1.0988 -0.1781
  124OSM   H14T13219   5.022   5.514   8.159  0.8230  0.7070 -1.0479
  124OSM   C15S13220   4.999   5.308   8.092 -0.4213 -0.1167 -0.0172
  124OSM   H15S13221   4.944   5.264   8.007  1.2198  2.0507 -2.3522
  124OSM   H15T13222   4.995   5.241   8.181  0.5027 -1.0213 -0.6442
  124OSM   C16S13223   5.148   5.304   8.053  0.3175 -0.5312  0.4194
  124OSM   H16S13224   5.162   5.389   7.982  1.3830 -0.5286  0.6056
  124OSM   H16T13225   5.164   5.205   8.005 -0.1829  0.4243 -1.8720
  124OSM   C17S13226   5.248   5.316   8.170  0.6192  0.1255 -0.7607
  124OSM   H17S13227   5.215   5.251   8.253  0.0231 -1.8980 -2.4786
  124OSM   H17T13228   5.236   5.424   8.194 -0.6934  0.2278 -1.7775
  124OSM   C18S13229   5.393   5.304   8.142 -0.4306 -0.0819  0.3730
  124OSM   H18S13230   5.431   5.351   8.049  1.1276 -1.9008  0.0298
  124OSM   H18T13231   5.422   5.197   8.138  0.9405  0.2566  0.7220
  124OSM   H18U13232   5.449   5.343   8.230 -1.1790 -1.0027  1.2989
  124OSM    C1F13233   4.347   5.771   6.887 -0.4218  0.0328 -0.1430
  124OSM     OF13234   4.256   5.715   6.820 -0.4543 -0.4561  0.2706
  124OSM    C2F13235   4.346   5.909   6.946  0.7211 -0.2798 -0.0565
  124OSM    H2F13236   4.304   5.979   6.871  1.9444  0.3613 -0.1693
  124OSM    H2G13237   4.451   5.938   6.969  1.8020 -2.0093 -2.3870
  124OSM    C3F13238   4.263   5.913   7.076  0.2842  0.4377 -0.7115
  124OSM    H3F13239   4.158   5.912   7.040  0.0521 -0.5957 -0.0565
  124OSM    H3G13240   4.275   6.015   7.118  0.4045  0.5423 -0.9957
  124OSM    C4F13241   4.290   5.805   7.186  0.1266 -0.1111  0.6566
  124OSM    H4F13242   4.295   5.697   7.159  0.1342  0.2176 -0.6795
  124OSM    H4G13243   4.198   5.818   7.247 -0.5037 -0.4341 -0.2132
  124OSM    C5F13244   4.418   5.834   7.263 -0.2536  0.6148  0.3213
  124OSM    H5F13245   4.419   5.936   7.306 -1.0111  0.7290  0.0892
  124OSM    H5G13246   4.504   5.826   7.193  0.0434  1.6619  0.5563
  124OSM    C6F13247   4.446   5.741   7.376  0.9405  0.3788  0.4477
  124OSM    H6F13248   4.552   5.756   7.406  0.3448  0.9497  2.3811
  124OSM    H6G13249   4.439   5.646   7.320  1.7338  0.7929 -0.3875
  124OSM    C7F13250   4.375   5.742   7.515  0.8987  0.0037 -0.7280
  124OSM    H7F13251   4.389   5.648   7.573 -1.0174  0.0472 -0.1401
  124OSM    H7G13252   4.267   5.745   7.492  1.1172 -1.0892 -2.0037
  124OSM    C8F13253   4.422   5.864   7.598 -0.1369 -0.5592 -0.5880
  124OSM    H8F13254   4.448   5.950   7.532  1.3157 -1.7468 -1.6279
  124OSM    H8G13255   4.520   5.842   7.647 -1.4858  0.8534  3.1155
  124OSM    C9F13256   4.320   5.889   7.704 -0.7143 -0.1815  0.2296
  124OSM    H9F13257   4.232   5.941   7.662  0.7729  3.4541  1.2206
  124OSM   C10F13258   4.335   5.861   7.836 -0.0092 -0.2884  0.3948
  124OSM   H10F13259   4.251   5.866   7.908  1.1246  0.7868  1.7005
  124OSM   C11F13260   4.453   5.787   7.892 -0.2150 -0.0829  0.4586
  124OSM   H11F13261   4.552   5.791   7.841  0.6617 -1.4330  1.9742
  124OSM   H11G13262   4.430   5.679   7.906 -0.3449 -0.3018 -1.1710
  124OSM   C12F13263   4.486   5.855   8.028 -0.8183 -0.3673 -0.1735
  124OSM   H12F13264   4.403   5.840   8.100 -0.9649  0.3061 -0.2038
  124OSM   H12G13265   4.505   5.963   8.010  2.0669 -1.0120 -1.5842
  124OSM   C13F13266   4.618   5.799   8.084  0.0402  0.6306  0.6695
  124OSM   H13F13267   4.698   5.806   8.007  1.0815 -2.7590  1.3133
  124OSM   H13G13268   4.606   5.689   8.095  1.0251  0.2198 -1.6806
  124OSM   C14F13269   4.657   5.862   8.221  0.2694  0.6975  0.5547
  124OSM   H14F13270   4.589   5.843   8.307  1.8677 -1.4816  1.3965
  124OSM   H14G13271   4.656   5.973   8.213  0.4450  0.7121  0.7564
  124OSM   C15F13272   4.792   5.812   8.269 -0.3258  0.2998  0.6200
  124OSM   H15F13273   4.876   5.835   8.200 -0.8775  3.5001  0.8452
  124OSM   H15G13274   4.784   5.702   8.260  1.5075  0.2627 -1.5104
  124OSM   C16F13275   4.814   5.840   8.420 -0.8452 -0.1521  0.2661
  124OSM   H16F13276   4.718   5.853   8.474 -1.0772  0.1744 -0.2137
  124OSM   H16G13277   4.854   5.943   8.432 -0.0847 -0.4591  0.4171
  124OSM   C17F13278   4.904   5.735   8.479 -0.5029  0.4112 -0.2062
  124OSM   H17F13279   5.007   5.726   8.436  0.9707  1.9619  2.6763
  124OSM   H17G13280   4.862   5.633   8.469 -0.5333  0.4531 -0.5267
  124OSM   C18F13281   4.929   5.761   8.629 -0.3197  0.3565 -0.7100
  124OSM   H18F13282   4.975   5.861   8.646 -1.2160  0.5515  0.6230
  124OSM   H18G13283   4.994   5.676   8.659 -0.0723  0.7631 -0.0718
  124OSM   H18H13284   4.834   5.761   8.686  0.4136 -0.9164  0.5500
  125OSM      N13285   5.219   1.394   5.899 -0.7429  0.3683 -0.3264
  125OSM    C1513286   5.213   1.347   5.761  0.8369 -0.8183  0.1574
  125OSM   H15A13287   5.175   1.432   5.706  1.2911 -1.1978 -0.7670
  125OSM   H15B13288   5.137   1.271   5.745 -0.7545  0.8784 -0.7218
  125OSM   H15C13289   5.309   1.310   5.730  0.3308 -0.5765 -1.9045
  125OSM    C1413290   5.329   1.296   5.947 -0.3042  0.6391 -0.5216
  125OSM   H14A13291   5.420   1.305   5.889  1.4712 -0.9315  1.8841
  125OSM   H14B13292   5.293   1.195   5.945 -2.0695  1.2378 -2.1568
  125OSM   H14C13293   5.362   1.319   6.047  0.3678  0.2735 -0.6576
  125OSM    C1313294   5.273   1.537   5.902  0.4628 -0.1254  0.0328
  125OSM   H13A13295   5.254   1.585   5.997 -0.9285 -2.0600  0.7787
  125OSM   H13B13296   5.226   1.604   5.831  0.6269 -0.6629 -0.5877
  125OSM   H13C13297   5.378   1.539   5.876  0.1989  0.1432 -1.0772
  125OSM    C1213298   5.089   1.375   5.976  0.3774 -0.6837 -0.6414
  125OSM   H12A13299   5.062   1.271   5.986 -1.3023 -0.1106  1.7499
  125OSM   H12B13300   5.010   1.423   5.921  0.6862 -1.1763 -1.5398
  125OSM    C1113301   5.080   1.417   6.123 -0.2724 -0.0164  0.4883
  125OSM   H11A13302   4.980   1.406   6.172 -1.0637  0.0333 -1.0587
  125OSM   H11B13303   5.101   1.526   6.129  0.2579 -0.1773  2.3829
  125OSM      P13304   5.136   1.235   6.290 -0.4794  0.2423 -0.2631
  125OSM    O1313305   5.009   1.167   6.251 -0.5035  0.0015 -0.1258
  125OSM    O1413306   5.259   1.150   6.313  0.0959  0.1874 -0.2769
  125OSM    O1113307   5.115   1.315   6.428 -0.0132 -0.2954  0.4888
  125OSM    O1213308   5.177   1.352   6.192  0.1940  0.4640 -0.0565
  125OSM    C1S13309   5.219   1.408   6.479 -0.1454  0.8347 -0.6405
  125OSM    H1S13310   5.208   1.504   6.424  0.7115 -0.3211 -2.9848
  125OSM    H1T13311   5.320   1.368   6.452 -0.2570 -1.6759  2.1417
  125OSM     NF13312   5.264   1.554   6.686 -0.0593  0.1817 -0.3789
  125OSM    HNF13313   5.354   1.542   6.728 -0.1884  1.4033  0.3148
  125OSM    C2S13314   5.218   1.421   6.633 -0.4242  0.2822  0.5772
  125OSM    H2S13315   5.116   1.401   6.671 -0.7959 -1.0771 -1.0808
  125OSM    C3S13316   5.303   1.311   6.692  0.8800  0.3184 -0.4737
  125OSM    H3S13317   5.412   1.325   6.675  0.7284  2.4329  0.0831
  125OSM     O313318   5.277   1.181   6.636 -0.0819 -0.8531  0.0235
  125OSM    HO313319   5.235   1.205   6.553 -2.1527 -2.3247  0.5785
  125OSM    C4S13320   5.299   1.305   6.850  0.4816  0.9058  0.1972
  125OSM    H4S13321   5.366   1.373   6.905  1.2679  0.1674  0.1576
  125OSM    C5S13322   5.210   1.230   6.922 -0.5564  0.1675 -0.8226
  125OSM    H5S13323   5.133   1.176   6.866 -1.3860  1.4431 -0.9322
  125OSM    C6S13324   5.197   1.228   7.070  0.2971  0.8177  0.3021
  125OSM    H6S13325   5.243   1.135   7.111 -1.6328 -0.2135  0.2675
  125OSM    H6T13326   5.094   1.230   7.113  0.7060  0.2908  1.3477
  125OSM    C7S13327   5.271   1.348   7.144 -0.0806  0.7548  0.8553
  125OSM    H7S13328   5.243   1.452   7.115  1.4618  0.7210 -0.9069
  125OSM    H7T13329   5.380   1.340   7.123 -0.4343  2.2882 -2.2695
  125OSM    C8S13330   5.259   1.323   7.289  0.0263 -0.1017  0.2627
  125OSM    H8S13331   5.339   1.249   7.312 -0.4810 -1.6576 -2.6041
  125OSM    H8T13332   5.158   1.284   7.312 -0.6499  0.9564 -0.7651
  125OSM    C9S13333   5.286   1.449   7.374 -0.1821  0.3936  0.3790
  125OSM    H9S13334   5.203   1.521   7.355 -1.6290 -1.5852 -1.2257
  125OSM    H9T13335   5.385   1.490   7.345  0.2708 -0.6551  0.4006
  125OSM   C10S13336   5.289   1.413   7.522  0.0646  0.5353  0.1225
  125OSM   H10S13337   5.369   1.338   7.539 -1.7170 -1.2578  0.9329
  125OSM   H10T13338   5.190   1.369   7.546 -0.0416  0.6173 -0.1598
  125OSM   C11S13339   5.327   1.529   7.614  0.2931 -0.2044  0.3742
  125OSM   H11S13340   5.256   1.612   7.592 -1.4798 -1.5394  0.7903
  125OSM   H11T13341   5.432   1.562   7.603 -0.8744  4.6727  1.6478
  125OSM   C12S13342   5.299   1.488   7.761  0.4086 -0.3947 -0.0833
  125OSM   H12S13343   5.324   1.382   7.781 -1.1785 -0.5564  1.2690
  125OSM   H12T13344   5.191   1.493   7.788  0.1433  1.4156 -1.2530
  125OSM   C13S13345   5.373   1.582   7.858  0.3319 -0.0349  0.2921
  125OSM   H13S13346   5.339   1.687   7.846  0.3189 -0.1672 -0.9471
  125OSM   H13T13347   5.481   1.585   7.834  0.1836  1.2923 -0.2894
  125OSM   C14S13348   5.353   1.554   8.006 -0.1647  0.5414  0.3291
  125OSM   H14S13349   5.361   1.447   8.033  2.9846  0.7713  0.5837
  125OSM   H14T13350   5.244   1.562   8.029 -0.8973 -2.0245 -1.7380
  125OSM   C15S13351   5.447   1.633   8.096 -0.1260 -0.3517  0.2379
  125OSM   H15S13352   5.426   1.742   8.094  2.8451  0.2820 -0.9640
  125OSM   H15T13353   5.550   1.633   8.054  0.3226 -1.2989  1.3039
  125OSM   C16S13354   5.456   1.577   8.243 -0.3032 -0.0339  0.4008
  125OSM   H16S13355   5.472   1.467   8.235 -0.2214  0.0089 -0.0774
  125OSM   H16T13356   5.355   1.601   8.283 -0.4936  2.5498 -1.4065
  125OSM   C17S13357   5.544   1.653   8.338  0.3639 -0.5426  1.1259
  125OSM   H17S13358   5.637   1.686   8.289 -0.6246 -1.0638 -1.2459
  125OSM   H17T13359   5.557   1.577   8.418  1.3552 -1.6571 -0.0606
  125OSM   C18S13360   5.482   1.779   8.399 -0.1553  0.0115  0.7371
  125OSM   H18S13361   5.458   1.855   8.323  1.6423 -0.3561 -0.2446
  125OSM   H18T13362   5.537   1.830   8.481  0.1174  1.3715 -0.2603
  125OSM   H18U13363   5.385   1.756   8.449  0.2590  1.4977  2.3244
  125OSM    C1F13364   5.204   1.670   6.673  0.7502 -1.4244 -0.3883
  125OSM     OF13365   5.100   1.679   6.602 -0.8138  0.1962  0.1332
  125OSM    C2F13366   5.261   1.789   6.739  0.0997 -0.0491  0.3019
  125OSM    H2F13367   5.255   1.871   6.664  0.9568  0.2328  0.5334
  125OSM    H2G13368   5.366   1.763   6.761 -0.0333 -0.2127  0.7525
  125OSM    C3F13369   5.170   1.805   6.866  0.4883 -0.2317 -0.3224
  125OSM    H3F13370   5.169   1.716   6.932 -1.8562 -1.1948 -1.5332
  125OSM    H3G13371   5.068   1.823   6.826 -1.0868 -4.4541  1.2359
  125OSM    C4F13372   5.197   1.930   6.956 -0.7469 -0.0140  0.4036
  125OSM    H4F13373   5.194   2.028   6.904  1.0760 -1.1372 -1.9773
  125OSM    H4G13374   5.304   1.925   6.986 -0.5200 -1.8521 -0.5810
  125OSM    C5F13375   5.120   1.929   7.090 -0.0248  0.3405  0.9458
  125OSM    H5F13376   5.123   1.826   7.131  1.2707  0.0476  0.1756
  125OSM    H5G13377   5.016   1.961   7.067  0.1414  1.7283  1.9577
  125OSM    C6F13378   5.167   2.032   7.205  0.0406  0.7449  0.5178
  125OSM    H6F13379   5.127   2.129   7.166  0.5708  0.4906 -0.7177
  125OSM    H6G13380   5.278   2.039   7.207  0.0896  1.2475 -1.7092
  125OSM    C7F13381   5.117   1.992   7.348 -0.3481 -0.0587 -0.8861
  125OSM    H7F13382   5.181   1.921   7.406 -3.9783 -1.3078  1.9234
  125OSM    H7G13383   5.019   1.941   7.338 -1.1412  0.8139  1.6389
  125OSM    C8F13384   5.116   2.113   7.442 -0.1762  0.3647 -0.7583
  125OSM    H8F13385   5.107   2.202   7.376  0.1547  0.3273 -0.8557
  125OSM    H8G13386   5.216   2.119   7.489 -0.8617  0.4842  0.7140
  125OSM    C9F13387   4.993   2.112   7.536  0.0681 -0.2698  0.4708
  125OSM    H9F13388   4.905   2.156   7.488  0.5573  1.3342  1.0120
  125OSM   C10F13389   4.987   2.055   7.661  0.5618  0.9606  0.2549
  125OSM   H10F13390   4.896   2.049   7.723  0.3807  2.0108  0.1041
  125OSM   C11F13391   5.110   1.983   7.713  0.1685 -0.1635  0.2872
  125OSM   H11F13392   5.144   2.035   7.805  1.5171  1.8882 -1.2620
  125OSM   H11G13393   5.199   1.996   7.647  0.1018 -1.9809 -0.2034
  125OSM   C12F13394   5.093   1.834   7.735  0.8916 -0.4146  0.0025
  125OSM   H12F13395   5.186   1.777   7.756  0.4177 -1.0134  0.5105
  125OSM   H12G13396   5.046   1.805   7.639 -0.8426  1.2910  0.2827
  125OSM   C13F13397   5.002   1.806   7.854  0.0043 -0.3888 -0.3441
  125OSM   H13F13398   4.981   1.698   7.869  0.6173 -0.4765 -0.0919
  125OSM   H13G13399   4.905   1.856   7.831  1.4028  2.2100 -0.9500
  125OSM   C14F13400   5.048   1.859   7.990 -0.3091  0.6653 -0.0181
  125OSM   H14F13401   5.058   1.970   7.989  4.3383  0.4611 -0.7398
  125OSM   H14G13402   5.155   1.849   8.019 -0.3342 -1.0189 -0.4534
  125OSM   C15F13403   4.960   1.816   8.109 -0.6827  0.0574  0.8004
  125OSM   H15F13404   4.964   1.705   8.108  0.1342  0.0862  0.3554
  125OSM   H15G13405   4.851   1.835   8.101 -0.8836 -1.5786 -1.2173
  125OSM   C16F13406   5.016   1.877   8.235  0.2120 -0.2634 -0.1173
  125OSM   H16F13407   5.127   1.873   8.233  0.2832  0.6678  0.9574
  125OSM   H16G13408   4.973   1.814   8.316  0.5179 -0.9424 -0.4734
  125OSM   C17F13409   4.971   2.021   8.268 -0.3888  0.0400 -0.1350
  125OSM   H17F13410   4.868   2.048   8.238 -1.0091 -2.4674 -0.4960
  125OSM   H17G13411   5.037   2.085   8.205 -0.1582  0.9360  0.9891
  125OSM   C18F13412   5.005   2.053   8.412  0.2212  0.6429  0.5259
  125OSM   H18F13413   4.916   2.037   8.476 -0.5717  4.0618  0.4943
  125OSM   H18G13414   5.022   2.162   8.426 -1.4486  0.8251  1.3385
  125OSM   H18H13415   5.094   1.998   8.449 -0.0588  0.5726  1.1203
  126OSM      N13416   2.494   5.391   6.411 -0.0141 -0.2537 -0.0740
  126OSM    C1513417   2.439   5.331   6.293  0.5145 -0.5505 -0.5174
  126OSM   H15A13418   2.515   5.269   6.249  1.2185 -0.5669  0.6585
  126OSM   H15B13419   2.412   5.415   6.230  2.9553 -0.1964 -1.1792
  126OSM   H15C13420   2.351   5.273   6.316  0.9714 -0.4172  1.8434
  126OSM    C1413421   2.516   5.289   6.519 -0.3380 -0.1243 -0.4108
  126OSM   H14A13422   2.423   5.237   6.541 -0.3298  0.2404  0.4816
  126OSM   H14B13423   2.567   5.337   6.600 -0.4469 -0.1410 -0.3314
  126OSM   H14C13424   2.584   5.214   6.482  0.2732  1.0786 -1.8105
  126OSM    C1313425   2.622   5.445   6.375 -1.1977  0.4809 -0.2246
  126OSM   H13A13426   2.629   5.524   6.302  0.0616 -1.2054 -2.0476
  126OSM   H13B13427   2.687   5.369   6.333 -0.3855  0.5295  0.8953
  126OSM   H13C13428   2.681   5.474   6.461 -0.8235 -0.2368 -0.2300
  126OSM    C1213429   2.400   5.502   6.460  0.3191  0.4439 -0.0742
  126OSM   H12A13430   2.390   5.575   6.381  0.8005  1.6520  0.9450
  126OSM   H12B13431   2.442   5.552   6.545 -1.6447  0.0598  1.1936
  126OSM    C1113432   2.255   5.460   6.501 -0.1778 -0.1441 -0.0554
  126OSM   H11A13433   2.201   5.553   6.530 -4.2040 -2.4768  0.8032
  126OSM   H11B13434   2.258   5.401   6.595 -1.1824  1.2803  0.9210
  126OSM      P13435   2.076   5.294   6.418  0.1179  0.0122  0.0387
  126OSM    O1313436   2.012   5.279   6.291 -0.7018 -0.2396 -0.3458
  126OSM    O1413437   2.137   5.172   6.473  0.2137  0.3516 -0.6086
  126OSM    O1113438   1.973   5.362   6.517 -0.1650 -0.1178 -0.0252
  126OSM    O1213439   2.185   5.391   6.397 -0.4939 -0.8004  0.2035
  126OSM    C1S13440   1.913   5.296   6.635  0.3749  0.3006  1.2282
  126OSM    H1S13441   1.929   5.186   6.635  2.0448  0.4117 -1.9443
  126OSM    H1T13442   1.805   5.318   6.629 -0.0637 -1.9492 -0.8922
  126OSM     NF13443   1.891   5.283   6.879  0.0473  0.1990 -0.7629
  126OSM    HNF13444   1.828   5.330   6.941  1.2995 -1.2953  1.8024
  126OSM    C2S13445   1.955   5.362   6.768 -0.6224 -0.4446 -0.4374
  126OSM    H2S13446   2.065   5.349   6.774 -0.6205 -0.5599 -0.7409
  126OSM    C3S13447   1.923   5.522   6.772  0.4061 -0.5337  1.1137
  126OSM    H3S13448   1.813   5.533   6.767  0.5975  1.1117 -2.5356
  126OSM     O313449   1.961   5.599   6.655  0.0100 -0.0387  0.1043
  126OSM    HO313450   1.959   5.534   6.584 -0.2299 -0.1567  0.2176
  126OSM    C4S13451   1.967   5.591   6.895 -0.7992 -0.0264  0.0823
  126OSM    H4S13452   1.893   5.580   6.976 -0.7134  0.8198  0.2875
  126OSM    C5S13453   2.083   5.667   6.916 -0.0491 -0.4129 -0.2612
  126OSM    H5S13454   2.151   5.697   6.834 -0.0906 -0.3977 -0.2899
  126OSM    C6S13455   2.120   5.739   7.040 -1.0039 -0.1782  0.1567
  126OSM    H6S13456   2.159   5.841   7.018 -2.2865  0.6838  1.6936
  126OSM    H6T13457   2.202   5.686   7.092 -3.0888 -1.2187  2.5984
  126OSM    C7S13458   2.002   5.751   7.141  0.2774  0.6550 -0.2738
  126OSM    H7S13459   1.977   5.649   7.178  2.4403  0.0029 -0.4532
  126OSM    H7T13460   1.909   5.796   7.100  0.9790  0.8274 -1.7697
  126OSM    C8S13461   2.052   5.834   7.257 -0.0947 -0.0390 -0.1391
  126OSM    H8S13462   2.069   5.942   7.241  2.2923 -0.6859 -2.9022
  126OSM    H8T13463   2.152   5.798   7.288 -1.5807 -3.2724  1.3573
  126OSM    C9S13464   1.961   5.828   7.384 -0.2606  0.0407  0.0516
  126OSM    H9S13465   1.970   5.722   7.419 -0.0166 -0.2359 -0.8280
  126OSM    H9T13466   1.855   5.831   7.351 -0.0538 -0.7133 -0.7072
  126OSM   C10S13467   1.992   5.930   7.493  1.0544  0.0637 -0.3316
  126OSM   H10S13468   2.007   6.031   7.448 -1.7585  0.4385 -0.6147
  126OSM   H10T13469   2.092   5.905   7.537  1.3014  0.8499 -0.4331
  126OSM   C11S13470   1.878   5.936   7.602  0.6900 -0.6217 -0.4409
  126OSM   H11S13471   1.836   5.834   7.612  0.8703 -0.8594 -1.9446
  126OSM   H11T13472   1.796   5.989   7.549  0.7430 -1.5769 -1.4891
  126OSM   C12S13473   1.908   6.003   7.738 -0.3016  0.0281 -0.1820
  126OSM   H12S13474   1.951   6.101   7.710  2.7858 -1.0008  0.5256
  126OSM   H12T13475   1.992   5.957   7.795  1.1458 -1.2254 -3.0775
  126OSM   C13S13476   1.780   6.007   7.828 -0.3425 -0.0756 -0.1922
  126OSM   H13S13477   1.740   5.907   7.853 -1.1318  0.1588 -0.4803
  126OSM   H13T13478   1.689   6.049   7.780 -0.0639 -2.1787 -2.7476
  126OSM   C14S13479   1.803   6.102   7.954 -0.4997 -0.7715 -0.2006
  126OSM   H14S13480   1.699   6.117   7.990 -1.0740 -2.0692 -1.2158
  126OSM   H14T13481   1.867   6.190   7.932 -0.4591 -0.9625 -0.8639
  126OSM   C15S13482   1.864   6.022   8.076  0.4749 -0.2046  0.8215
  126OSM   H15S13483   1.945   5.956   8.038 -1.3576 -1.4154 -1.2492
  126OSM   H15T13484   1.795   5.947   8.121  0.1426 -0.0413  0.5942
  126OSM   C16S13485   1.923   6.120   8.176 -0.4609  0.0998  0.7127
  126OSM   H16S13486   1.845   6.187   8.217  0.6281  2.5208 -0.8964
  126OSM   H16T13487   1.997   6.185   8.125 -1.0748 -0.2983 -0.7343
  126OSM   C17S13488   1.976   6.049   8.296 -0.2768 -0.1668  0.0281
  126OSM   H17S13489   1.901   5.978   8.337 -1.7492  0.1823 -1.9268
  126OSM   H17T13490   1.992   6.113   8.386 -1.1914 -1.5433  1.2153
  126OSM   C18S13491   2.122   5.987   8.279  0.3712 -0.6918  0.2817
  126OSM   H18S13492   2.110   5.911   8.199 -0.5894  0.5385 -0.7808
  126OSM   H18T13493   2.147   5.930   8.371 -1.2527 -0.2105  1.0668
  126OSM   H18U13494   2.195   6.066   8.253 -2.1608  1.4742 -0.7562
  126OSM    C1F13495   1.934   5.161   6.905 -0.6728  0.2693 -0.4606
  126OSM     OF13496   2.034   5.117   6.852 -0.1030 -0.1935  0.2292
  126OSM    C2F13497   1.856   5.089   7.012  0.1268 -0.3412  0.7975
  126OSM    H2F13498   1.759   5.138   7.037  0.3588  1.5384 -1.5450
  126OSM    H2G13499   1.917   5.109   7.103  1.2975 -0.1721  0.0000
  126OSM    C3F13500   1.836   4.941   6.984 -0.0042  0.3514  0.0252
  126OSM    H3F13501   1.925   4.891   6.939 -0.2081 -0.0898  0.1025
  126OSM    H3G13502   1.748   4.934   6.917  0.5203 -1.5765 -0.5332
  126OSM    C4F13503   1.787   4.858   7.107 -0.1752 -0.9044 -0.0993
  126OSM    H4F13504   1.770   4.764   7.050  2.7490 -0.4018 -1.9956
  126OSM    H4G13505   1.695   4.904   7.150 -0.4639 -0.4669 -1.1454
  126OSM    C5F13506   1.886   4.840   7.228  0.0396  0.3158 -0.7214
  126OSM    H5F13507   1.917   4.934   7.279 -0.4685  0.1865 -0.1579
  126OSM    H5G13508   1.976   4.793   7.184  0.0904 -1.3606  1.0458
  126OSM    C6F13509   1.831   4.745   7.334  0.5849 -0.3705  0.1612
  126OSM    H6F13510   1.844   4.647   7.282  1.9841  0.0967 -0.4309
  126OSM    H6G13511   1.725   4.765   7.362  1.0249 -0.7281  2.1962
  126OSM    C7F13512   1.905   4.744   7.472 -0.1877 -0.7871  0.3420
  126OSM    H7F13513   1.909   4.853   7.496  1.0200  0.2696 -3.8343
  126OSM    H7G13514   2.011   4.710   7.469  0.0075 -0.1568 -0.2270
  126OSM    C8F13515   1.832   4.671   7.583 -0.9833  0.0256  0.1201
  126OSM    H8F13516   1.848   4.562   7.567  3.1277  0.4776 -0.1241
  126OSM    H8G13517   1.724   4.696   7.577 -0.2501  3.6837 -0.1772
  126OSM    C9F13518   1.890   4.699   7.722  0.2021 -0.3166 -0.3093
  126OSM    H9F13519   1.998   4.677   7.731 -0.4534 -4.0422 -0.3688
  126OSM   C10F13520   1.825   4.740   7.832 -0.4755 -0.0171 -0.4851
  126OSM   H10F13521   1.887   4.747   7.923 -0.9545 -3.3387  0.2306
  126OSM   C11F13522   1.681   4.773   7.849 -0.2009  0.0880 -0.8107
  126OSM   H11F13523   1.625   4.734   7.762 -1.1110 -0.1348 -0.1441
  126OSM   H11G13524   1.687   4.884   7.858 -1.3571  0.1613 -0.7375
  126OSM   C12F13525   1.613   4.731   7.982  0.2364 -0.1448  0.3639
  126OSM   H12F13526   1.518   4.789   7.978 -0.8890 -1.9633 -2.5205
  126OSM   H12G13527   1.682   4.751   8.067  0.4594  0.0720  0.1334
  126OSM   C13F13528   1.572   4.582   7.990  0.6365 -0.3190 -0.2189
  126OSM   H13F13529   1.673   4.538   8.003  1.0297  0.3757 -0.7828
  126OSM   H13G13530   1.534   4.558   7.888  1.3721  0.4847 -0.6968
  126OSM   C14F13531   1.464   4.542   8.106  0.5811 -0.0992  0.8026
  126OSM   H14F13532   1.445   4.435   8.081 -0.8383  0.3889 -0.3596
  126OSM   H14G13533   1.375   4.608   8.101 -0.5048 -1.5913 -0.8817
  126OSM   C15F13534   1.515   4.546   8.247 -0.0539 -0.0596  0.3529
  126OSM   H15F13535   1.529   4.653   8.272 -1.8469  0.5271 -0.9517
  126OSM   H15G13536   1.607   4.485   8.256 -1.0310 -1.6939 -0.2611
  126OSM   C16F13537   1.420   4.498   8.355 -0.2913  0.5075 -0.9875
  126OSM   H16F13538   1.413   4.387   8.351  0.1691  0.1757  3.0332
  126OSM   H16G13539   1.320   4.543   8.338 -1.1281  0.8148  3.4843
  126OSM   C17F13540   1.452   4.542   8.500  0.1237 -0.9649  0.1515
  126OSM   H17F13541   1.436   4.651   8.515 -0.4244 -1.3386  2.8956
  126OSM   H17G13542   1.559   4.524   8.525  0.9523  1.1004 -1.5907
  126OSM   C18F13543   1.369   4.468   8.615 -0.0963  0.1214  0.4890
  126OSM   H18F13544   1.417   4.369   8.632  0.6082  0.1638 -1.0875
  126OSM   H18G13545   1.268   4.455   8.571  0.1933  0.4375 -0.2918
  126OSM   H18H13546   1.366   4.526   8.709  2.5674 -0.5770  1.0795
  127OSM      N13547   2.586   4.674   6.247  0.6056 -0.0553 -0.3387
  127OSM    C1513548   2.622   4.535   6.215  0.4064 -0.1248  0.7665
  127OSM   H15A13549   2.716   4.505   6.260 -0.4096 -1.2286  1.7987
  127OSM   H15B13550   2.634   4.510   6.111  2.3289 -1.8708  1.3390
  127OSM   H15C13551   2.551   4.464   6.254 -0.2778  0.3838  0.4725
  127OSM    C1413552   2.689   4.765   6.184 -0.2125 -0.3611  0.1092
  127OSM   H14A13553   2.659   4.866   6.207  0.4276  0.0461 -0.7943
  127OSM   H14B13554   2.687   4.760   6.076 -0.9178  2.4053 -0.0690
  127OSM   H14C13555   2.789   4.758   6.224  0.3022  1.7505 -0.7068
  127OSM    C1313556   2.447   4.705   6.199 -0.2933  0.0763  0.8132
  127OSM   H13A13557   2.447   4.696   6.092  1.4495  0.1459  0.7948
  127OSM   H13B13558   2.412   4.807   6.209  0.6221  0.3202  1.7703
  127OSM   H13C13559   2.367   4.637   6.228  0.6010 -1.7296 -0.8050
  127OSM    C1213560   2.590   4.697   6.395 -0.2772  0.1879  0.0048
  127OSM   H12A13561   2.525   4.624   6.442  0.6858  1.8392  4.3974
  127OSM   H12B13562   2.548   4.792   6.426 -2.0882 -0.7170  0.4831
  127OSM    C1113563   2.732   4.702   6.464 -0.3279  0.3150  0.5964
  127OSM   H11A13564   2.778   4.604   6.438 -0.6831 -0.0043  1.1443
  127OSM   H11B13565   2.724   4.692   6.574  1.3979 -0.3574  0.6928
  127OSM      P13566   2.797   4.959   6.462 -0.0104  0.0635  0.2892
  127OSM    O1313567   2.872   5.036   6.356  0.7874 -0.1526  0.8027
  127OSM    O1413568   2.647   4.984   6.469  0.2713  0.1743  0.0200
  127OSM    O1113569   2.854   4.987   6.614 -0.0321  0.1066  0.6279
  127OSM    O1213570   2.824   4.805   6.424  0.3095 -0.0348  0.2664
  127OSM    C1S13571   2.966   4.911   6.656 -0.6256 -0.3450  0.5627
  127OSM    H1S13572   3.064   4.960   6.635 -0.1075 -0.9067  1.5633
  127OSM    H1T13573   2.964   4.809   6.611 -2.1356  0.2621 -0.8198
  127OSM     NF13574   3.070   4.806   6.857  0.7425 -0.1540  0.4654
  127OSM    HNF13575   3.053   4.708   6.866 -0.5128 -0.2628 -2.2196
  127OSM    C2S13576   2.959   4.894   6.808  0.3212  0.8540 -1.1424
  127OSM    H2S13577   2.959   4.996   6.851 -1.9323  0.3793  0.1342
  127OSM    C3S13578   2.817   4.844   6.857  0.0377 -0.3521  0.0447
  127OSM    H3S13579   2.813   4.748   6.801  0.1791 -0.1473 -0.3208
  127OSM     O313580   2.706   4.920   6.822  0.8619 -0.3166  0.1166
  127OSM    HO313581   2.734   4.971   6.746  1.5102 -2.1586 -0.9292
  127OSM    C4S13582   2.801   4.822   7.004 -1.2406 -0.1377 -0.1100
  127OSM    H4S13583   2.830   4.910   7.062 -3.0454  0.1576  0.4176
  127OSM    C5S13584   2.762   4.705   7.060  0.0919 -0.3782  0.0408
  127OSM    H5S13585   2.726   4.621   6.999 -1.1613 -0.0846  0.3409
  127OSM    C6S13586   2.755   4.673   7.206 -0.0387  0.2526  0.5760
  127OSM    H6S13587   2.813   4.736   7.277 -1.7707 -1.8358  4.1222
  127OSM    H6T13588   2.782   4.567   7.227 -0.8762 -1.0092 -3.7400
  127OSM    C7S13589   2.615   4.677   7.260  0.0265 -0.1119  0.0803
  127OSM    H7S13590   2.554   4.617   7.189  2.6232 -0.4903 -1.9850
  127OSM    H7T13591   2.574   4.780   7.252 -2.8625 -1.0744  1.1920
  127OSM    C8S13592   2.605   4.628   7.409 -0.2670 -0.1175 -0.0568
  127OSM    H8S13593   2.635   4.521   7.412  1.2403  0.3049  0.9692
  127OSM    H8T13594   2.502   4.647   7.446 -0.0586 -0.3252  0.6483
  127OSM    C9S13595   2.700   4.694   7.515  0.6849  0.2098 -0.3891
  127OSM    H9S13596   2.683   4.800   7.544  0.7112  0.2833 -0.6449
  127OSM    H9T13597   2.798   4.691   7.464  0.9722 -0.6930  0.1795
  127OSM   C10S13598   2.715   4.602   7.640 -0.2785 -0.9747 -0.1949
  127OSM   H10S13599   2.795   4.526   7.624 -0.7196 -1.5718  0.3835
  127OSM   H10T13600   2.625   4.543   7.666  0.5502 -1.7100  1.1227
  127OSM   C11S13601   2.756   4.688   7.768  0.1138  0.7877  0.3658
  127OSM   H11S13602   2.777   4.788   7.724  1.2114  0.2768 -0.3377
  127OSM   H11T13603   2.848   4.644   7.813 -0.3636  0.5614  1.1403
  127OSM   C12S13604   2.648   4.704   7.870  0.1175 -0.1123  0.7195
  127OSM   H12S13605   2.603   4.604   7.885 -1.8527  0.7187  0.6087
  127OSM   H12T13606   2.569   4.774   7.836 -1.3418 -1.9294  0.1747
  127OSM   C13S13607   2.702   4.738   8.006  0.0318  0.2947 -0.0013
  127OSM   H13S13608   2.761   4.832   7.996 -0.9472  0.7992 -1.4191
  127OSM   H13T13609   2.768   4.658   8.044  0.3433 -0.9525 -2.9505
  127OSM   C14S13610   2.595   4.748   8.113 -0.0068  0.0041  0.4662
  127OSM   H14S13611   2.540   4.656   8.143  1.7573 -0.9477  0.8819
  127OSM   H14T13612   2.524   4.823   8.070 -0.4895 -0.4393  0.4784
  127OSM   C15S13613   2.649   4.802   8.242 -0.2228  0.2141 -0.0772
  127OSM   H15S13614   2.706   4.896   8.227 -0.1185  0.4197  1.4084
  127OSM   H15T13615   2.698   4.717   8.294 -1.1891 -1.0536 -1.1792
  127OSM   C16S13616   2.530   4.833   8.341 -0.4960  0.0713  0.1227
  127OSM   H16S13617   2.430   4.788   8.324 -0.5507  0.3876 -0.3972
  127OSM   H16T13618   2.520   4.943   8.329 -1.0077 -0.0817 -0.9322
  127OSM   C17S13619   2.562   4.808   8.485  0.3364 -0.3101 -0.0304
  127OSM   H17S13620   2.653   4.871   8.495  0.5693 -0.8564  1.4028
  127OSM   H17T13621   2.586   4.708   8.527 -1.9063 -0.0861  1.9440
  127OSM   C18S13622   2.458   4.882   8.571  0.0648 -0.4221 -0.5346
  127OSM   H18S13623   2.358   4.836   8.554  0.1786 -0.5991 -0.7390
  127OSM   H18T13624   2.450   4.985   8.530 -2.5608 -0.4094 -0.1609
  127OSM   H18U13625   2.485   4.871   8.678 -1.7543  0.0839 -0.0037
  127OSM    C1F13626   3.185   4.855   6.906  1.3208 -0.2991 -0.4951
  127OSM     OF13627   3.208   4.973   6.897  0.0917  0.0775 -0.0877
  127OSM    C2F13628   3.284   4.758   6.966  0.3669  0.1906  0.2265
  127OSM    H2F13629   3.385   4.774   6.921  0.5668 -1.2180  0.1190
  127OSM    H2G13630   3.243   4.663   6.925  0.6601 -0.6935  1.9045
  127OSM    C3F13631   3.280   4.760   7.128  0.3610 -0.3252  0.0876
  127OSM    H3F13632   3.324   4.671   7.177  0.5285  0.8206  2.1405
  127OSM    H3G13633   3.175   4.756   7.163  0.4384 -0.3925  0.3144
  127OSM    C4F13634   3.356   4.882   7.185  0.2355 -0.0890 -0.8403
  127OSM    H4F13635   3.305   4.980   7.172  0.0263 -0.0991 -0.1391
  127OSM    H4G13636   3.448   4.901   7.125  0.8308  1.1946  0.4090
  127OSM    C5F13637   3.392   4.879   7.337  0.3064  0.2964  0.2521
  127OSM    H5F13638   3.457   4.967   7.359 -2.4302  2.5287 -0.0690
  127OSM    H5G13639   3.449   4.786   7.358  0.8732  0.8775  1.4213
  127OSM    C6F13640   3.277   4.874   7.441 -0.0492 -0.0144 -0.0589
  127OSM    H6F13641   3.215   4.787   7.410  0.3055 -1.0713  2.0556
  127OSM    H6G13642   3.215   4.966   7.439 -0.3551 -0.2258 -0.4942
  127OSM    C7F13643   3.341   4.852   7.587  0.8123 -0.1916  0.1564
  127OSM    H7F13644   3.432   4.916   7.595  1.3227 -0.8159 -0.5936
  127OSM    H7G13645   3.387   4.752   7.600 -0.6203 -0.6763  1.8100
  127OSM    C8F13646   3.233   4.885   7.697 -0.3839 -0.9455 -0.0934
  127OSM    H8F13647   3.142   4.822   7.693 -0.9763 -0.0722 -1.1968
  127OSM    H8G13648   3.191   4.988   7.692 -2.5123 -1.5475  2.6424
  127OSM    C9F13649   3.284   4.865   7.843 -0.3480 -0.4036  0.4292
  127OSM    H9F13650   3.318   4.769   7.885 -1.1610 -1.0366 -0.3228
  127OSM   C10F13651   3.293   4.965   7.932 -0.2293 -0.2130 -0.5692
  127OSM   H10F13652   3.344   4.945   8.028  0.1517 -3.1790 -1.2959
  127OSM   C11F13653   3.263   5.113   7.914  0.4331 -0.0736  0.2320
  127OSM   H11F13654   3.187   5.133   7.836  1.0032 -1.6644 -0.7919
  127OSM   H11G13655   3.358   5.167   7.894  1.2132 -0.6404  2.1334
  127OSM   C12F13656   3.211   5.176   8.042  0.7030  0.6279  0.4463
  127OSM   H12F13657   3.117   5.140   8.089 -0.0829 -1.0957 -2.2319
  127OSM   H12G13658   3.194   5.283   8.016 -0.1733  1.0383  2.5002
  127OSM   C13F13659   3.314   5.190   8.149  0.4613  0.4300 -0.0678
  127OSM   H13F13660   3.411   5.214   8.100 -1.6766  2.6208 -3.6774
  127OSM   H13G13661   3.319   5.095   8.207  0.1360  0.2787 -0.2811
  127OSM   C14F13662   3.277   5.297   8.254 -0.3097  0.0594  1.0107
  127OSM   H14F13663   3.214   5.252   8.334 -1.0578  0.0914  0.4517
  127OSM   H14G13664   3.220   5.378   8.203  0.8698  1.4409  1.7899
  127OSM   C15F13665   3.398   5.360   8.326  0.2431  0.7468  0.3130
  127OSM   H15F13666   3.470   5.385   8.245 -2.0966 -0.2758 -2.2430
  127OSM   H15G13667   3.441   5.274   8.382  0.2184  0.8896  0.5527
  127OSM   C16F13668   3.362   5.476   8.413  0.8071  0.3484  0.0104
  127OSM   H16F13669   3.271   5.442   8.468  0.7205 -0.7597 -0.7858
  127OSM   H16G13670   3.332   5.558   8.346  2.1214  0.7586 -0.1071
  127OSM   C17F13671   3.470   5.530   8.507  0.4890  0.9739 -0.1977
  127OSM   H17F13672   3.450   5.635   8.540 -1.0256  0.5939  0.1793
  127OSM   H17G13673   3.560   5.530   8.442  1.6371 -0.5436  1.3024
  127OSM   C18F13674   3.505   5.446   8.629  0.4263  0.3868  0.0789
  127OSM   H18F13675   3.517   5.338   8.607 -1.5030 -0.0668  1.0221
  127OSM   H18G13676   3.429   5.462   8.708  0.7064 -0.0280  0.4340
  127OSM   H18H13677   3.604   5.482   8.664  0.4134  0.9261 -0.4215
  128OSM      N13678   5.641   1.668   6.401  0.7024 -0.2681 -0.7122
  128OSM    C1513679   5.557   1.606   6.511 -0.4672 -0.1510  0.6906
  128OSM   H15A13680   5.596   1.621   6.610  0.7334 -0.1241  0.2227
  128OSM   H15B13681   5.539   1.502   6.486  2.3949 -0.7880  0.9327
  128OSM   H15C13682   5.458   1.649   6.520 -0.1714  0.7429 -0.1102
  128OSM    C1413683   5.791   1.635   6.430  0.0944 -0.0556 -0.4318
  128OSM   H14A13684   5.814   1.645   6.535  0.1842 -0.3450 -0.4246
  128OSM   H14B13685   5.851   1.705   6.373  0.7799 -0.9989 -0.8962
  128OSM   H14C13686   5.825   1.539   6.394 -1.3759 -0.6772 -0.2336
  128OSM    C1313687   5.606   1.618   6.263 -0.4490  0.2734  0.1669
  128OSM   H13A13688   5.663   1.670   6.188 -0.7315  1.8591  1.0037
  128OSM   H13B13689   5.502   1.637   6.240 -0.6407 -0.1915  0.6396
  128OSM   H13C13690   5.633   1.514   6.259 -1.2498  0.0863 -0.5548
  128OSM    C1213691   5.629   1.820   6.409  0.2100  0.5539  0.3180
  128OSM   H12A13692   5.705   1.863   6.346  2.4157 -3.0491  0.2658
  128OSM   H12B13693   5.637   1.858   6.510 -2.3998 -1.1498  1.2928
  128OSM    C1113694   5.497   1.887   6.360  0.7831  0.3126 -0.3341
  128OSM   H11A13695   5.477   1.975   6.425 -0.1305 -1.7317  2.3366
  128OSM   H11B13696   5.406   1.830   6.390 -1.2285  3.1166 -0.6983
  128OSM      P13697   5.590   2.030   6.163  0.0004  0.0418  0.0880
  128OSM    O1313698   5.738   2.000   6.159 -0.1387  0.2467 -0.0139
  128OSM    O1413699   5.533   2.055   6.028 -0.1152 -0.3400 -0.6763
  128OSM    O1113700   5.557   2.152   6.255 -0.1934  0.1409  0.0115
  128OSM    O1213701   5.497   1.913   6.223 -0.1740  0.1992  0.9539
  128OSM    C1S13702   5.420   2.191   6.281  0.5112 -0.1404  0.6734
  128OSM    H1S13703   5.352   2.104   6.291  0.8667 -0.4502  0.4124
  128OSM    H1T13704   5.381   2.242   6.190  1.6061 -0.9284 -0.2686
  128OSM     NF13705   5.279   2.302   6.472 -0.9334 -0.6328  1.3029
  128OSM    HNF13706   5.239   2.393   6.463 -0.1341 -0.3696  0.1727
  128OSM    C2S13707   5.419   2.282   6.410 -0.1183  0.0886 -0.3408
  128OSM    H2S13708   5.483   2.220   6.476 -0.2159  0.7477  0.3933
  128OSM    C3S13709   5.497   2.414   6.370 -0.3756  0.5906  0.7446
  128OSM    H3S13710   5.429   2.465   6.299  0.6137  0.8547 -0.0440
  128OSM     O313711   5.619   2.401   6.295  0.3669  0.6207  0.4452
  128OSM    HO313712   5.622   2.305   6.288  1.6911  0.7149 -0.7339
  128OSM    C4S13713   5.509   2.507   6.481  0.5653  0.3773  0.0305
  128OSM    H4S13714   5.426   2.579   6.494 -0.4399 -0.8103  0.3365
  128OSM    C5S13715   5.615   2.515   6.564 -0.1577 -0.2360  0.1908
  128OSM    H5S13716   5.704   2.453   6.549  1.1170  1.0088  2.0764
  128OSM    C6S13717   5.634   2.607   6.677  0.5548 -0.2828 -0.8110
  128OSM    H6S13718   5.706   2.687   6.650  0.9522  0.0571  1.0910
  128OSM    H6T13719   5.671   2.550   6.765 -1.3887  0.7072  0.7347
  128OSM    C7S13720   5.512   2.681   6.732  0.1290  0.1182 -0.8482
  128OSM    H7S13721   5.418   2.631   6.698  0.5499 -0.2142 -1.5231
  128OSM    H7T13722   5.510   2.784   6.693  2.0015  1.5140  2.3617
  128OSM    C8S13723   5.503   2.688   6.882 -0.0096 -0.5672  0.2743
  128OSM    H8S13724   5.499   2.587   6.928  1.4213 -0.8289 -0.1457
  128OSM    H8T13725   5.400   2.726   6.904  0.0118  0.2274 -0.9397
  128OSM    C9S13726   5.601   2.782   6.952  0.5034  0.2128  0.4578
  128OSM    H9S13727   5.562   2.884   6.932 -0.1212 -0.1643 -0.2788
  128OSM    H9T13728   5.698   2.750   6.908 -0.1622 -2.1933  0.5965
  128OSM   C10S13729   5.604   2.756   7.103  0.4254 -0.1371  0.5322
  128OSM   H10S13730   5.612   2.649   7.131 -1.2007 -0.3697  0.2344
  128OSM   H10T13731   5.502   2.771   7.146  0.6902 -1.5173  1.7256
  128OSM   C11S13732   5.674   2.859   7.184 -0.6657 -0.6205 -0.0990
  128OSM   H11S13733   5.629   2.958   7.161  0.4611 -0.0888 -0.1242
  128OSM   H11T13734   5.780   2.874   7.153 -0.1341 -2.0078  0.9191
  128OSM   C12S13735   5.685   2.830   7.329 -0.5464  0.5933  0.0548
  128OSM   H12S13736   5.733   2.732   7.348 -1.6384  0.3088  1.5740
  128OSM   H12T13737   5.578   2.827   7.360 -0.2982  0.0937  0.8813
  128OSM   C13S13738   5.764   2.943   7.405  0.0500  0.1303 -0.1045
  128OSM   H13S13739   5.720   3.035   7.360  0.6698  0.6673  0.3577
  128OSM   H13T13740   5.868   2.934   7.367 -0.0376  0.5531 -0.4481
  128OSM   C14S13741   5.758   2.938   7.557  0.1394 -1.0332  0.4634
  128OSM   H14S13742   5.827   2.855   7.585  0.3568 -0.3356  2.1014
  128OSM   H14T13743   5.658   2.900   7.588  0.8480 -2.3050  1.2929
  128OSM   C15S13744   5.801   3.065   7.635  0.7163  0.2192  0.2190
  128OSM   H15S13745   5.746   3.144   7.580  0.1429 -1.3364 -1.5494
  128OSM   H15T13746   5.908   3.093   7.624  1.1909 -1.1027  1.2740
  128OSM   C16S13747   5.755   3.078   7.779  0.1234 -0.0854  0.2004
  128OSM   H16S13748   5.789   2.983   7.825  1.5456 -0.5771 -1.7360
  128OSM   H16T13749   5.645   3.083   7.793  0.1343 -2.3439  1.5540
  128OSM   C17S13750   5.812   3.193   7.860  0.5815  0.3341  0.4177
  128OSM   H17S13751   5.765   3.285   7.818 -1.4195 -0.4665  0.7800
  128OSM   H17T13752   5.919   3.210   7.837 -0.5192  1.8081 -4.9199
  128OSM   C18S13753   5.790   3.199   8.013  0.3467  0.3762  0.0448
  128OSM   H18S13754   5.866   3.269   8.056  1.9739 -1.5123  0.3562
  128OSM   H18T13755   5.805   3.096   8.052  1.1790  0.5740  0.2684
  128OSM   H18U13756   5.691   3.239   8.043 -0.5453 -0.9201 -1.0862
  128OSM    C1F13757   5.211   2.205   6.518  0.2154  0.8022 -0.7068
  128OSM     OF13758   5.240   2.093   6.497 -0.4088  0.2329 -0.5148
  128OSM    C2F13759   5.094   2.234   6.595 -0.0850 -0.5986  0.1683
  128OSM    H2F13760   5.009   2.266   6.530 -1.4732 -1.7497  1.3605
  128OSM    H2G13761   5.114   2.324   6.657 -0.6878 -1.5418  1.7855
  128OSM    C3F13762   5.043   2.110   6.670 -0.1608  0.5601  0.0853
  128OSM    H3F13763   5.119   2.075   6.744 -1.1381  1.0310  1.3448
  128OSM    H3G13764   5.011   2.025   6.605  3.2328 -0.4556 -0.4727
  128OSM    C4F13765   4.915   2.144   6.751 -0.3943 -0.4530 -0.3414
  128OSM    H4F13766   4.877   2.058   6.811 -0.2353  0.8283  1.6826
  128OSM    H4G13767   4.836   2.167   6.676 -2.2144 -3.5038  0.4188
  128OSM    C5F13768   4.957   2.239   6.862  0.6579 -0.1982 -0.6411
  128OSM    H5F13769   4.969   2.335   6.807  0.3019  0.6225  0.6516
  128OSM    H5G13770   5.048   2.205   6.915  0.3961  0.8407  0.5176
  128OSM    C6F13771   4.856   2.258   6.975  0.3702  0.1990 -0.3000
  128OSM    H6F13772   4.861   2.159   7.024  1.3474  0.7718  0.7927
  128OSM    H6G13773   4.751   2.274   6.939 -0.2120 -0.2887  1.1214
  128OSM    C7F13774   4.885   2.366   7.074  0.5336  0.0420  0.3545
  128OSM    H7F13775   4.872   2.464   7.023 -1.3498 -0.3746 -0.0749
  128OSM    H7G13776   4.993   2.360   7.096  1.9528  4.4017 -3.7461
  128OSM    C8F13777   4.803   2.350   7.210 -0.5817 -0.2173  0.1228
  128OSM    H8F13778   4.839   2.426   7.283 -3.3371  1.1425  0.1898
  128OSM    H8G13779   4.840   2.262   7.266  1.2144 -0.2311 -0.9954
  128OSM    C9F13780   4.660   2.385   7.195  0.4913  0.3309  0.1374
  128OSM    H9F13781   4.649   2.482   7.145  0.1303  1.0961  1.6667
  128OSM   C10F13782   4.559   2.309   7.258  0.1576 -0.2912  0.0093
  128OSM   H10F13783   4.452   2.336   7.252 -0.4680 -2.0743  1.7376
  128OSM   C11F13784   4.574   2.184   7.333 -0.4607 -0.1397  0.1582
  128OSM   H11F13785   4.682   2.158   7.344 -0.5932 -0.8499 -0.1415
  128OSM   H11G13786   4.540   2.096   7.274 -2.2863  0.3075  0.4761
  128OSM   C12F13787   4.506   2.176   7.466 -0.0713  0.4706 -0.8052
  128OSM   H12F13788   4.513   2.069   7.497 -0.2677  1.3502  2.6896
  128OSM   H12G13789   4.400   2.207   7.475  0.8049  3.1996  1.4446
  128OSM   C13F13790   4.571   2.268   7.572 -0.0016  0.7376  0.4440
  128OSM   H13F13791   4.562   2.376   7.547  0.9617  0.5080 -1.0277
  128OSM   H13G13792   4.681   2.257   7.575 -0.2095 -2.1682 -0.0720
  128OSM   C14F13793   4.516   2.238   7.713 -0.4470 -0.1852  0.2259
  128OSM   H14F13794   4.405   2.230   7.707 -0.5852 -0.1162  2.1402
  128OSM   H14G13795   4.530   2.327   7.777 -0.2658 -1.3354  1.8516
  128OSM   C15F13796   4.592   2.119   7.779  0.0895 -0.3261  0.4198
  128OSM   H15F13797   4.701   2.139   7.774  0.0607 -0.4756 -1.1897
  128OSM   H15G13798   4.570   2.026   7.723 -0.7452 -0.0737  0.3069
  128OSM   C16F13799   4.541   2.087   7.914 -0.0176 -0.1760 -0.4040
  128OSM   H16F13800   4.431   2.081   7.906 -0.1584  0.0952  1.0237
  128OSM   H16G13801   4.574   2.167   7.985 -1.9219 -0.6832  1.1210
  128OSM   C17F13802   4.601   1.957   7.981 -0.6844  0.2934 -0.1874
  128OSM   H17F13803   4.707   1.943   7.953 -0.6060 -2.6511  1.1859
  128OSM   H17G13804   4.544   1.875   7.933  0.1729 -1.7581  2.0791
  128OSM   C18F13805   4.571   1.955   8.126 -0.0128  0.0782 -0.8711
  128OSM   H18F13806   4.633   1.880   8.179  0.8023  0.8174 -0.7564
  128OSM   H18G13807   4.462   1.947   8.145  0.1323  0.5090  0.2177
  128OSM   H18H13808   4.599   2.054   8.168 -0.1539 -0.6149  0.9484
  129OSM      N13809   2.900   4.047   6.166  0.5670 -0.5999  0.9186
  129OSM    C1513810   2.888   3.909   6.215  0.0204  0.2290 -0.7838
  129OSM   H15A13811   2.795   3.864   6.182 -0.5286  1.6835 -1.3412
  129OSM   H15B13812   2.876   3.908   6.322  1.0924  0.5144 -0.6557
  129OSM   H15C13813   2.975   3.854   6.182 -0.5293 -0.6386 -0.8056
  129OSM    C1413814   2.881   4.046   6.024  1.5247  0.6166  0.3480
  129OSM   H14A13815   2.891   4.148   5.991  1.5570  0.9602  1.3977
  129OSM   H14B13816   2.780   4.017   5.999  0.8721  2.5656  0.6010
  129OSM   H14C13817   2.949   3.974   5.978 -1.0117 -0.3039 -2.2790
  129OSM    C1313818   2.789   4.131   6.218  0.0800 -0.3188 -0.4347
  129OSM   H13A13819   2.797   4.174   6.317 -1.6602 -2.5782  0.7789
  129OSM   H13B13820   2.693   4.082   6.221  0.7568 -1.8887 -2.1960
  129OSM   H13C13821   2.775   4.212   6.149  1.0933  1.8982  1.8285
  129OSM    C1213822   3.034   4.108   6.199 -0.8029 -0.6996 -0.3620
  129OSM   H12A13823   3.033   4.212   6.169  2.6637 -0.5696 -0.4060
  129OSM   H12B13824   3.117   4.061   6.149  0.4245 -1.6524  2.3742
  129OSM    C1113825   3.077   4.112   6.345  0.7817 -0.6422  0.6729
  129OSM   H11A13826   3.102   4.006   6.370  1.1070 -0.8654 -0.5198
  129OSM   H11B13827   2.997   4.133   6.418  0.0988 -2.6488  0.5805
  129OSM      P13828   3.174   4.353   6.382  0.1824  0.1638 -0.2720
  129OSM    O1313829   3.297   4.401   6.454 -0.2176 -0.3019  0.0947
  129OSM    O1413830   3.144   4.400   6.245  0.1640  0.5479  0.0710
  129OSM    O1113831   3.044   4.375   6.474 -0.8123  0.3645 -0.3231
  129OSM    O1213832   3.190   4.196   6.363 -0.3133 -0.1816 -0.1223
  129OSM    C1S13833   3.055   4.400   6.612 -0.7083 -0.0408  0.7487
  129OSM    H1S13834   3.086   4.505   6.632 -1.7834  0.3917  0.2656
  129OSM    H1T13835   3.129   4.333   6.661  0.8371 -0.0553 -1.4855
  129OSM     NF13836   2.952   4.343   6.820  0.4732 -0.6540 -0.4663
  129OSM    HNF13837   2.933   4.251   6.854 -1.8662 -0.0520  0.0371
  129OSM    C2S13838   2.922   4.384   6.687 -0.2408 -0.6715 -0.6575
  129OSM    H2S13839   2.878   4.486   6.695 -2.7292 -1.7594  0.6326
  129OSM    C3S13840   2.811   4.287   6.615  0.3893 -0.1200  0.0403
  129OSM    H3S13841   2.854   4.185   6.611 -0.8260 -0.6155 -1.0369
  129OSM     O313842   2.775   4.328   6.483  0.0995 -0.1022  0.1263
  129OSM    HO313843   2.843   4.393   6.463 -2.3458  2.1755 -1.3908
  129OSM    C4S13844   2.689   4.280   6.710  0.0238 -0.4346  0.4074
  129OSM    H4S13845   2.714   4.218   6.797  1.6163  2.2111  1.9738
  129OSM    C5S13846   2.566   4.342   6.707  0.1511 -0.0380 -0.0535
  129OSM    H5S13847   2.545   4.423   6.636  1.3686  0.8450  0.5517
  129OSM    C6S13848   2.462   4.315   6.806 -0.2944  0.0532 -0.0217
  129OSM    H6S13849   2.380   4.272   6.745  1.3461 -1.2019 -1.4480
  129OSM    H6T13850   2.428   4.411   6.850 -1.5162  0.5055 -1.8527
  129OSM    C7S13851   2.488   4.223   6.928  0.3706  0.1652  0.4187
  129OSM    H7S13852   2.538   4.136   6.880 -1.2366 -1.4979  1.5584
  129OSM    H7T13853   2.395   4.183   6.974  1.0413  0.0436  1.7124
  129OSM    C8S13854   2.580   4.275   7.036 -0.7392  0.2956  0.4802
  129OSM    H8S13855   2.548   4.378   7.066 -2.3740  0.3479 -1.2961
  129OSM    H8T13856   2.683   4.304   7.003  0.4580 -1.1239  2.7164
  129OSM    C9S13857   2.584   4.175   7.153 -0.2004  0.1784  0.4442
  129OSM    H9S13858   2.644   4.087   7.120  0.8133  2.2402 -3.8338
  129OSM    H9T13859   2.479   4.152   7.183 -0.8272  1.1968 -0.8707
  129OSM   C10S13860   2.647   4.230   7.279 -0.4702  0.1831  0.0351
  129OSM   H10S13861   2.582   4.319   7.297  0.6000  1.6801 -2.7063
  129OSM   H10T13862   2.753   4.261   7.266 -0.4590  0.3723  0.5510
  129OSM   C11S13863   2.647   4.134   7.394 -0.5439  0.2822 -0.6214
  129OSM   H11S13864   2.716   4.054   7.359 -0.0346  0.8765 -1.0070
  129OSM   H11T13865   2.538   4.114   7.408 -0.0523 -2.1867  0.1750
  129OSM   C12S13866   2.700   4.198   7.529  0.3872  0.3399  0.0577
  129OSM   H12S13867   2.648   4.296   7.539  1.1029  0.7407 -0.0998
  129OSM   H12T13868   2.809   4.209   7.512  0.6250 -1.2744  0.4326
  129OSM   C13S13869   2.666   4.120   7.663  0.4303  0.1137 -0.0762
  129OSM   H13S13870   2.683   4.012   7.644 -0.5413  0.2155 -1.6317
  129OSM   H13T13871   2.557   4.123   7.685  0.6196 -2.2616  1.6371
  129OSM   C14S13872   2.747   4.180   7.778  0.6907 -0.2300  0.3263
  129OSM   H14S13873   2.758   4.289   7.758 -1.3703 -0.0257  0.0842
  129OSM   H14T13874   2.848   4.135   7.781  2.0305  2.5839  0.2942
  129OSM   C15S13875   2.683   4.156   7.920 -0.3775  0.4689 -0.2012
  129OSM   H15S13876   2.694   4.046   7.929 -1.9539  0.1402 -1.7759
  129OSM   H15T13877   2.573   4.168   7.919 -0.8403 -2.8999 -0.6035
  129OSM   C16S13878   2.759   4.218   8.033  0.3734 -0.7384  0.2508
  129OSM   H16S13879   2.771   4.326   8.011  0.6645 -0.8107  0.0349
  129OSM   H16T13880   2.860   4.174   8.051  0.9783 -0.7753 -2.6956
  129OSM   C17S13881   2.679   4.214   8.171 -0.0048  0.2066  0.2455
  129OSM   H17S13882   2.655   4.109   8.198 -0.6275 -0.0851 -1.3097
  129OSM   H17T13883   2.582   4.267   8.159  0.3559  0.8029 -0.1121
  129OSM   C18S13884   2.758   4.280   8.285  0.0677 -0.6019 -0.5271
  129OSM   H18S13885   2.694   4.293   8.374 -1.3903 -2.3598 -1.2596
  129OSM   H18T13886   2.802   4.380   8.261  0.2406 -0.6393 -0.3687
  129OSM   H18U13887   2.832   4.204   8.315 -0.3405 -0.4016  1.0356
  129OSM    C1F13888   2.983   4.437   6.910 -0.3921  0.2496 -0.0898
  129OSM     OF13889   3.009   4.547   6.884  0.5953 -0.8214  0.8981
  129OSM    C2F13890   2.982   4.380   7.053  0.2535 -0.6290 -0.1260
  129OSM    H2F13891   3.029   4.280   7.053  0.7820 -0.4258  1.6445
  129OSM    H2G13892   2.877   4.375   7.090  0.9371 -0.5251  2.0108
  129OSM    C3F13893   3.060   4.455   7.156 -0.3005  0.4471 -0.1837
  129OSM    H3F13894   3.023   4.560   7.157 -1.1530  0.1594 -0.4837
  129OSM    H3G13895   3.165   4.447   7.122  0.3294  0.1063  1.7624
  129OSM    C4F13896   3.054   4.399   7.297 -0.7175  0.1247 -0.1142
  129OSM    H4F13897   3.117   4.309   7.304  0.7338  0.8950 -2.2913
  129OSM    H4G13898   2.945   4.381   7.311 -0.2860 -0.9233  2.3591
  129OSM    C5F13899   3.086   4.503   7.404  0.7717 -0.1192  0.3950
  129OSM    H5F13900   3.010   4.583   7.394  0.0768 -0.8676 -0.4354
  129OSM    H5G13901   3.189   4.540   7.384  1.4683 -2.2756 -0.3025
  129OSM    C6F13902   3.086   4.434   7.546 -0.7949 -0.1697  0.8945
  129OSM    H6F13903   3.160   4.351   7.547  1.1711  1.5169  2.0254
  129OSM    H6G13904   2.984   4.392   7.562 -1.1358  0.1744 -0.2899
  129OSM    C7F13905   3.133   4.532   7.652 -0.0676 -0.0668  0.0039
  129OSM    H7F13906   3.061   4.617   7.647 -1.7996 -1.5349 -1.7708
  129OSM    H7G13907   3.235   4.566   7.625 -1.0648  3.9183  0.6423
  129OSM    C8F13908   3.143   4.456   7.788  0.5945 -0.1133  0.2226
  129OSM    H8F13909   3.231   4.500   7.839  0.3745 -1.3699  1.7497
  129OSM    H8G13910   3.173   4.351   7.768  0.0434 -0.1899 -0.2327
  129OSM    C9F13911   3.024   4.443   7.884  0.3856 -0.5807  0.4473
  129OSM    H9F13912   2.928   4.436   7.831  0.5573  2.4784 -0.4634
  129OSM   C10F13913   3.040   4.419   8.015  0.4588 -0.1504  0.1063
  129OSM   H10F13914   2.950   4.407   8.078 -0.9935  1.3383 -1.5296
  129OSM   C11F13915   3.165   4.408   8.095  0.0425 -0.2413  0.0117
  129OSM   H11F13916   3.251   4.461   8.049 -1.3696 -0.0476 -2.5716
  129OSM   H11G13917   3.195   4.301   8.102  0.5758 -0.0893  0.0907
  129OSM   C12F13918   3.138   4.461   8.238  0.2206  0.0662 -0.9013
  129OSM   H12F13919   3.227   4.455   8.305 -0.1127 -0.3685 -0.4989
  129OSM   H12G13920   3.075   4.387   8.291  0.4896 -0.4667 -1.3225
  129OSM   C13F13921   3.077   4.600   8.259 -0.1393  0.0437  0.1108
  129OSM   H13F13922   2.983   4.599   8.319 -0.1981 -2.3994  0.1185
  129OSM   H13G13923   3.055   4.642   8.158  5.6118 -0.8729 -1.9078
  129OSM   C14F13924   3.180   4.693   8.324 -0.2571 -0.3840 -0.0426
  129OSM   H14F13925   3.275   4.658   8.281 -1.2553 -1.2896 -1.6064
  129OSM   H14G13926   3.189   4.672   8.433  1.3801  0.0661 -0.0610
  129OSM   C15F13927   3.158   4.842   8.309 -0.1765 -0.4548 -0.1893
  129OSM   H15F13928   3.178   4.855   8.201 -0.5148 -2.1779 -0.4968
  129OSM   H15G13929   3.231   4.903   8.366 -0.5590  0.1582 -0.3457
  129OSM   C16F13930   3.023   4.887   8.366 -0.3723 -0.4982  0.1549
  129OSM   H16F13931   3.029   4.886   8.477  1.6502  0.7101  0.1057
  129OSM   H16G13932   2.946   4.814   8.334  1.5717 -1.5060 -2.5665
  129OSM   C17F13933   2.977   5.032   8.316 -0.2738  0.6479 -0.3609
  129OSM   H17F13934   2.965   5.028   8.206 -0.6840  0.6348 -0.3162
  129OSM   H17G13935   3.061   5.101   8.340 -0.0282  0.1635  0.2212
  129OSM   C18F13936   2.853   5.083   8.389 -0.4653 -0.1335 -0.1023
  129OSM   H18F13937   2.826   5.185   8.352 -1.5231 -0.7415 -1.0778
  129OSM   H18G13938   2.885   5.096   8.494 -0.4499  1.2886 -0.2617
  129OSM   H18H13939   2.764   5.017   8.394 -1.3804  1.0339 -0.5346
  130OSM      N13940   6.458   1.424   6.248 -0.8982  0.6958  0.4630
  130OSM    C1513941   6.600   1.376   6.219 -0.4645  0.6252 -0.5801
  130OSM   H15A13942   6.630   1.317   6.304 -1.9703 -2.5510 -2.0839
  130OSM   H15B13943   6.672   1.454   6.200 -1.0689  1.1222 -0.8765
  130OSM   H15C13944   6.598   1.308   6.135  1.7243 -1.8645  1.2229
  130OSM    C1413945   6.408   1.473   6.116  0.5901 -1.2179 -0.0149
  130OSM   H14A13946   6.416   1.391   6.045 -0.8506 -0.7743 -0.7255
  130OSM   H14B13947   6.470   1.553   6.081  0.9574 -1.1498  0.7735
  130OSM   H14C13948   6.302   1.492   6.121  0.3908 -1.6122 -1.8932
  130OSM    C1313949   6.374   1.301   6.289 -0.6138  0.0096 -0.0601
  130OSM   H13A13950   6.405   1.255   6.382  1.5242  0.5621 -0.4482
  130OSM   H13B13951   6.384   1.220   6.218  0.6579 -0.3018  0.4353
  130OSM   H13C13952   6.270   1.329   6.293 -0.0282  2.4156 -0.0345
  130OSM    C1213953   6.455   1.535   6.351  0.3381  0.1686  0.6000
  130OSM   H12A13954   6.499   1.487   6.437 -2.9916 -0.9842  1.8463
  130OSM   H12B13955   6.353   1.551   6.382 -0.1790 -1.0015 -0.4093
  130OSM    C1113956   6.515   1.668   6.316  0.2862  0.0961  0.2223
  130OSM   H11A13957   6.606   1.659   6.252  0.5160  0.7803  0.4442
  130OSM   H11B13958   6.556   1.722   6.403 -0.9317 -0.5574  1.2342
  130OSM      P13959   6.434   1.893   6.214  0.4017 -0.3620  0.3092
  130OSM    O1313960   6.536   1.909   6.107 -0.2550 -0.1622  0.0314
  130OSM    O1413961   6.302   1.947   6.192 -0.1350  0.2363 -0.3721
  130OSM    O1113962   6.502   1.949   6.352  0.0771 -0.0806 -0.4952
  130OSM    O1213963   6.415   1.738   6.239  0.0597  0.0459 -0.2739
  130OSM    C1S13964   6.428   2.031   6.445  0.1915  0.3833  0.5424
  130OSM    H1S13965   6.318   2.017   6.437  0.3446 -0.1494 -1.0201
  130OSM    H1T13966   6.446   2.137   6.416 -1.1386  0.7588  1.0178
  130OSM     NF13967   6.382   2.085   6.679 -0.3331 -0.0429 -0.5872
  130OSM    HNF13968   6.409   2.177   6.705  0.5178 -0.2932 -0.5445
  130OSM    C2S13969   6.471   2.012   6.593  0.1926 -0.4830  1.4789
  130OSM    H2S13970   6.453   1.903   6.605 -1.8897 -0.1617  1.6333
  130OSM    C3S13971   6.625   2.048   6.613  0.5762 -0.4252  0.4996
  130OSM    H3S13972   6.646   2.157   6.606  0.0319 -0.3346  0.1483
  130OSM     O313973   6.700   1.970   6.519  0.4689  0.0142 -0.9266
  130OSM    HO313974   6.631   1.925   6.469  0.4124 -2.5472  1.2659
  130OSM    C4S13975   6.666   2.003   6.748 -0.3067 -0.5337  0.0170
  130OSM    H4S13976   6.677   1.894   6.761 -2.2928 -0.7749 -0.0639
  130OSM    C5S13977   6.691   2.079   6.856  0.2231 -0.0046  0.3881
  130OSM    H5S13978   6.685   2.188   6.842  0.1300 -0.3359 -2.7803
  130OSM    C6S13979   6.740   2.044   6.999  0.2049  1.0913  0.3936
  130OSM    H6S13980   6.835   2.098   7.018  1.8599 -1.3327 -0.4789
  130OSM    H6T13981   6.750   1.934   7.006 -0.8611  0.9435 -0.0559
  130OSM    C7S13982   6.652   2.080   7.116 -0.5580  0.1764  0.1475
  130OSM    H7S13983   6.561   2.017   7.118  0.3571 -1.2168 -0.3380
  130OSM    H7T13984   6.638   2.190   7.115  0.9687  0.3926 -1.4672
  130OSM    C8S13985   6.722   2.054   7.252 -0.2124  0.2812  0.0104
  130OSM    H8S13986   6.821   2.103   7.244  0.7443 -1.2689  1.6147
  130OSM    H8T13987   6.733   1.943   7.251 -3.3121 -0.1223 -0.5767
  130OSM    C9S13988   6.649   2.098   7.378 -0.7661 -0.3881 -1.0665
  130OSM    H9S13989   6.546   2.057   7.368 -1.0244  0.5034 -2.4382
  130OSM    H9T13990   6.653   2.209   7.371  1.8334 -0.3827 -0.4599
  130OSM   C10S13991   6.704   2.032   7.507 -0.9798  0.1249 -0.1844
  130OSM   H10S13992   6.814   2.052   7.510 -0.8603  0.2804 -2.8771
  130OSM   H10T13993   6.682   1.924   7.493 -1.1561  0.3200 -1.4899
  130OSM   C11S13994   6.640   2.075   7.643 -0.6096 -0.6982  0.0505
  130OSM   H11S13995   6.531   2.090   7.630 -0.1806  0.7895 -2.4404
  130OSM   H11T13996   6.696   2.168   7.666  3.2194 -1.9190 -3.2392
  130OSM   C12S13997   6.663   1.967   7.747 -0.3298 -0.2311  0.1405
  130OSM   H12S13998   6.772   1.964   7.768 -0.2968 -0.7684 -0.1073
  130OSM   H12T13999   6.627   1.866   7.717  1.9276 -1.3202  0.8671
  130OSM   C13S14000   6.595   1.997   7.884 -0.2209  0.1362  0.1669
  130OSM   H13S14001   6.499   2.045   7.856  1.4504  1.7168 -3.4873
  130OSM   H13T14002   6.657   2.068   7.943  1.2326 -0.2383 -0.8532
  130OSM   C14S14003   6.565   1.869   7.969 -0.1104  0.5912 -0.6901
  130OSM   H14S14004   6.662   1.835   8.010 -0.9024 -1.8453 -0.6748
  130OSM   H14T14005   6.531   1.787   7.902  1.9901 -1.0592  0.1651
  130OSM   C15S14006   6.469   1.886   8.085  0.2490  0.7994 -0.1516
  130OSM   H15S14007   6.454   1.789   8.137  0.5293  0.8279 -0.0134
  130OSM   H15T14008   6.372   1.920   8.043  1.3993  0.2900 -3.5902
  130OSM   C16S14009   6.536   1.965   8.199 -0.1028  0.5895 -0.3287
  130OSM   H16S14010   6.545   2.068   8.158 -3.9980  0.9284 -0.6850
  130OSM   H16T14011   6.632   1.919   8.231 -0.9130 -1.5090 -0.7586
  130OSM   C17S14012   6.451   1.963   8.329 -0.2894 -0.7108  0.4210
  130OSM   H17S14013   6.344   1.977   8.302 -0.1813  0.4890  0.5256
  130OSM   H17T14014   6.468   2.058   8.385 -1.2422  0.1086 -0.6219
  130OSM   C18S14015   6.455   1.833   8.415 -0.0049  0.3819  0.1221
  130OSM   H18S14016   6.557   1.790   8.427  0.7723  2.2276  0.4432
  130OSM   H18T14017   6.388   1.753   8.378  1.4155  0.2030 -2.2461
  130OSM   H18U14018   6.424   1.857   8.519  0.9876 -0.4215  0.6145
  130OSM    C1F14019   6.262   2.041   6.709  0.3006  0.4704 -0.0732
  130OSM     OF14020   6.218   1.936   6.659 -0.3898 -0.3217  0.3032
  130OSM    C2F14021   6.184   2.109   6.819  0.3491  0.0212 -0.0726
  130OSM    H2F14022   6.077   2.109   6.791  0.9360 -0.1538 -2.5343
  130OSM    H2G14023   6.228   2.211   6.831 -0.9642  0.7294 -0.9602
  130OSM    C3F14024   6.198   2.029   6.948  0.1137  0.2252  0.1649
  130OSM    H3F14025   6.304   1.998   6.965  0.0267  0.5108  1.3027
  130OSM    H3G14026   6.126   1.945   6.955  0.0281 -0.0212 -2.6280
  130OSM    C4F14027   6.167   2.118   7.069 -0.1279  0.6020 -0.0380
  130OSM    H4F14028   6.059   2.141   7.055 -0.3899  0.3154  1.3986
  130OSM    H4G14029   6.212   2.220   7.066 -2.2432  1.6271  0.8414
  130OSM    C5F14030   6.203   2.052   7.200  0.4833 -0.8638  0.0095
  130OSM    H5F14031   6.312   2.028   7.202  0.3330 -2.0913 -2.2472
  130OSM    H5G14032   6.145   1.957   7.207  0.3528 -0.6922  1.4711
  130OSM    C6F14033   6.168   2.135   7.325 -0.2116 -0.4630 -0.0094
  130OSM    H6F14034   6.060   2.159   7.334 -0.1432  0.1246 -0.6405
  130OSM    H6G14035   6.216   2.234   7.312  0.3698 -0.9765 -2.2295
  130OSM    C7F14036   6.217   2.068   7.455 -0.5322  0.0875  0.2593
  130OSM    H7F14037   6.327   2.081   7.460 -0.5103  0.0430 -0.0852
  130OSM    H7G14038   6.196   1.960   7.446 -0.5885  0.2814 -2.7586
  130OSM    C8F14039   6.133   2.117   7.576 -0.0699  0.0361 -0.1938
  130OSM    H8F14040   6.026   2.110   7.549 -0.5233  2.3817  0.7362
  130OSM    H8G14041   6.139   2.228   7.586  1.2839  0.1589 -1.8537
  130OSM    C9F14042   6.170   2.042   7.704  0.1703  0.5780  0.6406
  130OSM    H9F14043   6.160   1.932   7.704 -0.6106  0.6143 -1.0459
  130OSM   C10F14044   6.218   2.098   7.812 -0.5398  0.4380  0.4066
  130OSM   H10F14045   6.250   2.029   7.891  1.1477  0.9780  0.2283
  130OSM   C11F14046   6.247   2.243   7.839  0.2972  0.6421  0.9416
  130OSM   H11F14047   6.170   2.302   7.785 -3.6362 -1.7702  3.4220
  130OSM   H11G14048   6.347   2.266   7.797 -1.2171  0.3548 -3.2317
  130OSM   C12F14049   6.248   2.279   7.989 -0.3425 -0.3134 -0.4576
  130OSM   H12F14050   6.280   2.385   7.999  0.5463 -0.6845  1.0007
  130OSM   H12G14051   6.330   2.230   8.045  1.6517  0.9902 -2.0716
  130OSM   C13F14052   6.117   2.266   8.061  0.5392 -0.0768  0.3834
  130OSM   H13F14053   6.096   2.157   8.068  1.1764 -0.1362  1.7312
  130OSM   H13G14054   6.039   2.327   8.010 -1.4223 -0.7746  2.3831
  130OSM   C14F14055   6.134   2.314   8.207 -0.4369 -0.2736 -0.5877
  130OSM   H14F14056   6.157   2.423   8.215 -1.3882 -0.1468  0.6844
  130OSM   H14G14057   6.227   2.271   8.250  0.9896  2.7325 -0.4102
  130OSM   C15F14058   6.013   2.281   8.301  0.8453 -0.9603 -0.4681
  130OSM   H15F14059   5.933   2.284   8.225  0.1008  3.5063  0.2004
  130OSM   H15G14060   5.998   2.360   8.378 -1.0046 -2.1756  0.4845
  130OSM   C16F14061   6.026   2.147   8.373 -0.4459 -0.0275 -0.0907
  130OSM   H16F14062   6.123   2.154   8.426 -0.5803 -0.6867  0.2581
  130OSM   H16G14063   6.024   2.064   8.299 -0.6376 -0.8043  0.7571
  130OSM   C17F14064   5.914   2.115   8.473  0.4415 -0.6085 -0.0320
  130OSM   H17F14065   5.819   2.110   8.415  0.3364  0.5516  0.0158
  130OSM   H17G14066   5.905   2.196   8.548  0.2720 -0.2608 -0.4284
  130OSM   C18F14067   5.948   1.988   8.555  0.0569 -0.4703  0.3749
  130OSM   H18F14068   5.937   1.901   8.487 -0.0251 -2.1595  2.4524
  130OSM   H18G14069   5.875   1.986   8.639  0.1075  0.0766  0.4359
  130OSM   H18H14070   6.053   1.990   8.590  0.6886 -2.5957 -1.1894
  131OSM      N14071   5.554   2.971   5.716 -0.0160 -0.3283  0.4184
  131OSM    C1514072   5.667   2.911   5.796 -0.3696 -0.4422  0.4710
  131OSM   H15A14073   5.665   2.958   5.893  0.9269 -0.2117  0.4070
  131OSM   H15B14074   5.757   2.941   5.744 -0.2243  0.5543  1.2773
  131OSM   H15C14075   5.653   2.804   5.808 -2.3619 -1.0517 -4.6490
  131OSM    C1414076   5.587   3.115   5.684 -1.0519 -0.4326  0.6247
  131OSM   H14A14077   5.673   3.125   5.619 -0.8705  0.2912  0.9655
  131OSM   H14B14078   5.610   3.176   5.770  0.8249 -3.2521  2.3019
  131OSM   H14C14079   5.510   3.158   5.621 -1.5863 -2.1441  0.0460
  131OSM    C1314080   5.543   2.895   5.587  0.1577  0.1459 -0.3811
  131OSM   H13A14081   5.501   2.797   5.604 -2.2273  0.9389 -1.3012
  131OSM   H13B14082   5.644   2.891   5.549 -0.0966  2.0340 -1.3902
  131OSM   H13C14083   5.471   2.942   5.522 -0.2543 -1.3601 -1.0401
  131OSM    C1214084   5.424   2.948   5.784 -0.0389 -0.0518 -0.5273
  131OSM   H12A14085   5.409   2.842   5.800  2.1853  0.0245  3.2353
  131OSM   H12B14086   5.346   2.985   5.719  0.5506  0.5513 -0.8973
  131OSM    C1114087   5.390   3.011   5.922  0.0056 -0.5518 -0.1109
  131OSM   H11A14088   5.283   3.015   5.952  0.0298 -0.3959 -0.0446
  131OSM   H11B14089   5.420   3.117   5.910  0.7671 -0.7240  0.2239
  131OSM      P14090   5.460   2.805   6.053 -0.3492 -0.3347 -0.0853
  131OSM    O1314091   5.341   2.751   5.980  0.1160 -0.2123  0.2613
  131OSM    O1414092   5.586   2.740   6.021 -0.5911  0.3651  0.4538
  131OSM    O1114093   5.436   2.794   6.212  0.3837 -0.2570  0.6325
  131OSM    O1214094   5.477   2.962   6.020 -0.0124  0.2265  0.2167
  131OSM    C1S14095   5.297   2.789   6.253  0.1951 -0.4557 -0.3694
  131OSM    H1S14096   5.265   2.686   6.231 -0.0525 -0.8256  1.5374
  131OSM    H1T14097   5.240   2.866   6.196  1.4016 -0.0059 -1.0024
  131OSM     NF14098   5.151   2.779   6.453 -0.3153 -0.2919 -0.3986
  131OSM    HNF14099   5.089   2.857   6.462  1.5429  1.3332 -1.0700
  131OSM    C2S14100   5.285   2.816   6.407 -0.1313 -0.0634 -0.3121
  131OSM    H2S14101   5.361   2.758   6.463  1.3051  3.6586  1.9264
  131OSM    C3S14102   5.320   2.966   6.442  0.1397 -1.0112 -0.2066
  131OSM    H3S14103   5.251   3.031   6.385  1.8745 -0.5378 -1.8478
  131OSM     O314104   5.458   2.999   6.404  0.6820  0.1010  0.0254
  131OSM    HO314105   5.474   2.923   6.346  1.0621 -0.3779  0.7507
  131OSM    C4S14106   5.298   2.994   6.593  0.1309 -1.0848  0.3331
  131OSM    H4S14107   5.352   2.924   6.659  1.0060 -2.3744 -1.6500
  131OSM    C5S14108   5.238   3.105   6.639 -0.0767 -0.2977  0.5692
  131OSM    H5S14109   5.203   3.160   6.551 -0.2219 -1.9010 -0.4222
  131OSM    C6S14110   5.202   3.157   6.780  0.6675  0.3623  0.3845
  131OSM    H6S14111   5.095   3.134   6.795  0.5130  0.1642 -0.8893
  131OSM    H6T14112   5.213   3.267   6.793  1.6632  0.0996  2.1720
  131OSM    C7S14113   5.279   3.090   6.889  0.0976  0.4788 -0.2903
  131OSM    H7S14114   5.386   3.115   6.872  0.0565  1.4368  0.7558
  131OSM    H7T14115   5.265   2.980   6.882 -0.6991  0.6780 -3.0670
  131OSM    C8S14116   5.235   3.146   7.022 -0.3661  0.3374 -1.2503
  131OSM    H8S14117   5.125   3.137   7.036 -0.5716  1.5882 -1.8796
  131OSM    H8T14118   5.267   3.250   7.046  0.7286 -0.0715 -0.8899
  131OSM    C9S14119   5.315   3.063   7.130  0.3090  0.4595 -0.1606
  131OSM    H9S14120   5.422   3.093   7.125  0.9600 -1.8290 -1.1438
  131OSM    H9T14121   5.304   2.958   7.095 -3.2088  1.5767 -3.0422
  131OSM   C10S14122   5.253   3.078   7.262  1.1980  0.3493 -0.2134
  131OSM   H10S14123   5.144   3.057   7.252  0.8695  1.2390  1.2692
  131OSM   H10T14124   5.264   3.185   7.291 -3.3209  1.3508 -1.3465
  131OSM   C11S14125   5.299   2.983   7.368 -0.5075 -0.1797  1.5245
  131OSM   H11S14126   5.409   2.991   7.369 -0.3578  1.1290 -3.3919
  131OSM   H11T14127   5.253   2.886   7.339 -3.3192  0.6996  2.6533
  131OSM   C12S14128   5.250   3.019   7.509 -0.2326  0.0449 -0.0442
  131OSM   H12S14129   5.147   2.981   7.526  0.4508 -1.4569  0.9016
  131OSM   H12T14130   5.268   3.126   7.531  2.1251 -0.5962  1.4606
  131OSM   C13S14131   5.331   2.942   7.611 -0.4176 -0.6316  0.8183
  131OSM   H13S14132   5.437   2.968   7.594 -0.0869 -3.2389 -1.9472
  131OSM   H13T14133   5.330   2.831   7.599 -1.2008 -0.4681 -1.0289
  131OSM   C14S14134   5.289   2.978   7.749 -0.3618  0.3598 -0.1046
  131OSM   H14S14135   5.314   3.086   7.760  1.6346  0.1257 -1.9130
  131OSM   H14T14136   5.356   2.928   7.822  2.4057  5.8726  1.7249
  131OSM   C15S14137   5.141   2.937   7.785 -0.0608  0.2674  0.0451
  131OSM   H15S14138   5.144   2.826   7.791  1.7592  0.3261  0.7527
  131OSM   H15T14139   5.075   2.976   7.704  1.6703  1.8163 -0.6879
  131OSM   C16S14140   5.106   3.010   7.922 -0.3342 -0.0292 -0.0717
  131OSM   H16S14141   5.131   3.116   7.903 -0.0919  0.1716  1.2530
  131OSM   H16T14142   5.167   2.963   8.003 -0.8971  0.5673  0.7144
  131OSM   C17S14143   4.955   2.996   7.948 -0.1512 -1.0411  0.1565
  131OSM   H17S14144   4.905   3.023   7.853  0.7413 -0.3670 -0.1482
  131OSM   H17T14145   4.931   3.075   8.022 -0.9759 -0.0712 -1.1118
  131OSM   C18S14146   4.906   2.853   7.983  0.2116 -0.1031 -0.0942
  131OSM   H18S14147   4.795   2.847   7.982  0.1603  0.7695 -1.1988
  131OSM   H18T14148   4.935   2.809   8.080 -1.7374 -2.0430 -0.3179
  131OSM   H18U14149   4.937   2.780   7.905  1.6503  1.1310 -0.7205
  131OSM    C1F14150   5.107   2.659   6.471 -0.3054  0.0521 -0.6686
  131OSM     OF14151   5.173   2.559   6.441  0.5309  0.6812 -0.5023
  131OSM    C2F14152   4.967   2.644   6.520  0.0161  0.2524 -0.6609
  131OSM    H2F14153   4.907   2.570   6.464 -2.0927  1.5240 -0.2091
  131OSM    H2G14154   4.915   2.742   6.511 -1.3736 -0.4050 -0.2081
  131OSM    C3F14155   4.969   2.612   6.675  0.2281 -0.8436 -0.2963
  131OSM    H3F14156   5.026   2.521   6.705  0.4072 -0.2796  1.1595
  131OSM    H3G14157   4.867   2.583   6.711  0.6265  0.1086  1.7311
  131OSM    C4F14158   5.008   2.729   6.766 -0.2482  0.2725  0.5853
  131OSM    H4F14159   4.959   2.823   6.733 -3.3180 -2.3603 -3.2754
  131OSM    H4G14160   5.118   2.745   6.757 -0.0744 -0.5537  1.1250
  131OSM    C5F14161   4.980   2.699   6.909  0.1933 -0.0047 -0.1799
  131OSM    H5F14162   5.048   2.617   6.940  1.0837  1.3765  1.6697
  131OSM    H5G14163   4.873   2.672   6.922 -0.2131  0.9820 -1.2479
  131OSM    C6F14164   5.011   2.830   6.986 -0.0334 -0.5157  0.4848
  131OSM    H6F14165   4.962   2.914   6.934 -2.6965 -2.5149 -0.4527
  131OSM    H6G14166   5.122   2.841   6.994 -0.0352 -0.7230  0.8287
  131OSM    C7F14167   4.946   2.830   7.123  0.3564 -0.6481 -0.3711
  131OSM    H7F14168   5.029   2.815   7.196 -1.1765 -0.6021  1.4701
  131OSM    H7G14169   4.873   2.749   7.144  0.1883 -0.9642 -2.0287
  131OSM    C8F14170   4.878   2.966   7.161  0.0117 -0.1241 -0.0926
  131OSM    H8F14171   4.783   2.970   7.104 -0.5711 -2.0389  0.6417
  131OSM    H8G14172   4.932   3.049   7.110 -0.7750  0.4285 -0.0341
  131OSM    C9F14173   4.854   3.020   7.296 -0.1086 -0.8318  0.7120
  131OSM    H9F14174   4.829   3.127   7.305 -0.0206 -0.8296  0.9345
  131OSM   C10F14175   4.875   2.952   7.407  0.0077  0.7310 -1.2220
  131OSM   H10F14176   4.860   2.995   7.507  1.5780 -1.7195  0.1861
  131OSM   C11F14177   4.915   2.804   7.428  0.2523  0.0809 -0.2582
  131OSM   H11F14178   5.022   2.797   7.400  0.8676  0.8391  1.7311
  131OSM   H11G14179   4.860   2.740   7.355  0.7757 -0.0921 -0.5065
  131OSM   C12F14180   4.885   2.741   7.565 -0.2363  0.5841  0.6443
  131OSM   H12F14181   4.960   2.789   7.631  0.1470  0.4135  0.3379
  131OSM   H12G14182   4.913   2.634   7.558 -1.1856  0.3608  0.0377
  131OSM   C13F14183   4.742   2.747   7.618  0.4628  0.1382  0.2006
  131OSM   H13F14184   4.696   2.848   7.614  1.3855  0.5581 -0.0544
  131OSM   H13G14185   4.747   2.716   7.725 -1.2174  1.2423  0.6370
  131OSM   C14F14186   4.653   2.645   7.550  0.3883 -0.0064  0.1585
  131OSM   H14F14187   4.704   2.547   7.545 -0.6114 -0.4872 -1.0429
  131OSM   H14G14188   4.624   2.680   7.449  0.1643 -0.6474 -0.0060
  131OSM   C15F14189   4.525   2.621   7.630 -0.2566  0.1074  0.4460
  131OSM   H15F14190   4.547   2.566   7.723 -1.1404 -1.3391 -0.1731
  131OSM   H15G14191   4.467   2.544   7.575 -0.7106  0.7180  0.0587
  131OSM   C16F14192   4.428   2.742   7.638  0.1089  0.5727  0.3994
  131OSM   H16F14193   4.400   2.754   7.532  0.9180 -0.7789  0.0090
  131OSM   H16G14194   4.485   2.830   7.675  2.9594 -0.0362 -2.1547
  131OSM   C17F14195   4.297   2.723   7.715  0.1943  0.1474  0.0538
  131OSM   H17F14196   4.318   2.694   7.820 -0.3091  0.2262  0.1816
  131OSM   H17G14197   4.244   2.637   7.668 -0.0226 -0.5776  1.5845
  131OSM   C18F14198   4.214   2.857   7.700 -0.2626  0.2918 -0.7811
  131OSM   H18F14199   4.117   2.840   7.751  0.0803 -0.8495 -0.4861
  131OSM   H18G14200   4.182   2.865   7.594  1.5449  0.7325 -1.3378
  131OSM   H18H14201   4.263   2.950   7.735 -2.1091  0.9709  0.0846
  132OSM      N14202   0.196   6.193   6.305 -0.7963 -0.0249  0.0409
  132OSM    C1514203   0.142   6.247   6.173  0.4545 -0.3000 -0.4812
  132OSM   H15A14204   0.169   6.351   6.164  3.8084 -0.9630  0.6750
  132OSM   H15B14205   0.039   6.215   6.179  0.0217  1.2297  1.1661
  132OSM   H15C14206   0.179   6.182   6.095 -0.9298 -1.6255 -0.0761
  132OSM    C1414207   0.174   6.047   6.302  0.7924 -0.1092  0.2208
  132OSM   H14A14208   0.225   5.990   6.378  1.7059  0.1406 -0.1911
  132OSM   H14B14209   0.205   6.003   6.208  1.0192 -1.9778  1.1234
  132OSM   H14C14210   0.067   6.034   6.304  0.5382  1.7532  0.9927
  132OSM    C1314211   0.349   6.219   6.318  0.6555 -0.5775 -0.1529
  132OSM   H13A14212   0.358   6.327   6.309  0.7414 -0.2741  2.7883
  132OSM   H13B14213   0.394   6.181   6.228 -1.2181  0.4852 -1.6262
  132OSM   H13C14214   0.397   6.179   6.405  0.1035  1.2835  1.0779
  132OSM    C1214215   0.119   6.262   6.413 -0.5308  0.7185  0.3620
  132OSM   H12A14216   0.127   6.369   6.406 -1.3649  0.7335 -0.7726
  132OSM   H12B14217   0.166   6.234   6.506  2.7590  2.0544 -0.7662
  132OSM    C1114218  -0.031   6.218   6.428 -0.5751 -0.2364 -0.0913
  132OSM   H11A14219  -0.069   6.286   6.507  1.4439  0.4578  0.3417
  132OSM   H11B14220  -0.044   6.121   6.480 -0.3280  0.0020  0.4208
  132OSM      P14221  -0.264   6.193   6.306  0.0815  0.1238  0.4799
  132OSM    O1314222  -0.321   6.295   6.213 -0.3799  0.2067 -0.3892
  132OSM    O1414223  -0.280   6.050   6.278  0.1615  0.2419  0.0723
  132OSM    O1114224  -0.313   6.215   6.454 -0.1033  0.3942 -0.1070
  132OSM    O1214225  -0.110   6.237   6.311  0.0427  0.0814  0.8795
  132OSM    C1S14226  -0.333   6.343   6.514 -0.2269 -0.0980  1.3199
  132OSM    H1S14227  -0.413   6.394   6.457  0.1949  0.3713  1.1383
  132OSM    H1T14228  -0.237   6.400   6.519 -0.1191  0.1076 -1.4464
  132OSM     NF14229  -0.423   6.468   6.708  0.6902 -0.3952  0.1974
  132OSM    HNF14230  -0.346   6.505   6.760  2.0258 -0.6659 -1.4938
  132OSM    C2S14231  -0.392   6.330   6.662  0.1952  0.6188  0.2077
  132OSM    H2S14232  -0.495   6.293   6.648  0.7993 -0.9544 -0.3472
  132OSM    C3S14233  -0.311   6.240   6.756 -0.4130 -0.7908  0.1372
  132OSM    H3S14234  -0.207   6.274   6.777  0.3439 -2.8882  0.0608
  132OSM     O314235  -0.287   6.112   6.694 -0.0143 -0.0176  0.7968
  132OSM    HO314236  -0.297   6.131   6.601  0.5471  2.0093  1.1029
  132OSM    C4S14237  -0.373   6.223   6.892 -0.1749 -0.2050  0.7490
  132OSM    H4S14238  -0.343   6.306   6.959  1.8044  1.2317 -1.7382
  132OSM    C5S14239  -0.452   6.120   6.931  0.2146  0.0127  1.1534
  132OSM    H5S14240  -0.466   6.039   6.857 -3.5272  0.9388  0.6514
  132OSM    C6S14241  -0.522   6.103   7.065 -0.0320 -0.4963  0.4584
  132OSM    H6S14242  -0.629   6.076   7.049  0.0575  0.0990 -1.4527
  132OSM    H6T14243  -0.523   6.196   7.125 -0.2924 -0.4387  0.3695
  132OSM    C7S14244  -0.457   5.990   7.140 -0.5376  0.1067  0.2866
  132OSM    H7S14245  -0.351   6.008   7.166 -0.0254  2.4566 -2.9141
  132OSM    H7T14246  -0.440   5.897   7.081  2.7443  3.0807 -4.0273
  132OSM    C8S14247  -0.545   5.951   7.256  0.3860 -0.1661  0.7280
  132OSM    H8S14248  -0.649   5.941   7.218 -0.3186  0.8753  2.2481
  132OSM    H8T14249  -0.551   6.035   7.329 -3.8749 -0.7013  1.2264
  132OSM    C9S14250  -0.520   5.819   7.323  0.7844  0.4687 -0.0694
  132OSM    H9S14251  -0.515   5.738   7.247  0.1135 -0.1465  0.5226
  132OSM    H9T14252  -0.606   5.796   7.390 -1.2389  1.0442 -2.3068
  132OSM   C10S14253  -0.387   5.823   7.403 -0.2839 -0.4882  0.4170
  132OSM   H10S14254  -0.398   5.898   7.484 -0.2632  0.1340 -0.1492
  132OSM   H10T14255  -0.305   5.857   7.336  0.3440 -0.1128  1.3421
  132OSM   C11S14256  -0.343   5.691   7.473 -0.2586 -0.2919 -0.1983
  132OSM   H11S14257  -0.248   5.711   7.528 -1.4187  0.1347  1.7824
  132OSM   H11T14258  -0.319   5.618   7.393 -1.0673  0.9175 -1.6037
  132OSM   C12S14259  -0.463   5.619   7.550 -1.1584 -0.8475  0.6922
  132OSM   H12S14260  -0.538   5.597   7.471  1.0708 -0.7189 -1.5864
  132OSM   H12T14261  -0.501   5.696   7.621  2.0442  1.2529  0.3143
  132OSM   C13S14262  -0.417   5.497   7.624  0.3747 -0.7212  0.0383
  132OSM   H13S14263  -0.375   5.411   7.569  0.0099 -1.0914  0.3382
  132OSM   H13T14264  -0.501   5.450   7.680  0.7558 -1.2427  0.1796
  132OSM   C14S14265  -0.321   5.542   7.735 -0.6173  0.0129 -0.2964
  132OSM   H14S14266  -0.359   5.630   7.790  1.0303  0.3960  0.2624
  132OSM   H14T14267  -0.219   5.555   7.692  0.2028  0.0253  1.5869
  132OSM   C15S14268  -0.311   5.430   7.837 -0.8372 -0.2351 -0.0685
  132OSM   H15S14269  -0.283   5.334   7.789 -0.2348 -1.8832  3.2594
  132OSM   H15T14270  -0.411   5.411   7.883 -0.0290 -0.2561  1.7854
  132OSM   C16S14271  -0.214   5.454   7.956  0.5434  0.6469  0.1658
  132OSM   H16S14272  -0.230   5.372   8.029 -0.4298  1.3141  0.7260
  132OSM   H16T14273  -0.239   5.553   7.999 -4.1301 -1.2481  2.5736
  132OSM   C17S14274  -0.067   5.440   7.903 -0.0462  0.0656 -0.0133
  132OSM   H17S14275  -0.002   5.466   7.989  0.8463 -0.8035 -0.4079
  132OSM   H17T14276  -0.055   5.505   7.814 -0.2733  0.7319  0.4277
  132OSM   C18S14277  -0.023   5.295   7.862 -0.0626 -0.1756 -0.7189
  132OSM   H18S14278  -0.098   5.262   7.787  1.1665  1.0068 -2.5477
  132OSM   H18T14279  -0.024   5.231   7.952  0.7478 -0.7566 -1.1179
  132OSM   H18U14280   0.074   5.285   7.809  0.2317 -0.7716 -0.0825
  132OSM    C1F14281  -0.518   6.552   6.658 -0.5101  0.1113 -0.5442
  132OSM     OF14282  -0.611   6.511   6.590  0.0122 -0.9737 -0.6682
  132OSM    C2F14283  -0.502   6.697   6.695 -0.3878 -0.0247  0.4440
  132OSM    H2F14284  -0.459   6.742   6.602 -0.0404 -0.0184  0.6058
  132OSM    H2G14285  -0.415   6.692   6.764 -0.0604 -0.5012  0.0019
  132OSM    C3F14286  -0.626   6.783   6.745  0.2146  0.7672 -0.5497
  132OSM    H3F14287  -0.689   6.804   6.656  0.8579  1.7115 -0.7929
  132OSM    H3G14288  -0.596   6.883   6.784 -0.1407  0.0128  1.8183
  132OSM    C4F14289  -0.719   6.714   6.843 -0.6629  0.4003 -0.3104
  132OSM    H4F14290  -0.751   6.617   6.800 -2.4956 -0.8340  3.4031
  132OSM    H4G14291  -0.805   6.776   6.878  0.2531  1.1432  0.7294
  132OSM    C5F14292  -0.644   6.676   6.975 -0.1471 -1.0579  0.0992
  132OSM    H5F14293  -0.589   6.767   7.006 -0.8013 -1.1478  1.5941
  132OSM    H5G14294  -0.563   6.605   6.946  1.1785  0.5909 -0.4293
  132OSM    C6F14295  -0.728   6.632   7.100 -0.4330 -0.1672  0.6506
  132OSM    H6F14296  -0.820   6.579   7.070 -1.5485 -0.6143  4.2969
  132OSM    H6G14297  -0.753   6.730   7.145  1.7647 -0.0884  1.8863
  132OSM    C7F14298  -0.645   6.545   7.200 -0.1526  0.4756 -0.2714
  132OSM    H7F14299  -0.562   6.611   7.235 -0.1926  0.1117  0.5310
  132OSM    H7G14300  -0.617   6.452   7.146 -3.6260  1.2367 -3.8736
  132OSM    C8F14301  -0.729   6.525   7.328  0.0751 -0.0195 -0.1070
  132OSM    H8F14302  -0.832   6.501   7.294 -0.3543  3.5940 -1.7791
  132OSM    H8G14303  -0.740   6.620   7.384  0.6041 -0.0856  0.1102
  132OSM    C9F14304  -0.656   6.427   7.415  0.6773 -0.3860 -0.5139
  132OSM    H9F14305  -0.613   6.342   7.360  0.7644  1.3946 -3.4065
  132OSM   C10F14306  -0.621   6.445   7.548  0.5406  0.2279 -0.1904
  132OSM   H10F14307  -0.574   6.368   7.610  0.4860  0.9015  0.7177
  132OSM   C11F14308  -0.640   6.565   7.640  0.2126  0.1339 -0.0213
  132OSM   H11F14309  -0.686   6.644   7.577 -3.2801 -1.5447  0.1897
  132OSM   H11G14310  -0.556   6.599   7.703 -1.1959  2.4248  0.7580
  132OSM   C12F14311  -0.747   6.533   7.742 -0.1438 -0.3635  0.1312
  132OSM   H12F14312  -0.832   6.510   7.675  1.0296 -0.7076 -1.2853
  132OSM   H12G14313  -0.778   6.616   7.810 -0.5300 -0.1895 -0.2525
  132OSM   C13F14314  -0.715   6.416   7.834 -0.0744 -0.6449 -0.7006
  132OSM   H13F14315  -0.681   6.326   7.779  0.8471  0.3554 -1.8281
  132OSM   H13G14316  -0.812   6.390   7.881  0.7214  0.0994  1.5225
  132OSM   C14F14317  -0.615   6.455   7.952  0.2633  0.2496  0.1619
  132OSM   H14F14318  -0.633   6.564   7.965  1.7432  0.6942 -1.2412
  132OSM   H14G14319  -0.514   6.448   7.907  0.3648 -0.6945  0.5038
  132OSM   C15F14320  -0.618   6.370   8.073 -0.0535 -0.3158 -0.4315
  132OSM   H15F14321  -0.521   6.377   8.126  1.0708 -0.6042 -2.3424
  132OSM   H15G14322  -0.627   6.265   8.038 -0.4579 -0.4767  0.1332
  132OSM   C16F14323  -0.729   6.395   8.176  0.4731  0.1867 -0.4372
  132OSM   H16F14324  -0.829   6.370   8.133  1.1233 -1.2142 -1.2147
  132OSM   H16G14325  -0.731   6.500   8.210  0.0782 -0.3174  1.1829
  132OSM   C17F14326  -0.716   6.318   8.318 -0.2460 -0.2299  0.0923
  132OSM   H17F14327  -0.649   6.371   8.389 -2.3590 -0.5270  2.4504
  132OSM   H17G14328  -0.661   6.224   8.297 -0.1770 -0.1469 -0.1014
  132OSM   C18F14329  -0.844   6.306   8.406 -0.3258 -0.6376 -0.1416
  132OSM   H18F14330  -0.924   6.252   8.352 -0.1753 -2.9175  1.7269
  132OSM   H18G14331  -0.876   6.404   8.446  3.2716  0.2224  1.0480
  132OSM   H18H14332  -0.808   6.238   8.486  1.2651  2.4549  1.9744
  133OSM      N14333   1.177   4.743   6.274  0.5974 -0.2264  0.4156
  133OSM    C1514334   1.295   4.788   6.193  0.3980 -1.0004  0.1757
  133OSM   H15A14335   1.304   4.895   6.195 -0.0886 -0.9587  1.4086
  133OSM   H15B14336   1.280   4.754   6.092  2.5323  0.0630 -0.5289
  133OSM   H15C14337   1.383   4.747   6.241 -1.0681 -1.2702  2.8722
  133OSM    C1414338   1.232   4.745   6.414  0.1803  0.1737  0.2173
  133OSM   H14A14339   1.306   4.669   6.434  0.4666  0.2485 -0.5234
  133OSM   H14B14340   1.164   4.742   6.498 -0.9189  0.8050 -0.6314
  133OSM   H14C14341   1.282   4.839   6.431  1.6178 -0.3923 -0.7151
  133OSM    C1314342   1.062   4.845   6.269  0.1527 -0.2444  0.0481
  133OSM   H13A14343   1.013   4.841   6.173  1.0888  0.2434 -0.4643
  133OSM   H13B14344   1.092   4.948   6.283  1.0404 -0.2188 -1.7175
  133OSM   H13C14345   0.994   4.832   6.352  0.2585  2.4582  0.6498
  133OSM    C1214346   1.121   4.605   6.230 -0.5164  0.4357 -0.3049
  133OSM   H12A14347   1.040   4.576   6.294  1.0759  0.4562  1.8441
  133OSM   H12B14348   1.206   4.539   6.239  1.1738  2.4345 -0.7226
  133OSM    C1114349   1.067   4.590   6.088 -0.3513 -0.0402  0.7652
  133OSM   H11A14350   1.034   4.483   6.085 -0.1119 -0.1376  1.4611
  133OSM   H11B14351   1.136   4.607   6.004 -0.2564  0.2798  0.9071
  133OSM      P14352   0.810   4.641   6.121  0.2726 -0.2975  0.4730
  133OSM    O1314353   0.728   4.764   6.136 -0.8461  0.0716 -0.7187
  133OSM    O1414354   0.758   4.538   6.031  0.2095  0.0129 -0.5571
  133OSM    O1114355   0.829   4.583   6.264 -0.1424  0.0120 -0.4628
  133OSM    O1214356   0.952   4.670   6.073 -0.1658 -0.4545  0.0312
  133OSM    C1S14357   0.760   4.641   6.380  0.0279  0.6838 -0.4119
  133OSM    H1S14358   0.652   4.648   6.352 -0.8380 -1.0813  2.0656
  133OSM    H1T14359   0.805   4.739   6.405  4.0875 -0.8993 -0.7097
  133OSM     NF14360   0.675   4.632   6.619 -0.4216  0.3072  0.0145
  133OSM    HNF14361   0.711   4.661   6.707 -0.8506 -1.2893  0.7625
  133OSM    C2S14362   0.759   4.567   6.521 -0.2278  0.0726  0.4116
  133OSM    H2S14363   0.714   4.468   6.502 -1.4668  0.8477 -0.8403
  133OSM    C3S14364   0.909   4.547   6.564  0.3278  0.0609  0.1089
  133OSM    H3S14365   0.958   4.647   6.569 -2.7514  1.7124  0.2540
  133OSM     O314366   0.977   4.470   6.470  0.7507 -0.0131 -0.1012
  133OSM    HO314367   0.929   4.481   6.388  0.1536  2.1866  0.4834
  133OSM    C4S14368   0.918   4.473   6.694  0.4478  0.0566 -0.6684
  133OSM    H4S14369   0.896   4.366   6.684 -0.8957  0.2666 -0.0949
  133OSM    C5S14370   0.950   4.523   6.815 -0.7659 -0.0498  0.3004
  133OSM    H5S14371   0.983   4.628   6.822  3.0744 -0.9932 -0.8935
  133OSM    C6S14372   0.961   4.455   6.945 -0.8388  0.3799 -0.3970
  133OSM    H6S14373   0.903   4.506   7.025 -2.3074 -1.3464 -0.3197
  133OSM    H6T14374   1.070   4.454   6.969 -0.5900  2.1433 -1.2803
  133OSM    C7S14375   0.921   4.304   6.934 -0.3345 -0.0655 -0.1012
  133OSM    H7S14376   0.999   4.240   6.887  0.3242  1.7688 -1.6609
  133OSM    H7T14377   0.819   4.296   6.893 -1.2488 -0.6540  2.1510
  133OSM    C8S14378   0.896   4.237   7.077 -0.0170 -0.7673 -0.3154
  133OSM    H8S14379   0.866   4.131   7.060 -0.7734 -0.5562 -0.3344
  133OSM    H8T14380   0.813   4.291   7.127  1.8966  0.3240  1.8583
  133OSM    C9S14381   1.022   4.231   7.158 -0.6700 -0.9561 -0.4882
  133OSM    H9S14382   1.060   4.331   7.189 -2.3158 -0.8215  1.2778
  133OSM    H9T14383   1.105   4.175   7.111  3.1604  2.9966  0.8962
  133OSM   C10S14384   0.977   4.149   7.282  0.1320  0.0689 -0.0790
  133OSM   H10S14385   1.070   4.104   7.322 -1.1978  0.6252  4.1158
  133OSM   H10T14386   0.903   4.066   7.269  0.5992 -0.6647  1.6807
  133OSM   C11S14387   0.922   4.242   7.400 -0.1050 -1.2750  0.4403
  133OSM   H11S14388   0.842   4.307   7.358  2.2106 -0.1554 -2.5645
  133OSM   H11T14389   1.006   4.308   7.431 -0.4636  0.4029 -1.8610
  133OSM   C12S14390   0.881   4.172   7.523  0.5901  0.3126 -0.6651
  133OSM   H12S14391   0.963   4.105   7.558 -0.0023  0.1405  0.4589
  133OSM   H12T14392   0.800   4.108   7.482 -2.0899  2.2479  1.2544
  133OSM   C13S14393   0.828   4.260   7.632 -0.8344  0.2247 -0.5837
  133OSM   H13S14394   0.734   4.315   7.608 -1.9405 -1.5076 -0.4088
  133OSM   H13T14395   0.903   4.339   7.651 -0.3445 -0.0260 -1.4118
  133OSM   C14S14396   0.798   4.174   7.752  0.7233 -0.1233  0.7956
  133OSM   H14S14397   0.878   4.102   7.780  0.2078 -1.2591 -0.5146
  133OSM   H14T14398   0.709   4.121   7.713  0.2709  0.9600  0.3273
  133OSM   C15S14399   0.753   4.245   7.878  0.3327 -0.9927 -0.6542
  133OSM   H15S14400   0.678   4.318   7.839  0.4819 -0.4480  0.0671
  133OSM   H15T14401   0.831   4.310   7.923 -1.7868  1.8978 -0.8327
  133OSM   C16S14402   0.686   4.155   7.980  0.0881 -0.1163 -0.2447
  133OSM   H16S14403   0.648   4.239   8.041 -0.3301 -0.7566  0.3834
  133OSM   H16T14404   0.747   4.100   8.055  1.3653  1.3650 -0.1530
  133OSM   C17S14405   0.580   4.059   7.934 -0.5177  0.1769 -0.6102
  133OSM   H17S14406   0.639   3.973   7.896 -0.9956 -0.8648  0.8970
  133OSM   H17T14407   0.529   4.108   7.848  0.6968 -0.9622 -2.0275
  133OSM   C18S14408   0.484   4.015   8.047 -0.3627 -0.2238 -0.0458
  133OSM   H18S14409   0.408   4.094   8.066  0.9644  1.7098 -2.2962
  133OSM   H18T14410   0.537   3.989   8.142 -1.7723 -1.1173  0.5234
  133OSM   H18U14411   0.433   3.925   8.009  0.5018 -1.0420  0.6777
  133OSM    C1F14412   0.547   4.642   6.597 -0.3567 -0.1055  0.2350
  133OSM     OF14413   0.492   4.589   6.503  0.3444  0.1238  0.5211
  133OSM    C2F14414   0.476   4.733   6.698 -0.0134 -1.2234 -0.2207
  133OSM    H2F14415   0.497   4.836   6.662  1.6489 -1.9199 -1.3986
  133OSM    H2G14416   0.527   4.712   6.795 -0.2424 -0.3269  0.1025
  133OSM    C3F14417   0.329   4.692   6.688  0.5860  0.0416 -0.3217
  133OSM    H3F14418   0.320   4.591   6.734 -1.1133  0.0355 -0.6128
  133OSM    H3G14419   0.294   4.685   6.583 -1.0081 -1.4903  0.2635
  133OSM    C4F14420   0.229   4.779   6.780 -0.4199  0.1955  0.3392
  133OSM    H4F14421   0.246   4.886   6.756  2.1180  0.4146  2.6484
  133OSM    H4G14422   0.268   4.781   6.884  0.7153  3.5455 -0.0347
  133OSM    C5F14423   0.080   4.752   6.775  0.0156 -0.3139  0.5082
  133OSM    H5F14424   0.030   4.809   6.693  1.2895  1.5161  0.9227
  133OSM    H5G14425   0.030   4.797   6.863 -2.4792  0.4333 -1.1692
  133OSM    C6F14426   0.045   4.603   6.775  0.5383  0.8052 -0.3377
  133OSM    H6F14427   0.097   4.546   6.855  1.3446 -1.1148 -2.1452
  133OSM    H6G14428   0.082   4.561   6.679  3.0815  1.1611  0.4279
  133OSM    C7F14429  -0.108   4.574   6.796  0.0592  0.0515  0.2236
  133OSM    H7F14430  -0.158   4.651   6.733  1.0288  0.0034 -0.6380
  133OSM    H7G14431  -0.125   4.607   6.900  0.9946 -2.1451  1.1309
  133OSM    C8F14432  -0.157   4.431   6.778 -1.3204 -0.1163 -0.0206
  133OSM    H8F14433  -0.154   4.396   6.672 -3.3567  1.8454 -0.8138
  133OSM    H8G14434  -0.263   4.442   6.809 -1.0835  1.8496  0.2187
  133OSM    C9F14435  -0.089   4.321   6.855 -0.3040  0.0967  0.3044
  133OSM    H9F14436   0.020   4.306   6.851 -0.5039 -2.0743  1.4201
  133OSM   C10F14437  -0.149   4.237   6.943  0.0756  0.3829  1.0018
  133OSM   H10F14438  -0.082   4.158   6.982  0.5588 -0.5960 -1.6073
  133OSM   C11F14439  -0.296   4.234   6.977  0.2735 -0.2433 -0.5939
  133OSM   H11F14440  -0.356   4.158   6.921  0.2418 -1.9021  1.5452
  133OSM   H11G14441  -0.352   4.326   6.950  0.2815 -0.6574 -2.0889
  133OSM   C12F14442  -0.319   4.218   7.130  0.8496  0.0609 -0.6457
  133OSM   H12F14443  -0.288   4.314   7.176  0.8895 -0.2811  0.0513
  133OSM   H12G14444  -0.247   4.145   7.174  0.3512  1.2231  2.3528
  133OSM   C13F14445  -0.464   4.187   7.161  0.3088 -0.2357 -0.5598
  133OSM   H13F14446  -0.506   4.116   7.087 -0.4536  1.3358 -1.7044
  133OSM   H13G14447  -0.529   4.277   7.154 -1.8333 -1.6501 -0.0349
  133OSM   C14F14448  -0.503   4.144   7.309 -0.3227  0.5146  0.3476
  133OSM   H14F14449  -0.443   4.204   7.380  1.1472  2.2815 -2.2361
  133OSM   H14G14450  -0.486   4.034   7.313 -2.4923  0.0969 -0.4189
  133OSM   C15F14451  -0.650   4.181   7.336  0.0897  0.6582  0.2070
  133OSM   H15F14452  -0.707   4.171   7.241  0.1622  0.0304  0.2233
  133OSM   H15G14453  -0.654   4.290   7.359  0.7671  0.5221  1.0433
  133OSM   C16F14454  -0.717   4.086   7.441 -0.3089  0.2956 -0.0631
  133OSM   H16F14455  -0.666   3.988   7.429  1.1059  0.8364  1.2390
  133OSM   H16G14456  -0.824   4.069   7.417 -0.5441  1.3533  0.2152
  133OSM   C17F14457  -0.693   4.129   7.581 -0.6833  0.6857  0.2907
  133OSM   H17F14458  -0.732   4.231   7.605  1.1468  1.2767  0.9189
  133OSM   H17G14459  -0.587   4.131   7.612 -0.7307 -3.3657  1.2701
  133OSM   C18F14460  -0.744   4.028   7.687  0.0409  0.0223 -0.4842
  133OSM   H18F14461  -0.710   3.926   7.661  0.0038 -0.1965  0.3034
  133OSM   H18G14462  -0.854   4.016   7.682  0.0525  0.0599 -0.8840
  133OSM   H18H14463  -0.709   4.058   7.788  0.0756 -1.8545  0.0974
  134OSM      N14464   6.683   2.229   6.038 -0.6262 -0.3282 -0.9594
  134OSM    C1514465   6.541   2.262   6.028  0.7934  0.2042 -0.0072
  134OSM   H15A14466   6.527   2.298   5.927  0.6424 -1.1563 -0.4825
  134OSM   H15B14467   6.505   2.336   6.099 -2.0375 -0.8073 -0.2718
  134OSM   H15C14468   6.478   2.177   6.048 -0.6373  1.1778 -0.1835
  134OSM    C1414469   6.703   2.113   5.944  0.1040  0.8970  0.1411
  134OSM   H14A14470   6.702   2.140   5.840  3.2706  0.0444 -0.2196
  134OSM   H14B14471   6.628   2.041   5.973 -0.5852  1.2694 -0.6708
  134OSM   H14C14472   6.799   2.064   5.956 -0.7918 -0.8572  0.4736
  134OSM    C1314473   6.770   2.343   5.999 -0.0711  0.7766  0.0420
  134OSM   H13A14474   6.871   2.308   5.981 -0.1543 -0.2407  1.3885
  134OSM   H13B14475   6.776   2.417   6.078  0.9971  2.2776 -1.3855
  134OSM   H13C14476   6.737   2.388   5.907 -1.1441 -2.7375 -1.4485
  134OSM    C1214477   6.718   2.173   6.173  0.2268  0.0939 -0.9313
  134OSM   H12A14478   6.819   2.135   6.170  0.9883  1.9046  0.1433
  134OSM   H12B14479   6.655   2.090   6.202  1.1561  0.1918  1.6873
  134OSM    C1114480   6.721   2.263   6.298 -0.9766  0.3848  0.0457
  134OSM   H11A14481   6.742   2.195   6.383  0.1342 -0.8149 -1.1511
  134OSM   H11B14482   6.617   2.296   6.319 -0.5484  0.5435  2.1844
  134OSM      P14483   6.966   2.344   6.316 -0.0465  0.1680  0.4200
  134OSM    O1314484   7.034   2.269   6.206  0.0772 -0.6558 -0.4194
  134OSM    O1414485   7.029   2.479   6.339 -0.0479 -0.1952  0.1495
  134OSM    O1114486   6.969   2.252   6.445  0.7369  0.1923  0.3786
  134OSM    O1214487   6.816   2.369   6.279 -0.6637 -0.1744 -0.4136
  134OSM    C1S14488   7.003   2.318   6.570  0.1684  0.1489  0.2269
  134OSM    H1S14489   6.928   2.396   6.594  1.2313  0.6713  2.0284
  134OSM    H1T14490   7.100   2.370   6.554  0.7924 -1.5734 -2.0488
  134OSM     NF14491   7.023   2.269   6.812 -0.1719  0.2707  0.1302
  134OSM    HNF14492   7.113   2.265   6.854  0.9150  1.5584 -1.9309
  134OSM    C2S14493   7.008   2.207   6.685  0.1298  0.5678 -0.3509
  134OSM    H2S14494   6.910   2.156   6.687 -0.1057  1.0449  0.7228
  134OSM    C3S14495   7.112   2.096   6.651 -0.4669 -0.2735 -0.0574
  134OSM    H3S14496   7.209   2.151   6.650 -1.1782  0.9957 -0.4385
  134OSM     O314497   7.108   2.046   6.522  0.5828  0.1960 -0.1323
  134OSM    HO314498   7.035   2.099   6.488  0.5606  2.3230  2.8580
  134OSM    C4S14499   7.110   1.983   6.754 -0.4310  0.4687 -0.8239
  134OSM    H4S14500   7.170   2.005   6.844 -1.7945 -1.3688  0.6039
  134OSM    C5S14501   7.048   1.866   6.742  0.3157  0.8479 -0.5890
  134OSM    H5S14502   6.992   1.847   6.649  0.8595  2.1220 -1.2208
  134OSM    C6S14503   7.052   1.756   6.849 -1.0044  0.1863 -0.2556
  134OSM    H6S14504   7.105   1.668   6.806  1.4942 -0.2142  3.1455
  134OSM    H6T14505   6.956   1.713   6.884 -1.4841  1.4648  0.0454
  134OSM    C7S14506   7.126   1.775   6.985 -0.3146  0.0498  0.5915
  134OSM    H7S14507   7.219   1.820   6.944 -2.5595  2.5632 -2.2062
  134OSM    H7T14508   7.153   1.681   7.037  2.1762  0.4215  0.1012
  134OSM    C8S14509   7.060   1.867   7.088 -0.7565  0.0866  0.6497
  134OSM    H8S14510   6.958   1.830   7.113  0.1216 -1.7677  1.6899
  134OSM    H8T14511   7.047   1.972   7.055  1.3774 -0.4154 -2.2480
  134OSM    C9S14512   7.140   1.860   7.219  1.0678  0.3029  0.1807
  134OSM    H9S14513   7.246   1.882   7.195  0.9929 -0.4086 -0.8556
  134OSM    H9T14514   7.138   1.755   7.257  0.4601  0.9830  2.1516
  134OSM   C10S14515   7.088   1.946   7.334 -0.5911  0.1375 -0.5111
  134OSM   H10S14516   6.977   1.951   7.330 -0.6444  2.1950  1.4163
  134OSM   H10T14517   7.113   2.052   7.311  1.1326 -0.3770 -1.1597
  134OSM   C11S14518   7.138   1.913   7.480 -0.2572 -0.2280  0.1876
  134OSM   H11S14519   7.136   2.011   7.534  0.0360 -0.1363  0.0368
  134OSM   H11T14520   7.247   1.890   7.485 -0.0515  0.7541  0.6231
  134OSM   C12S14521   7.037   1.821   7.551  0.6277  0.3451 -0.4945
  134OSM   H12S14522   7.038   1.725   7.495 -1.9683  0.2196 -0.4365
  134OSM   H12T14523   6.929   1.847   7.545 -0.3278 -2.8423  0.7076
  134OSM   C13S14524   7.095   1.806   7.695  0.0674  0.0975 -0.0024
  134OSM   H13S14525   7.202   1.773   7.693 -0.9460 -3.6279 -1.2191
  134OSM   H13T14526   7.045   1.725   7.753  2.2962 -2.7208 -1.7016
  134OSM   C14S14527   7.077   1.932   7.785 -1.3532 -0.0496 -0.0826
  134OSM   H14S14528   6.991   1.991   7.745 -1.8863 -0.7999 -0.0733
  134OSM   H14T14529   7.166   1.998   7.777 -0.6536 -1.1375 -1.7908
  134OSM   C15S14530   7.056   1.898   7.943 -0.1987 -0.0986 -0.2573
  134OSM   H15S14531   7.134   1.822   7.964  0.3470  0.4575 -0.2312
  134OSM   H15T14532   6.957   1.853   7.967  0.7296 -0.3928  3.5466
  134OSM   C16S14533   7.066   2.026   8.016  0.0746  0.0308  0.0675
  134OSM   H16S14534   6.996   2.104   7.979  1.8658  0.8461 -1.7943
  134OSM   H16T14535   7.167   2.070   8.008  0.2998 -0.4970 -0.0303
  134OSM   C17S14536   7.045   2.007   8.169  0.1219 -0.1432  0.2043
  134OSM   H17S14537   7.081   2.101   8.215  1.0098  0.6281 -1.9577
  134OSM   H17T14538   7.125   1.933   8.192  1.2665  0.1148 -2.5087
  134OSM   C18S14539   6.894   1.975   8.202 -0.2952 -0.5265  0.2330
  134OSM   H18S14540   6.864   1.879   8.155 -1.6143  0.1821 -0.4279
  134OSM   H18T14541   6.820   2.050   8.167 -0.1058  0.7096  2.3057
  134OSM   H18U14542   6.883   1.969   8.313 -1.4364 -1.0355  0.1055
  134OSM    C1F14543   6.929   2.342   6.874 -0.0757 -0.2635 -0.7292
  134OSM     OF14544   6.832   2.387   6.816 -0.1999 -0.9271  0.3060
  134OSM    C2F14545   6.943   2.371   7.018 -0.9720 -0.3796 -0.0855
  134OSM    H2F14546   7.042   2.419   7.037 -0.6254 -0.7507 -0.8904
  134OSM    H2G14547   6.947   2.276   7.076  1.6524 -1.6429 -2.1291
  134OSM    C3F14548   6.841   2.463   7.084 -0.7038 -0.5091 -0.2233
  134OSM    H3F14549   6.748   2.405   7.100 -0.6273 -0.5124  0.2436
  134OSM    H3G14550   6.819   2.542   7.010  1.4940  0.2357 -0.1688
  134OSM    C4F14551   6.895   2.520   7.217  0.2419 -0.4582 -0.0706
  134OSM    H4F14552   6.845   2.614   7.251  3.1928  1.4433 -0.5887
  134OSM    H4G14553   6.998   2.545   7.184  1.2673 -3.0465  0.9141
  134OSM    C5F14554   6.897   2.412   7.329 -0.5159 -0.0949  0.5932
  134OSM    H5F14555   6.971   2.330   7.313  1.8595  2.3312 -1.8956
  134OSM    H5G14556   6.799   2.366   7.353  0.5853 -1.4252  2.8808
  134OSM    C6F14557   6.933   2.479   7.471  0.4909 -0.0402 -0.1038
  134OSM    H6F14558   6.853   2.553   7.495 -0.6673 -0.8883 -1.2789
  134OSM    H6G14559   7.016   2.553   7.467  0.1571  0.4502  1.4169
  134OSM    C7F14560   6.956   2.380   7.582  0.0118  0.1307  0.3483
  134OSM    H7F14561   7.046   2.320   7.557 -0.2212 -0.6431  1.3181
  134OSM    H7G14562   6.868   2.312   7.582  0.9221 -1.1721 -1.9827
  134OSM    C8F14563   6.960   2.437   7.728  0.3948  0.3382 -0.6342
  134OSM    H8F14564   6.923   2.363   7.802  2.3232 -0.0742 -0.0426
  134OSM    H8G14565   6.891   2.524   7.737 -1.2923 -1.0868  0.9218
  134OSM    C9F14566   7.094   2.488   7.752  0.1929 -0.2160 -0.7647
  134OSM    H9F14567   7.128   2.544   7.664  0.0640  0.1077 -0.6124
  134OSM   C10F14568   7.157   2.484   7.871 -0.4299 -0.2630 -0.0188
  134OSM   H10F14569   7.254   2.534   7.885 -0.2542 -1.0239  1.7075
  134OSM   C11F14570   7.098   2.439   8.000 -0.0266  0.6463 -0.1963
  134OSM   H11F14571   7.017   2.366   7.978  0.4689 -0.8670  2.5718
  134OSM   H11G14572   7.043   2.516   8.057 -0.3191  0.3598 -0.0854
  134OSM   C12F14573   7.193   2.369   8.103 -0.2194 -0.1062 -0.2396
  134OSM   H12F14574   7.233   2.277   8.055 -1.4354 -0.5382 -0.4493
  134OSM   H12G14575   7.127   2.328   8.183 -2.9301  0.5022 -2.0360
  134OSM   C13F14576   7.308   2.454   8.157  0.0170  0.5036  0.3506
  134OSM   H13F14577   7.380   2.488   8.080 -1.0390 -0.7693 -1.2959
  134OSM   H13G14578   7.361   2.392   8.232  0.6205  1.3811  0.6630
  134OSM   C14F14579   7.257   2.588   8.216  1.0423  1.0513  0.1946
  134OSM   H14F14580   7.204   2.645   8.137  0.4300 -0.8109 -0.8058
  134OSM   H14G14581   7.348   2.645   8.243  1.7854  0.2317 -0.4902
  134OSM   C15F14582   7.165   2.577   8.339 -0.5114  0.2138 -0.2703
  134OSM   H15F14583   7.223   2.518   8.414 -1.3467 -1.3093 -0.7603
  134OSM   H15G14584   7.072   2.521   8.313 -0.4579 -0.1308  0.2617
  134OSM   C16F14585   7.136   2.713   8.398  0.9431 -0.9540  0.0649
  134OSM   H16F14586   7.072   2.775   8.331  0.7770 -0.7985  0.3629
  134OSM   H16G14587   7.231   2.770   8.402  0.0597  0.5018  1.4806
  134OSM   C17F14588   7.069   2.689   8.534  0.2903  0.1838 -0.0103
  134OSM   H17F14589   7.139   2.621   8.586  0.8571 -0.2424 -1.2888
  134OSM   H17G14590   6.975   2.631   8.519 -0.1307  1.0727 -0.9601
  134OSM   C18F14591   7.047   2.817   8.613  0.2094  0.0279  0.0527
  134OSM   H18F14592   7.003   2.796   8.713 -0.7258 -0.9785 -0.5466
  134OSM   H18G14593   6.979   2.881   8.552 -0.6384 -1.1976 -0.3385
  134OSM   H18H14594   7.141   2.874   8.627 -0.5165  1.9294 -2.0952
  135OSM      N14595   6.372   2.952   6.327  0.4438 -0.6114  0.4713
  135OSM    C1514596   6.246   3.034   6.313  0.9441 -0.6405  0.7464
  135OSM   H15A14597   6.273   3.138   6.323  2.8832 -1.1367  1.0494
  135OSM   H15B14598   6.168   3.023   6.386  0.4642  0.7675  0.4857
  135OSM   H15C14599   6.202   3.019   6.215  1.2552 -1.8592  0.7731
  135OSM    C1414600   6.480   3.007   6.229 -0.0825  0.0926  0.1411
  135OSM   H14A14601   6.561   2.942   6.198  1.7427  2.2343  0.2241
  135OSM   H14B14602   6.529   3.095   6.265  1.1166 -0.8906  0.9884
  135OSM   H14C14603   6.432   3.026   6.134  1.0094 -0.8056 -0.6095
  135OSM    C1314604   6.436   2.970   6.464  0.5057  0.4083 -0.6474
  135OSM   H13A14605   6.480   3.066   6.485 -2.1794  1.2121  1.9326
  135OSM   H13B14606   6.515   2.897   6.474 -0.5013 -0.5420  0.8638
  135OSM   H13C14607   6.364   2.965   6.544  1.0734 -0.1727 -0.1609
  135OSM    C1214608   6.349   2.806   6.296  0.5161  0.0060 -0.2481
  135OSM   H12A14609   6.440   2.748   6.298 -0.5615 -1.9236 -2.4051
  135OSM   H12B14610   6.315   2.802   6.194  2.2723 -1.5277 -0.8316
  135OSM    C1114611   6.250   2.730   6.384  0.2612  0.4981 -0.7709
  135OSM   H11A14612   6.148   2.773   6.376 -0.8939 -2.2807 -1.9243
  135OSM   H11B14613   6.295   2.732   6.486 -0.9698  1.0969 -0.2144
  135OSM      P14614   6.370   2.500   6.339  0.4075 -0.0917 -0.1329
  135OSM    O1314615   6.303   2.371   6.328  0.1805 -0.8040 -0.3205
  135OSM    O1414616   6.468   2.540   6.241  0.3165 -0.0779  0.2127
  135OSM    O1114617   6.419   2.521   6.489 -0.3032 -0.0015  0.0335
  135OSM    O1214618   6.248   2.602   6.334 -0.5808  0.1875  0.2843
  135OSM    C1S14619   6.548   2.557   6.534 -0.3663  0.1449  0.9111
  135OSM    H1S14620   6.591   2.644   6.479  0.6906 -1.0700 -0.2924
  135OSM    H1T14621   6.610   2.472   6.496 -1.1415  0.3825 -1.0097
  135OSM     NF14622   6.686   2.612   6.736 -0.1000  0.4370  0.1143
  135OSM    HNF14623   6.747   2.543   6.775 -1.3828 -0.7302  0.1354
  135OSM    C2S14624   6.556   2.566   6.687 -0.4616  0.1108 -0.1262
  135OSM    H2S14625   6.470   2.635   6.703 -0.7126  0.3632 -2.2195
  135OSM    C3S14626   6.506   2.430   6.755 -0.2265 -0.4247  0.2974
  135OSM    H3S14627   6.584   2.360   6.719  0.1344  0.8407 -1.4953
  135OSM     O314628   6.380   2.381   6.706 -0.0042 -0.2798  0.2550
  135OSM    HO314629   6.367   2.410   6.615 -0.8406 -3.1665 -0.6523
  135OSM    C4S14630   6.511   2.440   6.899 -0.5516 -0.6026 -0.3142
  135OSM    H4S14631   6.606   2.400   6.937 -0.2005 -0.1137 -0.6603
  135OSM    C5S14632   6.432   2.504   6.991 -0.3749  0.3479 -0.1304
  135OSM    H5S14633   6.340   2.557   6.963 -1.0121  0.2288  1.6035
  135OSM    C6S14634   6.460   2.486   7.140  0.7579 -0.2088 -0.4867
  135OSM    H6S14635   6.522   2.395   7.154  0.8017 -0.7903 -3.8236
  135OSM    H6T14636   6.365   2.458   7.191  0.7619  0.3969 -0.1346
  135OSM    C7S14637   6.516   2.612   7.208  1.0531  0.9073  0.6251
  135OSM    H7S14638   6.437   2.689   7.206  0.0120 -0.1109  1.0399
  135OSM    H7T14639   6.610   2.644   7.159  2.2044 -0.9781  1.4506
  135OSM    C8S14640   6.546   2.585   7.356 -0.2644 -0.4485  0.0526
  135OSM    H8S14641   6.604   2.675   7.386  1.0635 -1.5566  0.8911
  135OSM    H8T14642   6.613   2.497   7.354  3.3128  2.0317 -2.6501
  135OSM    C9S14643   6.421   2.554   7.444  0.0435 -0.4132  1.0893
  135OSM    H9S14644   6.363   2.466   7.410 -1.2150  0.1469  1.7157
  135OSM    H9T14645   6.347   2.637   7.436  0.0825 -0.5243 -0.6020
  135OSM   C10S14646   6.445   2.546   7.598 -0.4765 -0.3843 -0.0509
  135OSM   H10S14647   6.493   2.449   7.621  0.0357  0.0732  0.8901
  135OSM   H10T14648   6.353   2.537   7.659  0.0265  0.3167  0.8467
  135OSM   C11S14649   6.535   2.657   7.657  0.2935 -0.0511 -0.0902
  135OSM   H11S14650   6.491   2.749   7.612 -1.1451  0.8228  2.8945
  135OSM   H11T14651   6.643   2.654   7.629  0.1591  1.6446 -0.9748
  135OSM   C12S14652   6.524   2.664   7.810 -0.8347  0.3235 -0.9389
  135OSM   H12S14653   6.417   2.674   7.837 -0.5240 -0.5777  0.7242
  135OSM   H12T14654   6.583   2.751   7.846  0.4375 -0.4307 -1.1398
  135OSM   C13S14655   6.583   2.549   7.895 -0.0202 -0.5490  0.3020
  135OSM   H13S14656   6.679   2.522   7.846 -0.5351 -1.0912 -0.4403
  135OSM   H13T14657   6.517   2.465   7.863 -1.3800  1.0116 -1.2262
  135OSM   C14S14658   6.593   2.583   8.038 -0.0200  0.0460 -0.0880
  135OSM   H14S14659   6.488   2.598   8.069  0.0317  0.2467 -0.0127
  135OSM   H14T14660   6.650   2.678   8.037 -2.3989  1.5350 -0.3885
  135OSM   C15S14661   6.658   2.472   8.120 -0.2970 -0.8757 -0.7029
  135OSM   H15S14662   6.768   2.480   8.111 -0.1717  0.3610  1.2432
  135OSM   H15T14663   6.635   2.366   8.093 -0.6422 -1.6052  2.1293
  135OSM   C16S14664   6.626   2.479   8.264 -0.2775 -0.0053  0.5619
  135OSM   H16S14665   6.704   2.417   8.312  0.9073 -1.0118 -2.4537
  135OSM   H16T14666   6.530   2.427   8.288  0.8650 -1.8884  1.2499
  135OSM   C17S14667   6.641   2.617   8.333 -0.2188  0.2968 -0.5389
  135OSM   H17S14668   6.554   2.681   8.308  1.4830  2.4051 -1.4230
  135OSM   H17T14669   6.731   2.674   8.300 -0.0923  1.8993  2.2731
  135OSM   C18S14670   6.654   2.614   8.486 -0.7423  0.9169 -0.1715
  135OSM   H18S14671   6.566   2.562   8.529  0.2415 -1.0598 -0.4583
  135OSM   H18T14672   6.670   2.716   8.528 -1.9612 -0.4106  3.9489
  135OSM   H18U14673   6.740   2.547   8.507 -0.4557  1.4119  0.2634
  135OSM    C1F14674   6.731   2.733   6.702  1.1970  0.5967  0.3485
  135OSM     OF14675   6.657   2.818   6.646 -0.4641 -0.3305  0.5876
  135OSM    C2F14676   6.869   2.766   6.739 -0.0011  0.0204 -0.6153
  135OSM    H2F14677   6.920   2.803   6.647 -1.3483 -0.1451 -1.4572
  135OSM    H2G14678   6.932   2.678   6.765  0.4904 -0.2660 -2.6127
  135OSM    C3F14679   6.877   2.887   6.838 -0.8126  0.2371 -0.0706
  135OSM    H3F14680   6.833   2.974   6.786  2.0780  1.2514 -1.0340
  135OSM    H3G14681   6.979   2.927   6.860 -0.0492 -0.7963 -1.5347
  135OSM    C4F14682   6.828   2.861   6.980 -0.5476 -0.5246  0.1463
  135OSM    H4F14683   6.894   2.786   7.027 -2.2995 -1.8208  0.6344
  135OSM    H4G14684   6.723   2.825   6.972 -0.9890  1.0520 -2.0856
  135OSM    C5F14685   6.828   2.994   7.054  0.0320 -0.3959 -0.6947
  135OSM    H5F14686   6.758   3.062   7.000  2.0511  1.7806 -0.7111
  135OSM    H5G14687   6.928   3.041   7.052 -0.0429 -0.2121 -2.8118
  135OSM    C6F14688   6.788   2.969   7.198 -0.3289  0.3184 -0.1671
  135OSM    H6F14689   6.699   2.902   7.201 -0.9315  1.0525 -0.9468
  135OSM    H6G14690   6.760   3.061   7.254 -1.1461  0.2365 -0.4204
  135OSM    C7F14691   6.910   2.901   7.278  0.4882 -0.4308 -0.3274
  135OSM    H7F14692   7.008   2.949   7.257  1.0856 -1.8957 -1.0294
  135OSM    H7G14693   6.922   2.801   7.230  1.0279 -0.4248 -0.2066
  135OSM    C8F14694   6.903   2.883   7.428 -0.4281  0.2867 -0.0376
  135OSM    H8F14695   7.001   2.844   7.461  0.7476  1.7948 -1.6140
  135OSM    H8G14696   6.822   2.808   7.444 -0.5742 -0.0023 -1.9050
  135OSM    C9F14697   6.868   3.016   7.497 -0.5304 -0.2319  0.8812
  135OSM    H9F14698   6.843   3.104   7.436 -0.9937  0.6343  2.2752
  135OSM   C10F14699   6.864   3.021   7.630  0.2859  0.2275 -0.5648
  135OSM   H10F14700   6.842   3.118   7.678  0.8900  1.2888 -2.3164
  135OSM   C11F14701   6.887   2.905   7.716 -0.2654  0.1649  0.5763
  135OSM   H11F14702   6.913   2.813   7.659  0.7097  1.1250 -0.5731
  135OSM   H11G14703   6.785   2.895   7.759 -1.7522 -1.6773 -2.9881
  135OSM   C12F14704   6.987   2.924   7.833 -0.5386  0.3203 -0.6084
  135OSM   H12F14705   7.071   2.984   7.792 -1.8672  2.4060 -0.4556
  135OSM   H12G14706   7.010   2.820   7.865 -0.3141  0.5998  0.1765
  135OSM   C13F14707   6.930   2.995   7.956 -0.5256  0.0936  0.0848
  135OSM   H13F14708   6.849   2.934   8.001  2.1894 -1.3241  3.4933
  135OSM   H13G14709   6.892   3.095   7.926 -3.0263 -0.6842  0.3915
  135OSM   C14F14710   7.040   3.009   8.061  0.3032  0.2162 -0.0452
  135OSM   H14F14711   7.076   2.904   8.073  0.3505  0.1743 -0.5393
  135OSM   H14G14712   6.986   3.035   8.154  0.8273 -0.8567  0.5840
  135OSM   C15F14713   7.151   3.102   8.013  0.4066 -0.2611  0.7148
  135OSM   H15F14714   7.110   3.189   7.957  0.8430 -0.5858 -0.1249
  135OSM   H15G14715   7.228   3.040   7.962 -0.1843 -0.9418  0.6334
  135OSM   C16F14716   7.226   3.160   8.134  0.7235  0.1713  0.1330
  135OSM   H16F14717   7.170   3.242   8.185  1.2043  0.9694 -0.5981
  135OSM   H16G14718   7.326   3.203   8.111  0.5068 -0.2060 -1.6023
  135OSM   C17F14719   7.264   3.053   8.236  0.1397 -0.1430 -0.0686
  135OSM   H17F14720   7.318   2.976   8.176 -1.0571 -1.7655  0.8381
  135OSM   H17G14721   7.170   3.002   8.265  0.0608 -0.6418 -1.1304
  135OSM   C18F14722   7.342   3.091   8.363  0.6840  0.1056  0.0312
  135OSM   H18F14723   7.355   2.993   8.413 -0.1456  0.3393  0.7346
  135OSM   H18G14724   7.294   3.158   8.437  0.5187  0.7991 -0.6886
  135OSM   H18H14725   7.434   3.148   8.343  1.1281 -0.5689  0.1157
  136OSM      N14726   4.238   0.463   5.846  0.2732  0.2896 -0.1327
  136OSM    C1514727   4.095   0.485   5.783  0.2023  0.3410  0.6168
  136OSM   H15A14728   4.037   0.402   5.820  1.5731 -0.2365  1.5599
  136OSM   H15B14729   4.100   0.469   5.676  1.3051 -0.1466  0.7255
  136OSM   H15C14730   4.049   0.578   5.815 -0.6828  0.3487 -0.6001
  136OSM    C1414731   4.301   0.332   5.804 -0.2020  0.0961  0.2641
  136OSM   H14A14732   4.253   0.259   5.868 -0.9009 -0.6550 -1.0715
  136OSM   H14B14733   4.405   0.311   5.824 -0.7545 -1.5309  1.7711
  136OSM   H14C14734   4.285   0.308   5.700  1.5099  1.8299 -0.4516
  136OSM    C1314735   4.327   0.564   5.778 -0.0376 -0.3770  0.4901
  136OSM   H13A14736   4.276   0.659   5.771 -1.5098 -1.1020  0.7539
  136OSM   H13B14737   4.347   0.540   5.674  0.9809 -1.1939  0.8630
  136OSM   H13C14738   4.423   0.579   5.825  0.5433  0.4746 -0.8939
  136OSM    C1214739   4.226   0.465   5.997 -0.2498 -0.3686 -0.6435
  136OSM   H12A14740   4.183   0.559   6.029  0.4176  0.0230 -0.8786
  136OSM   H12B14741   4.331   0.462   6.022  0.3463  0.1921 -2.9118
  136OSM    C1114742   4.162   0.349   6.069 -0.0065  0.0505  0.2206
  136OSM   H11A14743   4.073   0.321   6.009  0.3268  1.0635 -0.7789
  136OSM   H11B14744   4.113   0.374   6.166  1.1943  0.9912  0.6089
  136OSM      P14745   4.369   0.254   6.201  0.0910  0.2325 -0.0173
  136OSM    O1314746   4.366   0.133   6.293 -0.0592  0.1695  0.5666
  136OSM    O1414747   4.496   0.292   6.143  0.3143 -0.0304  0.2056
  136OSM    O1114748   4.332   0.385   6.283  0.4675  0.0589  0.2870
  136OSM    O1214749   4.257   0.243   6.080  0.5648  0.1516 -0.2432
  136OSM    C1S14750   4.302   0.397   6.426  0.5519 -0.4567  0.2951
  136OSM    H1S14751   4.260   0.306   6.473  0.1877  0.9335  2.8364
  136OSM    H1T14752   4.221   0.473   6.435  0.9876 -0.1544  2.1501
  136OSM     NF14753   4.365   0.448   6.648 -0.8020 -0.5730  0.8725
  136OSM    HNF14754   4.324   0.535   6.675 -0.9562  0.0718 -1.2057
  136OSM    C2S14755   4.419   0.441   6.515 -0.4117 -0.0586 -0.1341
  136OSM    H2S14756   4.499   0.364   6.515  0.6158  0.9607 -1.4803
  136OSM    C3S14757   4.474   0.581   6.464 -0.2757 -0.1678 -0.6178
  136OSM    H3S14758   4.396   0.658   6.484 -1.7043 -1.8006  0.3169
  136OSM     O314759   4.503   0.595   6.328 -0.0999 -0.5270  0.2320
  136OSM    HO314760   4.504   0.503   6.301  0.6012 -0.3788 -0.2742
  136OSM    C4S14761   4.597   0.616   6.547 -0.7902 -0.4582 -0.6509
  136OSM    H4S14762   4.583   0.678   6.637 -1.6401 -1.3181 -0.1705
  136OSM    C5S14763   4.728   0.581   6.525 -0.0859 -0.4233  0.7504
  136OSM    H5S14764   4.755   0.534   6.429 -0.9086  0.9936 -0.2084
  136OSM    C6S14765   4.840   0.614   6.613 -0.1079  0.4074  0.8757
  136OSM    H6S14766   4.825   0.695   6.687 -0.0357 -0.8843  2.3646
  136OSM    H6T14767   4.927   0.636   6.548 -0.1104 -0.4725  0.5561
  136OSM    C7S14768   4.893   0.483   6.684 -0.0770  0.2641  0.3343
  136OSM    H7S14769   4.992   0.487   6.733 -0.2019  2.3651  0.4884
  136OSM    H7T14770   4.910   0.410   6.602 -2.5641 -2.8329  2.3243
  136OSM    C8S14771   4.800   0.420   6.786 -0.0812  0.6079  0.2094
  136OSM    H8S14772   4.812   0.310   6.775  1.1536  0.8345 -0.9239
  136OSM    H8T14773   4.693   0.429   6.757 -0.4349 -2.2439  0.3378
  136OSM    C9S14774   4.826   0.464   6.931 -0.6331 -0.2147 -0.2859
  136OSM    H9S14775   4.803   0.573   6.932 -0.4256 -0.1518 -1.3985
  136OSM    H9T14776   4.934   0.453   6.953 -1.1743 -3.0035  1.5864
  136OSM   C10S14777   4.733   0.395   7.039 -0.1120 -0.4757  0.8630
  136OSM   H10S14778   4.715   0.289   7.010 -2.1813  0.5571 -2.1677
  136OSM   H10T14779   4.641   0.455   7.020  0.4620 -0.1933 -1.3118
  136OSM   C11S14780   4.776   0.406   7.182 -0.9076 -0.4501  0.4376
  136OSM   H11S14781   4.695   0.392   7.256 -3.0476 -1.7720 -1.9916
  136OSM   H11T14782   4.814   0.510   7.187 -1.2967 -0.2542 -0.4935
  136OSM   C12S14783   4.900   0.313   7.201 -0.2548 -0.1151  0.0029
  136OSM   H12S14784   4.945   0.291   7.102 -0.2852  3.0700 -0.8223
  136OSM   H12T14785   4.873   0.217   7.251 -0.3078  0.4927  1.1859
  136OSM   C13S14786   5.006   0.363   7.297  0.0111  0.1936 -0.2732
  136OSM   H13S14787   5.038   0.463   7.262  2.7361 -0.1429  1.0355
  136OSM   H13T14788   5.092   0.293   7.292  0.5057  0.8132 -0.5054
  136OSM   C14S14789   4.960   0.367   7.446  0.8425  0.3500 -0.1246
  136OSM   H14S14790   4.924   0.265   7.473 -1.8608  1.0790 -0.6231
  136OSM   H14T14791   4.875   0.437   7.467  0.1211 -0.7665  0.7954
  136OSM   C15S14792   5.063   0.396   7.562  0.7821  0.9315  0.9728
  136OSM   H15S14793   5.103   0.499   7.546 -0.2750  1.0519 -1.3744
  136OSM   H15T14794   5.143   0.320   7.555 -1.3538 -1.2793 -1.8118
  136OSM   C16S14795   5.012   0.384   7.703 -0.1097  0.2438 -0.6494
  136OSM   H16S14796   4.980   0.483   7.743 -0.9919 -0.2667 -0.0750
  136OSM   H16T14797   5.107   0.359   7.755  1.2847 -0.0459 -3.1673
  136OSM   C17S14798   4.895   0.285   7.730 -0.5469  0.4047 -0.3462
  136OSM   H17S14799   4.929   0.181   7.709 -2.0060 -0.2120  0.2416
  136OSM   H17T14800   4.810   0.289   7.659 -0.3425 -0.1201 -0.6267
  136OSM   C18S14801   4.855   0.288   7.879  0.6309 -0.0317  0.9502
  136OSM   H18S14802   4.789   0.204   7.910  0.8803 -0.1202  1.2442
  136OSM   H18T14803   4.795   0.380   7.898  0.3637 -0.1877  0.8650
  136OSM   H18U14804   4.946   0.293   7.942  1.0874 -0.2091  0.3092
  136OSM    C1F14805   4.359   0.347   6.731 -0.2501 -0.8938  0.2817
  136OSM     OF14806   4.367   0.229   6.692 -0.7309 -0.3088  0.7495
  136OSM    C2F14807   4.332   0.393   6.870 -0.6455  0.3012  1.2437
  136OSM    H2F14808   4.221   0.394   6.865 -0.5969 -0.0378 -2.0404
  136OSM    H2G14809   4.375   0.495   6.878  1.4285 -0.6089  2.6470
  136OSM    C3F14810   4.378   0.303   6.992  0.2850  0.0660  0.4293
  136OSM    H3F14811   4.488   0.285   6.985  0.2543 -0.4503  1.1955
  136OSM    H3G14812   4.328   0.205   6.977  0.0982  0.1934  0.2188
  136OSM    C4F14813   4.368   0.374   7.133  0.2339 -0.5499  0.3747
  136OSM    H4F14814   4.257   0.381   7.135  0.1096 -2.2833  0.9820
  136OSM    H4G14815   4.405   0.479   7.123 -0.7587  0.1235  3.0395
  136OSM    C5F14816   4.417   0.298   7.260  0.6930  0.7096  0.5973
  136OSM    H5F14817   4.516   0.256   7.232 -0.3726 -0.2000 -2.2113
  136OSM    H5G14818   4.355   0.206   7.265 -0.9029  1.7937  2.1323
  136OSM    C6F14819   4.416   0.366   7.403 -0.7734  0.6134  0.3633
  136OSM    H6F14820   4.310   0.383   7.430 -1.2483  1.7834 -2.0032
  136OSM    H6G14821   4.467   0.465   7.406  0.5317  0.0065 -0.4441
  136OSM    C7F14822   4.475   0.264   7.498  0.0651  0.0608  0.0266
  136OSM    H7F14823   4.580   0.244   7.467 -0.0447 -1.8677  0.7939
  136OSM    H7G14824   4.414   0.171   7.501 -1.1998  0.8925  0.7428
  136OSM    C8F14825   4.475   0.316   7.644  0.5811  0.8058  0.1452
  136OSM    H8F14826   4.498   0.425   7.644 -1.0545  1.2106 -1.8037
  136OSM    H8G14827   4.559   0.257   7.687  1.7906  2.1159 -0.3527
  136OSM    C9F14828   4.347   0.301   7.720 -0.5204  0.1842  0.1655
  136OSM    H9F14829   4.256   0.323   7.663 -1.9440 -0.0896  2.1958
  136OSM   C10F14830   4.338   0.268   7.850  0.2912 -0.4049 -0.6033
  136OSM   H10F14831   4.239   0.243   7.892  1.6317 -0.0571  3.1723
  136OSM   C11F14832   4.444   0.244   7.953  0.6493 -0.2108 -0.4662
  136OSM   H11F14833   4.478   0.337   8.004  1.1648  0.5688 -2.1431
  136OSM   H11G14834   4.533   0.200   7.902  0.7137  0.1369 -0.6601
  136OSM   C12F14835   4.406   0.142   8.061 -0.1106 -0.6878  0.1286
  136OSM   H12F14836   4.382   0.050   8.005  0.9683 -0.2328 -1.1459
  136OSM   H12G14837   4.324   0.175   8.128  2.3065 -0.6123  3.2953
  136OSM   C13F14838   4.531   0.110   8.146 -0.9843 -1.0606  0.4822
  136OSM   H13F14839   4.553   0.203   8.202  1.3431  0.1189 -2.1581
  136OSM   H13G14840   4.613   0.086   8.075 -1.3559  3.0325 -1.6091
  136OSM   C14F14841   4.500  -0.007   8.246  0.3785 -0.4549 -0.7010
  136OSM   H14F14842   4.485  -0.103   8.191 -0.2246  0.1436 -1.6217
  136OSM   H14G14843   4.403   0.018   8.295  0.1033 -2.0155 -0.3816
  136OSM   C15F14844   4.602  -0.018   8.356 -0.9243 -0.4454 -0.1372
  136OSM   H15F14845   4.583   0.062   8.430  2.0087 -1.6262  2.0773
  136OSM   H15G14846   4.706  -0.008   8.319 -1.3053  2.6403 -0.6073
  136OSM   C16F14847   4.579  -0.141   8.445  0.3898  0.2457 -1.0141
  136OSM   H16F14848   4.573  -0.236   8.387 -1.2256 -1.0069  1.0411
  136OSM   H16G14849   4.479  -0.120   8.488  0.3235  2.0359 -1.9546
  136OSM   C17F14850   4.675  -0.166   8.559 -0.2181  0.5077  0.3426
  136OSM   H17F14851   4.665  -0.080   8.628  0.2354 -0.5037  1.7094
  136OSM   H17G14852   4.778  -0.154   8.518  0.3525 -1.5919  1.0213
  136OSM   C18F14853   4.645  -0.301   8.620 -0.4397 -0.2315  0.0572
  136OSM   H18F14854   4.637  -0.377   8.540 -0.2865  0.9476 -1.1223
  136OSM   H18G14855   4.550  -0.307   8.678  0.5428 -0.3601  1.7348
  136OSM   H18H14856   4.724  -0.326   8.694 -1.4720  1.3187  1.7765
  137OSM      N14857   0.487   1.168   6.134  0.7143  0.0739 -0.2775
  137OSM    C1514858   0.530   1.026   6.126 -0.6087 -0.0219  0.6605
  137OSM   H15A14859   0.577   0.999   6.219 -1.9840  2.2547  2.1283
  137OSM   H15B14860   0.594   1.011   6.041 -2.0698  0.5718 -0.6028
  137OSM   H15C14861   0.442   0.965   6.109  1.1394 -1.8693 -2.8030
  137OSM    C1414862   0.612   1.253   6.143  0.0624 -0.2831 -0.1818
  137OSM   H14A14863   0.604   1.355   6.177  0.9492 -0.1908 -0.2115
  137OSM   H14B14864   0.663   1.249   6.048 -0.0180 -1.3104 -0.1908
  137OSM   H14C14865   0.680   1.200   6.208 -0.1767 -1.0958 -0.5822
  137OSM    C1314866   0.402   1.203   6.015  0.1353 -0.3456  0.3069
  137OSM   H13A14867   0.467   1.210   5.929  0.4099 -0.4787  0.5033
  137OSM   H13B14868   0.358   1.298   6.041  0.0381 -0.5327  0.8373
  137OSM   H13C14869   0.329   1.123   6.005 -0.6372  0.2888  0.7558
  137OSM    C1214870   0.398   1.189   6.258  0.1161 -0.2702  0.0266
  137OSM   H12A14871   0.304   1.143   6.235  0.6565 -1.2925 -0.2146
  137OSM   H12B14872   0.375   1.294   6.273 -2.7872 -1.2316  4.3927
  137OSM    C1114873   0.446   1.150   6.395  0.5804 -0.0082 -0.0936
  137OSM   H11A14874   0.374   1.164   6.478 -1.3105 -0.7045 -1.5344
  137OSM   H11B14875   0.536   1.211   6.418  1.7340 -1.0611 -1.6247
  137OSM      P14876   0.372   0.899   6.421  0.0272 -0.0261  0.0164
  137OSM    O1314877   0.240   0.937   6.363  0.2320 -0.0922 -0.8366
  137OSM    O1414878   0.411   0.759   6.393 -1.1095  0.7392 -0.8451
  137OSM    O1114879   0.355   0.911   6.577  0.2853  0.2121  0.3061
  137OSM    O1214880   0.482   1.012   6.397 -0.7462 -0.0490  0.1857
  137OSM    C1S14881   0.463   0.923   6.669  0.2327  0.1980  0.6311
  137OSM    H1S14882   0.530   1.001   6.627  0.3270  0.2060  0.7940
  137OSM    H1T14883   0.528   0.832   6.668 -0.0789 -0.0246 -0.6224
  137OSM     NF14884   0.521   0.991   6.900  0.0403 -0.2889  0.1302
  137OSM    HNF14885   0.511   0.937   6.983 -1.1649  1.1589  0.9585
  137OSM    C2S14886   0.409   0.973   6.810 -0.0771  0.5418  0.7446
  137OSM    H2S14887   0.360   1.072   6.801  0.2667  0.6372 -0.1740
  137OSM    C3S14888   0.301   0.874   6.870 -0.0483  1.0293 -0.2545
  137OSM    H3S14889   0.357   0.785   6.903 -0.8968 -0.4179 -2.5046
  137OSM     O314890   0.204   0.816   6.778 -0.6492 -0.1720  0.5661
  137OSM    HO314891   0.235   0.858   6.697 -0.0155  1.9435  1.8374
  137OSM    C4S14892   0.230   0.933   6.988 -0.0814  0.7204 -0.2643
  137OSM    H4S14893   0.277   0.921   7.087 -1.0654  1.3394  0.3006
  137OSM    C5S14894   0.113   0.997   6.984 -0.7173 -0.2856 -0.5530
  137OSM    H5S14895   0.066   1.018   6.887 -1.7309 -0.4051 -0.1010
  137OSM    C6S14896   0.039   1.051   7.109  0.5645 -0.7312 -0.2718
  137OSM    H6S14897  -0.070   1.033   7.098 -0.0503  1.9610  0.8284
  137OSM    H6T14898   0.046   1.162   7.106  1.0180 -0.7652 -1.8509
  137OSM    C7S14899   0.085   1.006   7.250 -0.5783 -0.4353  0.8224
  137OSM    H7S14900   0.185   1.050   7.271  1.1366 -2.5363 -2.2004
  137OSM    H7T14901   0.116   0.900   7.240 -1.9306 -0.9891  2.1348
  137OSM    C8S14902  -0.027   1.014   7.355 -0.1930 -0.5134  0.1184
  137OSM    H8S14903  -0.110   0.959   7.306 -1.5787  1.6216 -0.0509
  137OSM    H8T14904  -0.054   1.122   7.352  0.7458 -0.2829 -2.9106
  137OSM    C9S14905   0.000   0.950   7.490 -0.1105  0.3564  0.0633
  137OSM    H9S14906   0.076   1.004   7.550 -0.6768  2.7852 -1.2781
  137OSM    H9T14907   0.038   0.846   7.475 -0.3078  0.7247 -3.9423
  137OSM   C10S14908  -0.137   0.922   7.566 -0.0988 -0.3349 -0.2486
  137OSM   H10S14909  -0.193   0.847   7.507  1.6937 -1.5445 -0.4990
  137OSM   H10T14910  -0.193   1.017   7.577 -0.5646 -0.4021 -1.7900
  137OSM   C11S14911  -0.097   0.864   7.703 -0.0719 -0.1689  0.0238
  137OSM   H11S14912  -0.042   0.945   7.757  2.0239 -1.8633  0.5844
  137OSM   H11T14913  -0.032   0.774   7.695 -0.4029 -0.3722 -0.3851
  137OSM   C12S14914  -0.219   0.836   7.788  0.9001 -0.1567 -0.4127
  137OSM   H12S14915  -0.288   0.755   7.755 -0.8091  0.6457  0.9856
  137OSM   H12T14916  -0.277   0.931   7.794 -0.3912 -0.9277 -0.2087
  137OSM   C13S14917  -0.188   0.808   7.938 -0.6116  0.3600 -0.3961
  137OSM   H13S14918  -0.133   0.892   7.986 -0.0561  0.1057 -0.5841
  137OSM   H13T14919  -0.124   0.717   7.941 -1.7603 -0.4426  1.1915
  137OSM   C14S14920  -0.323   0.792   8.014 -0.1112 -0.1477 -0.0934
  137OSM   H14S14921  -0.381   0.704   7.980  0.3514 -0.1712 -0.8494
  137OSM   H14T14922  -0.373   0.889   7.993  1.2973  0.4019 -1.1043
  137OSM   C15S14923  -0.306   0.787   8.167  0.0544 -0.0340 -0.1951
  137OSM   H15S14924  -0.409   0.805   8.205  1.0168 -0.5896  2.9506
  137OSM   H15T14925  -0.236   0.861   8.212 -0.1831 -0.4530  0.8709
  137OSM   C16S14926  -0.273   0.645   8.221 -0.3415 -0.3385  0.6775
  137OSM   H16S14927  -0.178   0.609   8.176 -0.6093  0.4384 -0.5496
  137OSM   H16T14928  -0.359   0.582   8.190  0.2655 -2.2287  2.5781
  137OSM   C17S14929  -0.268   0.647   8.371 -0.9373  0.3518 -0.0522
  137OSM   H17S14930  -0.222   0.742   8.405  1.5212 -0.8161  0.1266
  137OSM   H17T14931  -0.196   0.573   8.412 -0.2913  1.8348  1.6065
  137OSM   C18S14932  -0.409   0.643   8.439 -0.0325  0.2161 -0.1470
  137OSM   H18S14933  -0.483   0.568   8.405  0.5370 -1.7205  2.5217
  137OSM   H18T14934  -0.452   0.743   8.460  3.4015  1.9171 -0.4137
  137OSM   H18U14935  -0.390   0.605   8.542  3.5195 -3.2076 -1.7566
  137OSM    C1F14936   0.617   1.084   6.899 -0.0837  0.0765 -0.1215
  137OSM     OF14937   0.620   1.164   6.807  0.1332 -0.2252  0.5362
  137OSM    C2F14938   0.723   1.078   7.005  0.1657  0.4548  0.8937
  137OSM    H2F14939   0.742   0.972   7.030  1.5855 -0.1562 -2.2451
  137OSM    H2G14940   0.673   1.106   7.100 -2.1381 -0.8838  0.1380
  137OSM    C3F14941   0.852   1.149   6.986 -0.0093 -0.2969 -0.2045
  137OSM    H3F14942   0.833   1.257   6.972  0.3278 -0.3958 -1.6157
  137OSM    H3G14943   0.908   1.108   6.899 -2.3076  1.0860 -2.4755
  137OSM    C4F14944   0.948   1.134   7.115  0.5801  0.1874  0.1721
  137OSM    H4F14945   1.039   1.196   7.100  0.7347 -0.0753  0.0098
  137OSM    H4G14946   0.992   1.032   7.116  1.6021  0.5787 -1.0193
  137OSM    C5F14947   0.881   1.162   7.244  0.3103  0.0594  0.1206
  137OSM    H5F14948   0.798   1.089   7.254  1.2753 -1.1791 -0.7037
  137OSM    H5G14949   0.835   1.263   7.241 -0.6103 -0.3772 -1.7145
  137OSM    C6F14950   0.983   1.155   7.357  0.2145 -0.1556  0.7908
  137OSM    H6F14951   1.055   1.239   7.358 -0.6898  0.6414  0.6499
  137OSM    H6G14952   1.034   1.057   7.344 -3.2834 -1.8813 -1.5603
  137OSM    C7F14953   0.907   1.158   7.488 -0.3421  0.2208  0.1034
  137OSM    H7F14954   0.844   1.068   7.476  0.1824 -0.0584 -0.5767
  137OSM    H7G14955   0.838   1.245   7.491 -1.5188 -0.6386 -1.2046
  137OSM    C8F14956   1.008   1.145   7.610  0.5411 -0.0148  0.3909
  137OSM    H8F14957   1.050   1.247   7.618 -0.2988  0.4211 -0.4382
  137OSM    H8G14958   1.082   1.065   7.590 -0.0195 -0.3352 -0.4829
  137OSM    C9F14959   0.925   1.097   7.725 -0.0779 -0.1754  0.0378
  137OSM    H9F14960   0.837   1.040   7.690 -0.7361  0.5183  0.5615
  137OSM   C10F14961   0.937   1.127   7.852 -0.0160  0.7278  0.5077
  137OSM   H10F14962   0.876   1.075   7.927  0.9960  2.2117  2.4528
  137OSM   C11F14963   1.032   1.224   7.916 -0.3321 -0.2744 -0.3740
  137OSM   H11F14964   1.041   1.314   7.852  1.1190 -1.6556 -2.2262
  137OSM   H11G14965   1.132   1.177   7.924 -0.5652 -0.9763 -1.4084
  137OSM   C12F14966   0.990   1.279   8.060 -0.4840 -0.1487  0.6212
  137OSM   H12F14967   0.992   1.185   8.121 -2.5504 -0.9639 -0.4699
  137OSM   H12G14968   0.887   1.318   8.066 -0.7152 -0.6330 -0.0763
  137OSM   C13F14969   1.080   1.385   8.109  0.3335  0.1022  0.4868
  137OSM   H13F14970   1.069   1.470   8.037 -1.8764  1.2149  2.0243
  137OSM   H13G14971   1.187   1.354   8.112 -0.1936 -1.7460  3.0517
  137OSM   C14F14972   1.052   1.417   8.252  0.2500 -0.2682  0.4325
  137OSM   H14F14973   0.943   1.435   8.265  0.3569  2.0391 -1.1695
  137OSM   H14G14974   1.106   1.510   8.280 -1.8602  1.2611 -0.2680
  137OSM   C15F14975   1.099   1.316   8.356  0.0685  0.3182  0.6832
  137OSM   H15F14976   1.084   1.214   8.316  1.0144  0.6025 -0.4538
  137OSM   H15G14977   1.036   1.322   8.448 -2.3182 -0.3423 -0.8096
  137OSM   C16F14978   1.251   1.323   8.392  0.4467 -0.2523  0.6051
  137OSM   H16F14979   1.271   1.411   8.456  1.4915 -0.0409  0.0047
  137OSM   H16G14980   1.317   1.327   8.303 -2.9902  2.9090 -2.1510
  137OSM   C17F14981   1.296   1.200   8.494 -0.6901  0.3191  0.9774
  137OSM   H17F14982   1.239   1.208   8.589 -0.7426 -0.2411  0.9931
  137OSM   H17G14983   1.404   1.209   8.517 -0.7887  0.6068  1.3385
  137OSM   C18F14984   1.286   1.056   8.433  0.2471  0.4381  0.2597
  137OSM   H18F14985   1.179   1.026   8.428  0.0033  1.2997  0.0691
  137OSM   H18G14986   1.340   0.973   8.483 -0.4650 -0.0784  0.1823
  137OSM   H18H14987   1.312   1.045   8.326 -0.3580 -1.9990  0.3178
  138OSM      N14988   3.280   2.230   5.823 -0.2122 -0.2174 -0.1209
  138OSM    C1514989   3.229   2.122   5.733  0.2059  0.3086 -0.8599
  138OSM   H15A14990   3.122   2.135   5.721  0.2638  0.6665 -1.0025
  138OSM   H15B14991   3.244   2.022   5.770  0.8942 -0.1932 -2.4201
  138OSM   H15C14992   3.282   2.119   5.639  1.2938  1.4546 -0.3086
  138OSM    C1414993   3.425   2.231   5.846 -0.0005  1.0578  0.3932
  138OSM   H14A14994   3.465   2.139   5.887  2.2583  1.5555 -0.5384
  138OSM   H14B14995   3.449   2.319   5.903  0.1840  1.5924 -0.4961
  138OSM   H14C14996   3.471   2.239   5.749  1.2380  0.1601  0.8788
  138OSM    C1314997   3.239   2.355   5.752 -0.3741 -0.4261 -0.8020
  138OSM   H13A14998   3.224   2.440   5.816  0.6875 -0.0637 -1.0173
  138OSM   H13B14999   3.152   2.346   5.689 -0.0114 -1.3202 -1.2040
  138OSM   H13C15000   3.319   2.381   5.684  1.7712 -1.4375  1.1506
  138OSM    C1215001   3.220   2.224   5.962  0.2094 -0.0640  0.3113
  138OSM   H12A15002   3.239   2.124   5.998 -0.7294 -0.7593 -1.0128
  138OSM   H12B15003   3.113   2.240   5.956  0.4423  1.1156 -1.2511
  138OSM    C1115004   3.275   2.325   6.064  0.4287 -0.2639  0.1562
  138OSM   H11A15005   3.372   2.279   6.093 -0.1600 -2.2880 -0.8920
  138OSM   H11B15006   3.221   2.309   6.159  0.6467 -0.4662  0.2487
  138OSM      P15007   3.384   2.559   6.083 -0.2832  0.0490 -0.2537
  138OSM    O1315008   3.525   2.503   6.075 -0.0005  0.6318 -0.3218
  138OSM    O1415009   3.371   2.681   6.011  0.0000 -0.1464 -0.1469
  138OSM    O1115010   3.336   2.578   6.231 -0.3591 -0.2996  0.1163
  138OSM    O1215011   3.278   2.465   6.017  0.2668 -0.3397  0.1974
  138OSM    C1S15012   3.209   2.615   6.267  0.2749  0.1759 -1.0625
  138OSM    H1S15013   3.138   2.539   6.227 -1.4596  1.7267 -1.0570
  138OSM    H1T15014   3.180   2.713   6.224  0.2743  1.5275  1.7456
  138OSM     NF15015   3.046   2.627   6.440 -0.7909  0.3235  0.3954
  138OSM    HNF15016   3.000   2.712   6.414 -0.8714 -0.4077 -2.0844
  138OSM    C2S15017   3.187   2.624   6.423  0.5007 -0.4496 -0.1130
  138OSM    H2S15018   3.231   2.532   6.468  0.8308  1.0426  2.8566
  138OSM    C3S15019   3.266   2.741   6.489  0.2429  0.1578 -0.6062
  138OSM    H3S15020   3.238   2.831   6.431 -2.2619 -0.6582 -0.7934
  138OSM     O315021   3.410   2.731   6.492 -0.0399 -0.4209  0.1033
  138OSM    HO315022   3.422   2.652   6.439 -2.4206 -0.3390 -0.6843
  138OSM    C4S15023   3.212   2.759   6.631  0.3494  0.3655  0.7054
  138OSM    H4S15024   3.157   2.853   6.647  0.1856  0.2754  0.6719
  138OSM    C5S15025   3.247   2.690   6.738  0.4554  0.1555 -0.1637
  138OSM    H5S15026   3.318   2.606   6.733 -0.9524 -1.1424  0.9656
  138OSM    C6S15027   3.193   2.724   6.871  0.2587  0.0182  0.0281
  138OSM    H6S15028   3.084   2.732   6.854  0.4449 -0.3381 -1.4221
  138OSM    H6T15029   3.237   2.820   6.905 -2.5459  0.9534  1.2451
  138OSM    C7S15030   3.205   2.613   6.984 -0.0081 -0.1076  0.5053
  138OSM    H7S15031   3.313   2.585   6.987  0.3544  1.0817 -0.3256
  138OSM    H7T15032   3.151   2.523   6.948  1.0139 -0.0787 -1.2370
  138OSM    C8S15033   3.180   2.650   7.130 -0.3379  0.0540 -0.3625
  138OSM    H8S15034   3.226   2.747   7.159  1.4294 -0.8493 -0.0180
  138OSM    H8T15035   3.235   2.584   7.200  1.1898  2.3590  0.7285
  138OSM    C9S15036   3.029   2.624   7.163 -0.0582 -0.2188  0.2866
  138OSM    H9S15037   3.004   2.516   7.156  0.3507 -0.2924 -0.0725
  138OSM    H9T15038   2.979   2.682   7.082  1.2978 -0.0790 -0.4882
  138OSM   C10S15039   2.983   2.667   7.305  0.1875  0.8287 -0.1142
  138OSM   H10S15040   2.875   2.642   7.309  0.9782 -3.0833  2.1172
  138OSM   H10T15041   3.010   2.774   7.319  0.6966  0.6433  0.3625
  138OSM   C11S15042   3.061   2.595   7.428  0.7284 -0.2367  0.4700
  138OSM   H11S15043   3.171   2.612   7.432  0.5537  0.8451  1.2768
  138OSM   H11T15044   3.056   2.487   7.403  0.7797  0.2037 -1.6126
  138OSM   C12S15045   3.009   2.625   7.563  0.2092  0.1556  0.1768
  138OSM   H12S15046   3.014   2.528   7.617 -2.9187 -0.6885 -0.8592
  138OSM   H12T15047   2.909   2.673   7.571 -0.2777 -0.0649 -3.1922
  138OSM   C13S15048   3.094   2.721   7.641  0.1038 -0.0283 -1.2924
  138OSM   H13S15049   3.088   2.828   7.612  0.1435 -0.0597 -1.4195
  138OSM   H13T15050   3.197   2.682   7.628  0.6284 -0.1561  2.3243
  138OSM   C14S15051   3.074   2.705   7.793  0.0991 -0.0753  0.3865
  138OSM   H14S15052   3.059   2.597   7.816 -1.6755 -0.3583 -1.7571
  138OSM   H14T15053   2.981   2.749   7.834 -0.2907 -0.1613 -0.3878
  138OSM   C15S15054   3.193   2.765   7.876 -0.3612 -0.4431  0.5920
  138OSM   H15S15055   3.290   2.741   7.828  1.0064  1.3690  2.2463
  138OSM   H15T15056   3.196   2.722   7.978 -1.6815  0.1342  0.8976
  138OSM   C16S15057   3.171   2.922   7.886 -0.3185 -0.8624  0.1638
  138OSM   H16S15058   3.070   2.947   7.923  0.3159  0.5704  1.0252
  138OSM   H16T15059   3.189   2.977   7.791  1.2625 -0.8411  0.4350
  138OSM   C17S15060   3.267   2.973   7.993  0.4408 -0.1918  0.8953
  138OSM   H17S15061   3.368   2.968   7.948 -0.1274  0.0267 -0.4414
  138OSM   H17T15062   3.270   2.915   8.088 -1.1540 -0.2036  0.9552
  138OSM   C18S15063   3.240   3.114   8.030  0.6831  0.3121 -0.2611
  138OSM   H18S15064   3.257   3.186   7.947 -2.0947  2.8523  1.1584
  138OSM   H18T15065   3.284   3.157   8.123  1.2762 -1.1753  0.1835
  138OSM   H18U15066   3.132   3.126   8.052  0.5739  0.6746 -1.0018
  138OSM    C1F15067   2.989   2.503   6.456  0.4253  0.9843  1.1945
  138OSM     OF15068   3.061   2.401   6.438 -0.1818  0.4590  0.3134
  138OSM    C2F15069   2.840   2.492   6.490 -0.0729  0.4912  0.3075
  138OSM    H2F15070   2.779   2.457   6.404 -2.4742  0.8912  1.7609
  138OSM    H2G15071   2.808   2.592   6.526 -0.8094  0.4653 -0.2495
  138OSM    C3F15072   2.808   2.392   6.600  0.1166 -0.0743  1.1078
  138OSM    H3F15073   2.861   2.296   6.579 -0.0906 -0.0392  0.3757
  138OSM    H3G15074   2.700   2.367   6.602 -0.1730  0.8370 -0.7018
  138OSM    C4F15075   2.864   2.439   6.732  0.1519 -1.1438  0.4700
  138OSM    H4F15076   2.970   2.470   6.719 -0.1267  0.1605  1.1265
  138OSM    H4G15077   2.866   2.351   6.799 -1.8387 -0.9389  0.8663
  138OSM    C5F15078   2.780   2.544   6.804 -0.0452 -0.0722  0.1467
  138OSM    H5F15079   2.771   2.628   6.733 -1.2724  1.4998  2.0517
  138OSM    H5G15080   2.842   2.577   6.891 -0.1498 -1.4510  0.7782
  138OSM    C6F15081   2.636   2.506   6.855 -0.7739 -0.8222  0.2427
  138OSM    H6F15082   2.564   2.493   6.771  1.3390 -2.8296 -1.3545
  138OSM    H6G15083   2.604   2.595   6.914 -0.3563 -0.4355 -0.1112
  138OSM    C7F15084   2.630   2.399   6.962 -0.6017 -0.1465  0.6757
  138OSM    H7F15085   2.649   2.301   6.914 -1.1102  0.8484 -1.7052
  138OSM    H7G15086   2.529   2.391   7.008 -0.9632 -2.2185 -0.3755
  138OSM    C8F15087   2.721   2.424   7.081 -0.2395  0.1066  0.5566
  138OSM    H8F15088   2.706   2.526   7.123  1.3603  1.1975 -1.3297
  138OSM    H8G15089   2.825   2.433   7.041  0.5169 -3.8089  1.2957
  138OSM    C9F15090   2.720   2.317   7.187 -0.2510  0.4922  0.8462
  138OSM    H9F15091   2.764   2.217   7.173 -1.1616  0.0236  1.1701
  138OSM   C10F15092   2.683   2.332   7.314 -0.1558 -0.5730  0.2618
  138OSM   H10F15093   2.688   2.250   7.386  1.1112  0.7709  1.7770
  138OSM   C11F15094   2.631   2.466   7.366 -0.2105 -0.0513 -0.5574
  138OSM   H11F15095   2.521   2.451   7.373  0.0351 -1.5811  0.8356
  138OSM   H11G15096   2.651   2.555   7.303  0.9423 -0.5285 -0.8863
  138OSM   C12F15097   2.694   2.496   7.505  0.4547  0.5307 -0.1167
  138OSM   H12F15098   2.677   2.596   7.550  3.8740  0.5321  1.5149
  138OSM   H12G15099   2.804   2.493   7.490  0.5624  1.0317  0.5171
  138OSM   C13F15100   2.635   2.403   7.620  0.3632  0.2512  0.4275
  138OSM   H13F15101   2.638   2.297   7.586 -0.3524 -0.1098  1.4486
  138OSM   H13G15102   2.530   2.427   7.645  0.5606 -1.2364  3.0402
  138OSM   C14F15103   2.720   2.411   7.753 -0.5293 -0.8489  0.6998
  138OSM   H14F15104   2.817   2.455   7.723 -2.4192  2.8365 -0.6711
  138OSM   H14G15105   2.730   2.309   7.797 -2.5393 -2.1656 -1.6130
  138OSM   C15F15106   2.663   2.510   7.854 -0.7073  1.0503  0.0460
  138OSM   H15F15107   2.568   2.470   7.893  0.0952 -0.1275  0.8610
  138OSM   H15G15108   2.645   2.606   7.800 -3.2786 -0.3441 -1.7929
  138OSM   C16F15109   2.759   2.534   7.976 -0.8443  0.2490 -0.0848
  138OSM   H16F15110   2.734   2.627   8.031 -1.6432 -0.7217  1.2250
  138OSM   H16G15111   2.863   2.554   7.942 -0.4547 -0.2036  0.8242
  138OSM   C17F15112   2.780   2.412   8.075 -0.1856  0.0687  0.0177
  138OSM   H17F15113   2.824   2.324   8.024  0.0019 -0.1052  0.4708
  138OSM   H17G15114   2.676   2.379   8.097 -0.7706  0.4480 -2.0428
  138OSM   C18F15115   2.853   2.452   8.201  0.0731  0.4580  1.0246
  138OSM   H18F15116   2.956   2.484   8.173 -1.0018  1.5034 -2.2022
  138OSM   H18G15117   2.862   2.375   8.280  1.4711  1.5160  1.9678
  138OSM   H18H15118   2.808   2.541   8.251  0.5311  0.2415  1.8459
  139OSM      N15119   2.180   1.928   6.174  0.3613 -0.4836 -0.3044
  139OSM    C1515120   2.178   1.795   6.236  0.2321  0.1723 -0.4344
  139OSM   H15A15121   2.272   1.782   6.288 -0.1564 -0.3845  0.1411
  139OSM   H15B15122   2.165   1.719   6.160 -0.4605 -1.6651  1.4377
  139OSM   H15C15123   2.093   1.787   6.302  0.7458  1.9530  0.5137
  139OSM    C1415124   2.052   1.941   6.098 -0.2326 -0.3388 -0.3938
  139OSM   H14A15125   2.051   2.040   6.053  1.6912 -0.5063 -0.8538
  139OSM   H14B15126   1.960   1.931   6.155  0.0084 -0.3461 -0.0047
  139OSM   H14C15127   2.045   1.864   6.023  2.5685 -0.6895 -0.3781
  139OSM    C1315128   2.187   2.028   6.283  0.2474  0.8683 -0.3679
  139OSM   H13A15129   2.100   2.020   6.346 -0.9714  2.6585 -1.7517
  139OSM   H13B15130   2.198   2.130   6.251  1.6468  1.3459  1.4469
  139OSM   H13C15131   2.279   1.997   6.332 -0.3783 -0.7054 -0.1249
  139OSM    C1215132   2.295   1.941   6.079  0.0683 -0.0463 -0.0410
  139OSM   H12A15133   2.280   2.035   6.026  2.7999 -0.8172 -2.4576
  139OSM   H12B15134   2.281   1.863   6.006  0.0475  0.7409 -0.8982
  139OSM    C1115135   2.439   1.951   6.134  0.0035 -0.0527 -0.2269
  139OSM   H11A15136   2.439   2.048   6.189 -0.0264  0.1627 -0.6037
  139OSM   H11B15137   2.501   1.963   6.043 -0.8858  1.4282 -0.6758
  139OSM      P15138   2.620   1.832   6.268  0.1058  0.1538 -0.1267
  139OSM    O1315139   2.662   1.690   6.242 -0.3277  0.3973  0.2571
  139OSM    O1415140   2.711   1.938   6.223 -0.2024 -0.5183  1.1306
  139OSM    O1115141   2.602   1.844   6.420  0.1894 -0.3601 -0.3040
  139OSM    O1215142   2.471   1.844   6.217 -0.2381  0.1992  0.0224
  139OSM    C1S15143   2.517   1.749   6.492 -0.2843  0.3170  0.0976
  139OSM    H1S15144   2.574   1.654   6.503 -0.9736  0.0370  1.4170
  139OSM    H1T15145   2.420   1.720   6.445 -0.2876 -0.5949  0.6427
  139OSM     NF15146   2.377   1.713   6.690 -0.2691  0.1578 -0.3125
  139OSM    HNF15147   2.282   1.744   6.688  0.1030  1.3471 -0.5942
  139OSM    C2S15148   2.467   1.809   6.623  0.3627  0.7253 -0.2811
  139OSM    H2S15149   2.558   1.822   6.686  0.2727 -0.1381  0.0423
  139OSM    C3S15150   2.399   1.951   6.604 -0.1420 -0.4780 -0.3743
  139OSM    H3S15151   2.308   1.943   6.541 -0.0009  3.4780 -1.2954
  139OSM     O315152   2.483   2.050   6.538  0.3479 -0.4289 -0.0731
  139OSM    HO315153   2.529   2.004   6.468  3.5705  3.7929 -1.1287
  139OSM    C4S15154   2.337   2.011   6.732 -0.4121  0.1060  0.1940
  139OSM    H4S15155   2.239   1.967   6.756 -1.7386  0.8723 -3.1730
  139OSM    C5S15156   2.386   2.111   6.818  0.0847 -0.4457 -0.0836
  139OSM    H5S15157   2.483   2.162   6.806  1.7474 -3.2307  0.6412
  139OSM    C6S15158   2.311   2.161   6.935  0.1641 -0.0574 -0.1720
  139OSM    H6S15159   2.202   2.150   6.917  0.4338 -3.1994 -0.4204
  139OSM    H6T15160   2.334   2.269   6.942 -0.4916  0.2005 -1.7015
  139OSM    C7S15161   2.357   2.096   7.064  0.2709  0.2638  0.1925
  139OSM    H7S15162   2.467   2.110   7.068  0.4508 -1.1663  0.7922
  139OSM    H7T15163   2.349   1.986   7.046 -3.2437  0.5543 -0.8747
  139OSM    C8S15164   2.276   2.146   7.191 -0.3085 -0.3405  0.2498
  139OSM    H8S15165   2.171   2.109   7.183 -1.6809  2.9655  1.0173
  139OSM    H8T15166   2.263   2.256   7.181 -0.9110 -0.5649 -1.9027
  139OSM    C9S15167   2.341   2.096   7.325  0.2856 -0.0551  1.0425
  139OSM    H9S15168   2.446   2.131   7.310 -0.0347  0.6256  0.3171
  139OSM    H9T15169   2.342   1.986   7.308  1.6468  0.4437 -3.3913
  139OSM   C10S15170   2.266   2.153   7.437  0.2993  0.2996  0.1008
  139OSM   H10S15171   2.166   2.104   7.433 -0.1797  1.2943 -0.7766
  139OSM   H10T15172   2.251   2.262   7.421  1.4386  0.3918 -0.3758
  139OSM   C11S15173   2.340   2.131   7.569  0.2251 -0.1071 -0.6152
  139OSM   H11S15174   2.419   2.209   7.579 -1.0627  1.2436 -0.5568
  139OSM   H11T15175   2.381   2.028   7.580  1.0837  0.4646  2.7452
  139OSM   C12S15176   2.247   2.151   7.691 -0.7659 -0.3106 -0.2973
  139OSM   H12S15177   2.156   2.088   7.686 -0.3616 -1.0588  1.3608
  139OSM   H12T15178   2.221   2.259   7.690  0.5601  0.0274 -1.1654
  139OSM   C13S15179   2.308   2.120   7.834 -0.0069  1.0868  0.5854
  139OSM   H13S15180   2.356   2.021   7.824 -1.6092  0.5006 -2.7302
  139OSM   H13T15181   2.217   2.114   7.898 -1.9652 -1.5709 -2.1902
  139OSM   C14S15182   2.407   2.222   7.892 -0.5980 -0.2513 -0.2507
  139OSM   H14S15183   2.356   2.307   7.942  1.3086  1.0013 -0.3564
  139OSM   H14T15184   2.467   2.266   7.809  1.4501 -0.0349  1.2667
  139OSM   C15S15185   2.509   2.150   7.983  0.7153 -0.1319  0.2334
  139OSM   H15S15186   2.593   2.219   8.006 -0.0077  0.7794  0.2480
  139OSM   H15T15187   2.547   2.061   7.930  0.3335 -1.5825  2.2771
  139OSM   C16S15188   2.451   2.094   8.113 -0.1989 -0.4378 -0.3327
  139OSM   H16S15189   2.366   2.027   8.088 -0.7067 -0.0403  0.2690
  139OSM   H16T15190   2.417   2.180   8.176 -1.1230 -1.6250  0.8487
  139OSM   C17S15191   2.548   2.019   8.207  0.3672  0.3975  0.7240
  139OSM   H17S15192   2.612   2.092   8.261  2.8982  0.3483 -2.0224
  139OSM   H17T15193   2.616   1.956   8.147 -1.2107 -0.5125 -0.1671
  139OSM   C18S15194   2.479   1.933   8.309 -0.1604  0.0668  0.7305
  139OSM   H18S15195   2.549   1.878   8.375  1.9006  0.9857 -0.5881
  139OSM   H18T15196   2.405   1.866   8.260 -0.4065  1.6067 -1.1136
  139OSM   H18U15197   2.422   1.994   8.383  0.6916  0.4029  1.1228
  139OSM    C1F15198   2.415   1.599   6.742 -0.6885 -0.5709 -0.2802
  139OSM     OF15199   2.518   1.540   6.711  0.4850 -0.2153  0.1022
  139OSM    C2F15200   2.335   1.545   6.854 -1.0205 -0.0389 -0.3572
  139OSM    H2F15201   2.274   1.459   6.820  0.4062 -0.7658 -1.1640
  139OSM    H2G15202   2.267   1.622   6.896  1.6948  1.0095  2.5736
  139OSM    C3F15203   2.427   1.503   6.973 -0.7275  0.9393 -0.1189
  139OSM    H3F15204   2.481   1.587   7.022 -0.2005 -0.0955  1.1109
  139OSM    H3G15205   2.496   1.422   6.942 -1.2337 -0.2557  1.7420
  139OSM    C4F15206   2.346   1.423   7.076  0.0038 -0.2602  0.0246
  139OSM    H4F15207   2.299   1.337   7.022 -1.7242 -0.9669  2.5049
  139OSM    H4G15208   2.271   1.495   7.114  1.8572  0.8981  1.6710
  139OSM    C5F15209   2.432   1.379   7.189 -0.0585 -0.4686 -0.3984
  139OSM    H5F15210   2.493   1.462   7.229 -0.7725 -0.7649  1.4058
  139OSM    H5G15211   2.513   1.314   7.151  0.7489 -0.5844  1.4091
  139OSM    C6F15212   2.349   1.299   7.293 -0.8914  0.3796  0.2020
  139OSM    H6F15213   2.326   1.197   7.256  1.0329  0.0244 -0.1330
  139OSM    H6G15214   2.258   1.360   7.311 -0.9343  0.4297 -0.1765
  139OSM    C7F15215   2.422   1.305   7.426  0.6531 -0.0738 -0.0838
  139OSM    H7F15216   2.370   1.228   7.487  1.0703 -0.0569  0.2989
  139OSM    H7G15217   2.429   1.404   7.475 -2.1647 -1.2185  3.0313
  139OSM    C8F15218   2.574   1.257   7.422  0.1699 -0.2262  0.0508
  139OSM    H8F15219   2.622   1.339   7.364 -2.6976  1.8148  0.3182
  139OSM    H8G15220   2.599   1.162   7.369 -0.8218 -1.0227  0.9781
  139OSM    C9F15221   2.635   1.253   7.558 -0.8489 -0.1383 -0.1434
  139OSM    H9F15222   2.708   1.331   7.584 -0.4228 -0.7954  0.6788
  139OSM   C10F15223   2.609   1.183   7.667  0.6500 -0.4012 -0.1185
  139OSM   H10F15224   2.680   1.195   7.750  3.5848 -1.2061 -2.3571
  139OSM   C11F15225   2.507   1.071   7.686  0.6081 -0.7213  0.3565
  139OSM   H11F15226   2.560   0.974   7.682  0.0900 -0.9690 -0.9238
  139OSM   H11G15227   2.429   1.071   7.607 -2.9389 -1.0967  3.5163
  139OSM   C12F15228   2.438   1.082   7.821 -0.0019 -0.6604 -0.0088
  139OSM   H12F15229   2.347   1.018   7.817  0.3114 -1.0634 -1.0289
  139OSM   H12G15230   2.398   1.182   7.848  2.7445  0.3289  0.6961
  139OSM   C13F15231   2.523   1.045   7.937  0.4457  0.1727 -0.0541
  139OSM   H13F15232   2.463   1.058   8.030  0.5032  1.3023 -0.1626
  139OSM   H13G15233   2.615   1.107   7.937  1.0107 -0.6290 -1.3658
  139OSM   C14F15234   2.589   0.908   7.929 -0.5618  0.0854  0.5475
  139OSM   H14F15235   2.668   0.910   7.852 -0.6682  3.1178  0.4262
  139OSM   H14G15236   2.505   0.845   7.892  0.1350 -0.4452 -0.1738
  139OSM   C15F15237   2.638   0.854   8.062  0.0814  0.7233 -0.0312
  139OSM   H15F15238   2.666   0.747   8.047  0.1459  0.4284  1.9893
  139OSM   H15G15239   2.551   0.858   8.130 -0.3209 -2.3849 -0.2188
  139OSM   C16F15240   2.744   0.936   8.121 -0.1496  0.9480 -1.0752
  139OSM   H16F15241   2.695   1.021   8.173  1.2506  0.5317  1.0498
  139OSM   H16G15242   2.812   0.971   8.041  0.8557 -4.5830 -3.1094
  139OSM   C17F15243   2.835   0.846   8.210  0.5205 -0.0042  0.7333
  139OSM   H17F15244   2.941   0.863   8.180  0.4959 -1.5930 -0.3476
  139OSM   H17G15245   2.830   0.735   8.204  1.1889  0.0467 -1.7929
  139OSM   C18F15246   2.809   0.866   8.363  0.2519  0.5318  0.2859
  139OSM   H18F15247   2.862   0.784   8.416 -1.3211  1.3641  3.3771
  139OSM   H18G15248   2.701   0.851   8.379  0.1974 -3.6116 -2.3402
  139OSM   H18H15249   2.840   0.966   8.400  1.7797  0.6247 -1.1067
  140OSM      N15250   0.417   5.009   6.330 -0.0601 -0.2409 -0.1630
  140OSM    C1515251   0.276   4.992   6.380 -0.4682  0.3511  0.1003
  140OSM   H15A15252   0.216   5.076   6.346 -0.9284  0.8511  2.0581
  140OSM   H15B15253   0.276   4.992   6.488  3.8626 -0.4983  0.2801
  140OSM   H15C15254   0.227   4.904   6.340 -0.2044 -0.5669  1.7403
  140OSM    C1415255   0.486   4.883   6.371  0.1073  0.2376  0.2306
  140OSM   H14A15256   0.587   4.879   6.331 -0.3556  0.0565 -0.9496
  140OSM   H14B15257   0.421   4.803   6.339  1.8100 -0.6802 -1.1396
  140OSM   H14C15258   0.489   4.890   6.479  0.3378 -1.2265  0.3454
  140OSM    C1315259   0.422   5.020   6.180  0.3486 -0.0152 -0.2611
  140OSM   H13A15260   0.354   5.096   6.143  0.9725  0.8944  0.4056
  140OSM   H13B15261   0.389   4.932   6.127 -1.4505  0.0185  0.7455
  140OSM   H13C15262   0.518   5.063   6.153  0.1634 -0.5012 -1.7999
  140OSM    C1215263   0.479   5.134   6.395  0.0559 -0.2517  0.2246
  140OSM   H12A15264   0.421   5.219   6.361  1.4318 -0.3908 -2.8468
  140OSM   H12B15265   0.574   5.149   6.345 -1.0679  2.7312 -1.2389
  140OSM    C1115266   0.513   5.143   6.541  0.1727  0.1160 -0.0339
  140OSM   H11A15267   0.422   5.118   6.599  1.2744  0.1871  1.8383
  140OSM   H11B15268   0.519   5.252   6.562 -2.0848  0.4093 -0.6193
  140OSM      P15269   0.771   5.107   6.551  0.3273  0.2801  0.1344
  140OSM    O1315270   0.858   5.022   6.636  0.8698 -0.7237  0.0843
  140OSM    O1415271   0.802   5.113   6.408  0.0181  0.1031  0.6690
  140OSM    O1115272   0.781   5.259   6.592  0.8338 -0.4555  0.4414
  140OSM    O1215273   0.623   5.063   6.578  0.1183 -0.3985 -0.1185
  140OSM    C1S15274   0.733   5.315   6.719  0.4262  0.3114  0.0187
  140OSM    H1S15275   0.709   5.244   6.800 -1.5718  1.9467  0.9707
  140OSM    H1T15276   0.645   5.380   6.697  0.0777 -0.0462  0.3415
  140OSM     NF15277   0.796   5.437   6.933  0.1491  0.4531 -0.0951
  140OSM    HNF15278   0.767   5.528   6.964  0.5739  0.8298 -0.7917
  140OSM    C2S15279   0.835   5.404   6.794 -0.6151 -0.0956  0.4653
  140OSM    H2S15280   0.931   5.348   6.792 -0.7049 -0.2441  0.2349
  140OSM    C3S15281   0.869   5.533   6.715 -0.3150 -0.2083 -0.1039
  140OSM    H3S15282   0.784   5.605   6.714  1.0881  1.5173 -0.5966
  140OSM     O315283   0.906   5.515   6.577  0.3663  0.4418 -0.1947
  140OSM    HO315284   0.891   5.422   6.559  1.8315 -0.0082  0.7481
  140OSM    C4S15285   0.981   5.604   6.790 -0.1408 -0.4387 -0.0396
  140OSM    H4S15286   1.070   5.544   6.813 -1.0166 -1.0192  2.0838
  140OSM    C5S15287   0.979   5.719   6.847  0.6099 -0.3421 -0.1387
  140OSM    H5S15288   0.884   5.773   6.859  0.2875 -1.0966  0.7977
  140OSM    C6S15289   1.090   5.779   6.927  0.3338  0.0736  0.7733
  140OSM    H6S15290   1.114   5.877   6.879 -1.4555  0.2477  0.1617
  140OSM    H6T15291   1.177   5.710   6.925  0.1915 -0.0968  0.1100
  140OSM    C7S15292   1.057   5.798   7.076  0.3589 -0.1423 -0.8880
  140OSM    H7S15293   1.146   5.841   7.126 -0.4046 -1.8449  2.2234
  140OSM    H7T15294   1.038   5.709   7.140  0.7486  1.2640  1.2984
  140OSM    C8S15295   0.941   5.885   7.110  0.2765 -0.1347  1.0380
  140OSM    H8S15296   0.848   5.827   7.091  0.4404 -0.9282  2.4757
  140OSM    H8T15297   0.943   5.968   7.036 -0.3520 -1.6245 -0.7214
  140OSM    C9S15298   0.940   5.942   7.249  0.5786  0.0832  0.3444
  140OSM    H9S15299   0.843   5.994   7.263  0.4505 -0.2048  0.5348
  140OSM    H9T15300   1.014   6.026   7.254 -1.9428  2.4743 -0.1338
  140OSM   C10S15301   0.960   5.848   7.369  0.5228  1.1496 -0.0041
  140OSM   H10S15302   1.050   5.789   7.343  0.4936  1.3349 -0.5313
  140OSM   H10T15303   0.866   5.789   7.370  0.8247  0.6180 -1.4379
  140OSM   C11S15304   0.995   5.928   7.495  0.2079  0.3889 -0.5251
  140OSM   H11S15305   0.936   6.022   7.498 -2.8090 -1.3395 -0.4537
  140OSM   H11T15306   1.104   5.941   7.509  0.3046 -0.9282  0.1170
  140OSM   C12S15307   0.949   5.857   7.631 -0.0162 -0.3948  0.6222
  140OSM   H12S15308   1.009   5.763   7.631  0.3315 -0.1870 -0.9797
  140OSM   H12T15309   0.841   5.833   7.621  0.0229  0.2599 -2.2285
  140OSM   C13S15310   0.978   5.948   7.749 -0.0587 -0.1600  0.4093
  140OSM   H13S15311   0.936   6.049   7.731  0.7213  0.2751  0.9609
  140OSM   H13T15312   1.088   5.966   7.754  0.0617  0.8732 -2.9831
  140OSM   C14S15313   0.920   5.889   7.878 -0.1449 -0.0409 -0.2058
  140OSM   H14S15314   0.966   5.789   7.894 -0.3697 -0.2197 -0.6530
  140OSM   H14T15315   0.810   5.873   7.875 -0.0918 -0.9293  1.6296
  140OSM   C15S15316   0.961   5.983   7.997 -0.0993  0.2035  0.0789
  140OSM   H15S15317   0.915   6.083   7.978 -0.8814  0.1278  1.4183
  140OSM   H15T15318   1.070   6.003   7.997 -0.2040  0.7997  0.4998
  140OSM   C16S15319   0.925   5.922   8.143 -0.6735 -0.2855  0.5518
  140OSM   H16S15320   0.968   5.820   8.138 -0.1337 -0.0455  0.2017
  140OSM   H16T15321   0.814   5.913   8.141 -0.7084  0.3094 -0.5004
  140OSM   C17S15322   0.995   5.989   8.263 -0.3308 -0.5340  0.1713
  140OSM   H17S15323   0.983   6.099   8.254 -2.7406 -0.7686 -0.2729
  140OSM   H17T15324   1.098   5.949   8.256 -0.3991 -1.1248  1.9838
  140OSM   C18S15325   0.930   5.948   8.391 -0.6405  0.0061 -0.2259
  140OSM   H18S15326   0.910   5.839   8.397 -0.2921 -0.0285  0.3841
  140OSM   H18T15327   0.824   5.980   8.394 -0.0836  1.9604  0.2565
  140OSM   H18U15328   0.974   5.994   8.482 -1.9279 -2.3015  1.6607
  140OSM    C1F15329   0.812   5.344   7.031  0.2388 -0.2657 -0.1222
  140OSM     OF15330   0.876   5.241   7.016 -0.5768 -0.1595  0.0592
  140OSM    C2F15331   0.759   5.366   7.174  0.3669  0.3825  1.3012
  140OSM    H2F15332   0.846   5.377   7.243 -1.3629  1.0984  3.4745
  140OSM    H2G15333   0.705   5.276   7.207 -0.2223  1.1626  2.5299
  140OSM    C3F15334   0.686   5.502   7.191 -0.4066  0.8195  0.7746
  140OSM    H3F15335   0.599   5.500   7.122  1.1001 -2.2683 -1.2937
  140OSM    H3G15336   0.752   5.589   7.167 -1.3058  1.2619 -0.2042
  140OSM    C4F15337   0.646   5.502   7.338  0.1140 -0.4146 -0.3171
  140OSM    H4F15338   0.742   5.513   7.393 -0.9243  2.7430  1.0844
  140OSM    H4G15339   0.594   5.410   7.371  0.1156  0.5882  2.7778
  140OSM    C5F15340   0.571   5.633   7.373 -0.3002  0.1594  0.0120
  140OSM    H5F15341   0.477   5.637   7.313 -1.3421  0.8583  1.6316
  140OSM    H5G15342   0.640   5.716   7.346 -0.9086  0.1552 -1.6349
  140OSM    C6F15343   0.537   5.640   7.523 -0.6429  0.5283 -0.2220
  140OSM    H6F15344   0.523   5.747   7.552  0.1950  0.3513  0.8932
  140OSM    H6G15345   0.626   5.615   7.586 -0.6196  0.1588 -0.3989
  140OSM    C7F15346   0.417   5.545   7.555 -0.2144 -0.6473 -0.7612
  140OSM    H7F15347   0.443   5.443   7.520 -1.1692 -0.8704 -0.8404
  140OSM    H7G15348   0.331   5.581   7.494  0.4906  1.9489 -0.3730
  140OSM    C8F15349   0.358   5.535   7.701 -0.6935 -0.0966 -0.7211
  140OSM    H8F15350   0.278   5.458   7.708 -1.5766  0.8728  0.3646
  140OSM    H8G15351   0.310   5.631   7.731  1.3800  0.2435  1.9092
  140OSM    C9F15352   0.458   5.505   7.809 -0.0726 -0.2364 -0.5350
  140OSM    H9F15353   0.563   5.532   7.789  0.4038 -2.3307 -1.0921
  140OSM   C10F15354   0.435   5.493   7.940  0.8443  0.2820  0.3371
  140OSM   H10F15355   0.521   5.486   8.008  1.8100  0.2921 -0.8646
  140OSM   C11F15356   0.293   5.492   8.001 -0.1068 -0.8282  0.1933
  140OSM   H11F15357   0.222   5.509   7.917  2.3980  2.8479 -1.4503
  140OSM   H11G15358   0.273   5.582   8.063  1.4397 -0.1209 -0.2950
  140OSM   C12F15359   0.265   5.375   8.084 -0.0291 -0.0860 -0.2213
  140OSM   H12F15360   0.294   5.281   8.032 -0.4321  0.4686 -1.4914
  140OSM   H12G15361   0.157   5.379   8.107 -0.3713  1.5180 -1.8754
  140OSM   C13F15362   0.353   5.387   8.215  0.2089  0.2112  0.0555
  140OSM   H13F15363   0.363   5.487   8.262  0.6379 -0.3788  1.2353
  140OSM   H13G15364   0.451   5.353   8.177 -1.0061 -2.4263 -0.9973
  140OSM   C14F15365   0.315   5.277   8.324 -0.9510 -0.2693 -0.3123
  140OSM   H14F15366   0.299   5.174   8.285 -0.8287 -0.3342 -0.1878
  140OSM   H14G15367   0.213   5.300   8.361 -0.0499  0.5069  1.8328
  140OSM   C15F15368   0.426   5.286   8.437  0.5513  0.5599  0.0083
  140OSM   H15F15369   0.429   5.393   8.466  0.9330  0.5334  0.0608
  140OSM   H15G15370   0.523   5.247   8.399  0.4092 -0.9537  1.1016
  140OSM   C16F15371   0.399   5.204   8.566  0.0412  0.2204 -0.4570
  140OSM   H16F15372   0.305   5.241   8.613  1.3429  1.3908  1.3613
  140OSM   H16G15373   0.486   5.211   8.635  1.0279 -1.5291 -1.4559
  140OSM   C17F15374   0.382   5.048   8.545 -0.2833 -0.4349 -0.6312
  140OSM   H17F15375   0.302   5.037   8.469 -4.1006 -1.7949  3.1574
  140OSM   H17G15376   0.342   4.997   8.635  1.5230  0.5262  0.7771
  140OSM   C18F15377   0.518   4.979   8.511 -0.1205 -0.5601  0.2999
  140OSM   H18F15378   0.520   4.870   8.533  0.3266 -0.4994  0.5846
  140OSM   H18G15379   0.599   5.018   8.577  0.4186 -1.6781  0.3169
  140OSM   H18H15380   0.547   5.000   8.406 -0.0987 -1.6634  0.0753
  141OSM      N15381   1.159   1.750   5.929  0.9177  0.5715 -0.0620
  141OSM    C1515382   1.076   1.804   5.819 -0.5018  0.1411 -0.2068
  141OSM   H15A15383   1.103   1.907   5.801  0.0259  0.0832  0.2654
  141OSM   H15B15384   0.970   1.795   5.838 -1.5227  1.1218 -4.3740
  141OSM   H15C15385   1.084   1.748   5.727 -0.8111  1.6161 -1.1799
  141OSM    C1415386   1.147   1.603   5.944  0.5596 -0.0896  0.2093
  141OSM   H14A15387   1.101   1.585   6.040  1.6557  2.1854  1.2357
  141OSM   H14B15388   1.246   1.560   5.950  0.3959 -0.7304 -1.2239
  141OSM   H14C15389   1.091   1.565   5.860  1.6533  0.6580 -0.8832
  141OSM    C1315390   1.300   1.773   5.885 -0.6992 -0.7384 -0.1274
  141OSM   H13A15391   1.324   1.872   5.849 -0.4180 -0.7315  0.0704
  141OSM   H13B15392   1.325   1.701   5.808 -0.8552 -1.4327  0.4604
  141OSM   H13C15393   1.366   1.760   5.970  1.3162  1.2733 -1.2695
  141OSM    C1215394   1.137   1.827   6.061  0.4441 -0.3405 -0.5297
  141OSM   H12A15395   1.158   1.932   6.045  2.2825 -0.2632  1.7276
  141OSM   H12B15396   1.215   1.793   6.127  1.8913  2.1881 -0.8091
  141OSM    C1115397   1.003   1.824   6.132  1.1663  0.8264  0.2309
  141OSM   H11A15398   0.918   1.871   6.079 -1.7052  0.2271  3.8909
  141OSM   H11B15399   1.024   1.887   6.221  1.7671 -2.0286  2.2859
  141OSM      P15400   0.826   1.629   6.194 -0.4725 -0.3498  0.2504
  141OSM    O1315401   0.753   1.660   6.067 -0.3488  0.2399 -0.2368
  141OSM    O1415402   0.841   1.482   6.215 -0.1373 -0.2371 -0.2816
  141OSM    O1115403   0.762   1.699   6.320 -0.4557  0.3235 -0.7989
  141OSM    O1215404   0.967   1.693   6.177 -0.1933  0.2161 -0.3229
  141OSM    C1S15405   0.780   1.660   6.454 -0.4178  0.8007  0.2411
  141OSM    H1S15406   0.832   1.748   6.499 -1.4811  2.1095 -0.9938
  141OSM    H1T15407   0.855   1.583   6.481  0.4774  2.3331  2.4178
  141OSM     NF15408   0.694   1.621   6.678  0.0173  0.0659  0.8153
  141OSM    HNF15409   0.681   1.534   6.725  2.1231 -1.7336 -1.6635
  141OSM    C2S15410   0.650   1.634   6.539  0.5251  0.1897 -0.5650
  141OSM    H2S15411   0.584   1.724   6.534 -1.2478 -1.0490 -0.5420
  141OSM    C3S15412   0.572   1.510   6.491  0.6138  0.4594  0.2328
  141OSM    H3S15413   0.639   1.421   6.495  1.7449  1.2507 -0.5296
  141OSM     O315414   0.538   1.518   6.349  0.1927 -0.1887 -0.2359
  141OSM    HO315415   0.554   1.610   6.328  1.1930 -0.0160  1.1249
  141OSM    C4S15416   0.446   1.493   6.579 -0.0519  0.6365  0.1849
  141OSM    H4S15417   0.366   1.564   6.553 -0.6214  0.0968  0.4482
  141OSM    C5S15418   0.436   1.400   6.677 -0.4006 -0.4367  0.6578
  141OSM    H5S15419   0.514   1.324   6.689  0.8986  0.5278 -1.1403
  141OSM    C6S15420   0.315   1.390   6.761  0.0400 -0.4786 -0.2680
  141OSM    H6S15421   0.269   1.291   6.737 -0.1809 -0.8690  1.6390
  141OSM    H6T15422   0.242   1.467   6.728  0.1783 -0.4020 -0.3957
  141OSM    C7S15423   0.340   1.382   6.912  0.2558  0.3960  0.3254
  141OSM    H7S15424   0.378   1.481   6.947 -0.9469  1.7615 -1.9852
  141OSM    H7T15425   0.419   1.306   6.924  0.0959  0.2131  0.2224
  141OSM    C8S15426   0.231   1.330   6.999  0.9279  0.5773  0.0283
  141OSM    H8S15427   0.263   1.225   7.013 -1.4085 -0.4450 -1.5816
  141OSM    H8T15428   0.133   1.331   6.946  0.5432 -3.1341  0.3643
  141OSM    C9S15429   0.218   1.400   7.131 -0.4174 -0.4833  0.3724
  141OSM    H9S15430   0.122   1.369   7.177 -0.1766 -1.0179  0.5255
  141OSM    H9T15431   0.223   1.511   7.124 -0.0300 -0.4287  1.3781
  141OSM   C10S15432   0.327   1.347   7.228  0.5520  0.1547  0.2467
  141OSM   H10S15433   0.432   1.361   7.193  0.7137 -1.2518  0.0884
  141OSM   H10T15434   0.315   1.238   7.246 -0.4842  0.2388  0.1095
  141OSM   C11S15435   0.313   1.403   7.372 -0.3467  0.2848  0.1637
  141OSM   H11S15436   0.298   1.513   7.370 -0.6937  0.2380  0.0161
  141OSM   H11T15437   0.405   1.387   7.431 -0.5853 -0.2120  0.4065
  141OSM   C12S15438   0.201   1.348   7.464  0.3196  0.3950  0.2167
  141OSM   H12S15439   0.204   1.237   7.475 -2.2610  0.4123  1.6543
  141OSM   H12T15440   0.098   1.374   7.432  0.7477 -1.1241 -2.7965
  141OSM   C13S15441   0.219   1.393   7.617 -0.0692  0.2955 -0.2261
  141OSM   H13S15442   0.200   1.502   7.631  0.2427  0.1953  1.1438
  141OSM   H13T15443   0.322   1.378   7.656  1.5244  2.0925 -3.3656
  141OSM   C14S15444   0.130   1.311   7.710 -0.3730 -0.2928  0.4831
  141OSM   H14S15445   0.128   1.204   7.683 -3.3031 -0.3130  0.4136
  141OSM   H14T15446   0.026   1.340   7.685  0.3019  0.1959 -1.9599
  141OSM   C15S15447   0.166   1.327   7.861 -0.4935  0.2850  0.2969
  141OSM   H15S15448   0.147   1.432   7.891 -1.6294 -0.2363  1.5448
  141OSM   H15T15449   0.273   1.303   7.877 -0.8846 -1.7390  0.1823
  141OSM   C16S15450   0.080   1.229   7.949  0.4222 -0.1427 -0.4125
  141OSM   H16S15451   0.126   1.128   7.940  0.1357 -0.2980 -0.1461
  141OSM   H16T15452  -0.027   1.231   7.920 -0.6889 -1.3785  3.1114
  141OSM   C17S15453   0.089   1.260   8.097 -0.3116 -0.0166  0.4062
  141OSM   H17S15454   0.063   1.368   8.104  2.3928  0.6484  1.7940
  141OSM   H17T15455   0.194   1.246   8.131  0.2578  0.0107 -1.2358
  141OSM   C18S15456   0.002   1.172   8.190 -0.0486 -0.2523 -0.1451
  141OSM   H18S15457   0.033   1.160   8.295  0.6532  0.4304 -0.2733
  141OSM   H18T15458  -0.004   1.069   8.148  1.0070 -0.5776  0.4610
  141OSM   H18U15459  -0.097   1.219   8.206  1.1248  1.5921  2.1937
  141OSM    C1F15460   0.759   1.709   6.750  0.2699 -0.4626  0.5764
  141OSM     OF15461   0.768   1.826   6.718 -0.3281 -0.6188  0.1106
  141OSM    C2F15462   0.792   1.661   6.894  0.4251 -0.4955  0.3602
  141OSM    H2F15463   0.790   1.750   6.961  0.1279 -1.0012  1.0382
  141OSM    H2G15464   0.893   1.615   6.891  0.6603  0.0398 -1.9592
  141OSM    C3F15465   0.691   1.558   6.943 -1.4088  0.1478  0.2381
  141OSM    H3F15466   0.694   1.460   6.891  0.5089  0.8975 -1.1676
  141OSM    H3G15467   0.588   1.597   6.931 -2.4571 -1.4626  3.0908
  141OSM    C4F15468   0.717   1.520   7.091  0.0406 -0.2932  0.0442
  141OSM    H4F15469   0.815   1.474   7.112  0.2953  0.3870  0.3470
  141OSM    H4G15470   0.636   1.445   7.100 -1.3599  1.0658 -0.6283
  141OSM    C5F15471   0.698   1.634   7.189 -0.2821 -0.0619 -0.5599
  141OSM    H5F15472   0.624   1.706   7.147  0.0817  0.2638 -0.6510
  141OSM    H5G15473   0.797   1.682   7.202  0.1293 -0.9757 -0.2514
  141OSM    C6F15474   0.642   1.587   7.322  0.1958  0.7585  0.6061
  141OSM    H6F15475   0.685   1.488   7.349  1.9306  1.5150  0.7611
  141OSM    H6G15476   0.532   1.577   7.314  0.0943  1.1832  1.3283
  141OSM    C7F15477   0.685   1.686   7.430 -0.0246 -0.5343 -0.0991
  141OSM    H7F15478   0.628   1.777   7.404  0.6775 -0.7860 -2.7774
  141OSM    H7G15479   0.787   1.728   7.426 -0.4609  0.4393 -1.6062
  141OSM    C8F15480   0.647   1.640   7.574 -0.5284 -0.4455 -0.2578
  141OSM    H8F15481   0.542   1.605   7.573 -0.6187 -0.2452  0.8414
  141OSM    H8G15482   0.661   1.724   7.647  1.8063 -1.2087  0.2547
  141OSM    C9F15483   0.730   1.518   7.603  0.2610  0.1288 -0.6067
  141OSM    H9F15484   0.703   1.429   7.544  0.0434 -1.1556  1.3349
  141OSM   C10F15485   0.826   1.513   7.694  0.0503  0.4884  0.3155
  141OSM   H10F15486   0.882   1.419   7.709  1.0244  1.0933  0.5307
  141OSM   C11F15487   0.877   1.622   7.780 -0.1626 -0.3190  0.0617
  141OSM   H11F15488   0.879   1.722   7.730  0.1289  1.0962  2.7504
  141OSM   H11G15489   0.985   1.606   7.798  0.1491 -1.4968 -2.4345
  141OSM   C12F15490   0.815   1.625   7.917 -0.2435  0.2776  0.5262
  141OSM   H12F15491   0.861   1.706   7.977  0.6393  1.3798 -1.5539
  141OSM   H12G15492   0.828   1.528   7.970 -0.5200  1.0167  1.9978
  141OSM   C13F15493   0.658   1.648   7.921 -0.4099 -0.4283 -0.4974
  141OSM   H13F15494   0.605   1.575   7.857 -1.5694  0.1775 -0.2546
  141OSM   H13G15495   0.634   1.746   7.876  0.5453  0.0690  0.0435
  141OSM   C14F15496   0.590   1.661   8.056 -0.0208 -0.0598 -0.1637
  141OSM   H14F15497   0.480   1.647   8.052  0.0798 -1.0984  0.4453
  141OSM   H14G15498   0.619   1.758   8.104  1.8172 -0.5241 -0.2531
  141OSM   C15F15499   0.629   1.543   8.156 -0.4694  0.2225 -0.5632
  141OSM   H15F15500   0.563   1.546   8.246  2.7323 -1.6980  2.0823
  141OSM   H15G15501   0.734   1.543   8.191 -1.0480 -1.1932  1.3545
  141OSM   C16F15502   0.588   1.415   8.081 -0.2163 -0.1260 -0.4038
  141OSM   H16F15503   0.670   1.398   8.008  0.2515  3.6948 -0.9703
  141OSM   H16G15504   0.490   1.433   8.031 -0.0387  2.3004 -0.0092
  141OSM   C17F15505   0.569   1.289   8.160 -0.1360 -0.0526 -0.1512
  141OSM   H17F15506   0.502   1.318   8.244  1.2798  0.2003  0.9320
  141OSM   H17G15507   0.669   1.264   8.203 -1.3084 -1.4207  2.0158
  141OSM   C18F15508   0.507   1.181   8.074 -0.6510  0.1508  0.0031
  141OSM   H18F15509   0.584   1.131   8.011 -0.9665 -2.7396  1.7049
  141OSM   H18G15510   0.432   1.217   8.001 -0.1530 -2.4264 -1.9331
  141OSM   H18H15511   0.469   1.102   8.143 -0.7235  0.4521  0.3120
  142OSM      N15512   0.654   2.070   6.247 -0.0267  0.3919 -1.0276
  142OSM    C1515513   0.554   2.139   6.338 -0.5642 -0.6933 -0.5494
  142OSM   H15A15514   0.613   2.203   6.402 -1.6680 -1.4630  1.3029
  142OSM   H15B15515   0.501   2.073   6.405 -1.8604 -0.5825 -1.4371
  142OSM   H15C15516   0.480   2.191   6.279 -0.2778 -1.7919 -1.9277
  142OSM    C1415517   0.752   1.986   6.322  0.3155 -0.2587  0.0113
  142OSM   H14A15518   0.701   1.904   6.372 -2.9876  1.1530 -0.7493
  142OSM   H14B15519   0.794   2.049   6.398  0.1185  1.2321 -1.0813
  142OSM   H14C15520   0.845   1.965   6.270  0.8352  3.1614 -0.6291
  142OSM    C1315521   0.573   1.985   6.158 -0.5528  0.2494 -0.8792
  142OSM   H13A15522   0.519   1.907   6.208  0.0264 -0.6357 -1.6100
  142OSM   H13B15523   0.638   1.934   6.089  0.7794 -0.5636  0.8805
  142OSM   H13C15524   0.508   2.045   6.095  0.5694 -0.2924 -2.6284
  142OSM    C1215525   0.737   2.164   6.164  0.2184  0.2980  0.4869
  142OSM   H12A15526   0.672   2.233   6.110 -1.3468 -0.9052  0.7489
  142OSM   H12B15527   0.786   2.105   6.088 -0.1902  1.0876 -0.4186
  142OSM    C1115528   0.858   2.245   6.232 -0.3811  1.0401  1.2747
  142OSM   H11A15529   0.829   2.270   6.336 -0.1493  2.0545  1.1028
  142OSM   H11B15530   0.872   2.335   6.170 -1.0163 -0.3415 -0.9938
  142OSM      P15531   1.122   2.199   6.196  0.1026  0.3067 -0.0896
  142OSM    O1315532   1.207   2.077   6.179  0.6707  0.0010 -0.3255
  142OSM    O1415533   1.133   2.301   6.089 -0.4641 -0.1648 -0.1581
  142OSM    O1115534   1.166   2.265   6.336  0.1513 -0.0567 -0.3715
  142OSM    O1215535   0.972   2.156   6.215  0.1233 -0.4717 -0.6007
  142OSM    C1S15536   1.101   2.223   6.464  0.6077 -0.6317  0.0608
  142OSM    H1S15537   1.137   2.119   6.483  1.3736 -0.3067  0.4248
  142OSM    H1T15538   0.991   2.213   6.459  0.5025  0.5020 -0.1747
  142OSM     NF15539   1.096   2.262   6.707  0.1062 -0.3094 -0.3475
  142OSM    HNF15540   1.007   2.288   6.744 -0.0924 -0.9488 -0.3697
  142OSM    C2S15541   1.147   2.312   6.582  0.4584  0.4668 -0.0297
  142OSM    H2S15542   1.257   2.318   6.584  0.3821  3.6217  0.2447
  142OSM    C3S15543   1.108   2.464   6.558 -0.0242 -0.6203  0.3965
  142OSM    H3S15544   1.001   2.475   6.531 -0.3132 -2.2723  0.7962
  142OSM     O315545   1.167   2.517   6.431  0.3220  0.0754 -0.3199
  142OSM    HO315546   1.215   2.440   6.402  0.7882  0.8368 -1.6630
  142OSM    C4S15547   1.159   2.541   6.677  0.4569 -0.2130  0.5603
  142OSM    H4S15548   1.267   2.536   6.698  0.4376 -1.7387  0.4254
  142OSM    C5S15549   1.082   2.600   6.768 -0.7343  0.4494  0.1486
  142OSM    H5S15550   0.973   2.596   6.750 -0.9257  1.7927  0.9054
  142OSM    C6S15551   1.135   2.678   6.892  0.0956  0.2155  0.6730
  142OSM    H6S15552   1.098   2.782   6.885  0.2592  0.2813  0.7731
  142OSM    H6T15553   1.246   2.685   6.896  0.0178  1.7062  0.7223
  142OSM    C7S15554   1.081   2.613   7.024  0.3301  0.2683  0.1876
  142OSM    H7S15555   1.082   2.502   7.029  1.9783  0.2380 -0.0345
  142OSM    H7T15556   0.975   2.644   7.030  0.0511 -0.9760  3.0322
  142OSM    C8S15557   1.139   2.673   7.151  0.9469 -0.1089 -0.2214
  142OSM    H8S15558   1.131   2.783   7.139  0.9463 -0.2149 -1.2459
  142OSM    H8T15559   1.248   2.653   7.160  1.3902  1.9084 -0.6517
  142OSM    C9S15560   1.065   2.634   7.281  0.0528  0.4355  0.3608
  142OSM    H9S15561   1.086   2.526   7.296  0.1672  0.2456 -1.0075
  142OSM    H9T15562   0.956   2.643   7.264  0.1213 -0.9726 -1.0235
  142OSM   C10S15563   1.114   2.718   7.400 -0.8372  0.5342 -0.0075
  142OSM   H10S15564   1.062   2.816   7.398 -3.1317 -0.6005  0.4220
  142OSM   H10T15565   1.221   2.741   7.383 -0.4363 -1.4773 -0.5377
  142OSM   C11S15566   1.097   2.656   7.539 -0.3091 -0.6901  0.3156
  142OSM   H11S15567   0.989   2.646   7.565  0.0524  1.7171  3.3018
  142OSM   H11T15568   1.132   2.738   7.605 -1.1988 -0.9333  1.1159
  142OSM   C12S15569   1.190   2.546   7.569  0.3411  0.9479 -0.7736
  142OSM   H12S15570   1.290   2.560   7.524  0.0724  3.1329 -0.7956
  142OSM   H12T15571   1.152   2.447   7.538 -0.4702  0.8422  0.4648
  142OSM   C13S15572   1.207   2.545   7.723 -0.4815 -0.1938  0.4164
  142OSM   H13S15573   1.110   2.549   7.775  0.0919  2.0838  1.4468
  142OSM   H13T15574   1.258   2.639   7.753  0.9386 -0.9825  0.5835
  142OSM   C14S15575   1.294   2.424   7.773 -0.2877 -0.3273  0.0421
  142OSM   H14S15576   1.395   2.450   7.735  0.3420  0.6626  2.2105
  142OSM   H14T15577   1.253   2.334   7.722 -1.8816  0.2614  0.2155
  142OSM   C15S15578   1.301   2.424   7.929  0.2944  0.5022  0.2628
  142OSM   H15S15579   1.200   2.392   7.963  0.1655 -0.3992 -0.9192
  142OSM   H15T15580   1.327   2.521   7.976  1.8217  0.1795  0.1400
  142OSM   C16S15581   1.408   2.316   7.975  0.4096 -1.2794 -0.9826
  142OSM   H16S15582   1.500   2.341   7.918  0.3484 -0.2626 -0.6666
  142OSM   H16T15583   1.373   2.222   7.927  0.3407 -1.4174 -0.6630
  142OSM   C17S15584   1.426   2.295   8.126  0.5813 -0.2588 -0.0770
  142OSM   H17S15585   1.336   2.245   8.167 -0.5997 -1.0405 -3.2849
  142OSM   H17T15586   1.438   2.391   8.182  0.2399  0.3062 -0.9447
  142OSM   C18S15587   1.546   2.197   8.151 -0.5488  0.2059 -0.3704
  142OSM   H18S15588   1.518   2.092   8.125 -1.0150  0.1398  0.3497
  142OSM   H18T15589   1.564   2.201   8.261 -0.1047 -0.3308 -0.4190
  142OSM   H18U15590   1.632   2.236   8.092 -0.8611 -0.4040 -1.2551
  142OSM    C1F15591   1.146   2.153   6.758 -0.3875 -0.3045  0.1654
  142OSM     OF15592   1.233   2.089   6.696  0.2267  0.2662 -0.3926
  142OSM    C2F15593   1.084   2.105   6.885 -0.6996 -0.1092 -0.3796
  142OSM    H2F15594   0.979   2.068   6.875 -0.9780  0.5756 -0.0283
  142OSM    H2G15595   1.094   2.184   6.962  0.3171 -0.4705 -0.1243
  142OSM    C3F15596   1.161   1.977   6.926  0.1287 -0.1124  0.2933
  142OSM    H3F15597   1.267   2.009   6.938 -0.5761  1.5113  3.3304
  142OSM    H3G15598   1.160   1.895   6.852  2.5596  0.4905 -0.5203
  142OSM    C4F15599   1.111   1.922   7.053  0.5878 -0.3659 -0.6982
  142OSM    H4F15600   1.006   1.895   7.027 -0.4342  1.5413  1.0555
  142OSM    H4G15601   1.109   2.002   7.130 -1.3146  0.4070 -1.4702
  142OSM    C5F15602   1.194   1.797   7.101  0.2472  0.8039 -0.3454
  142OSM    H5F15603   1.297   1.837   7.114 -0.3883  2.2684  0.4488
  142OSM    H5G15604   1.185   1.729   7.014 -1.0830 -0.0002  0.3891
  142OSM    C6F15605   1.145   1.729   7.222 -0.0019  0.5785  0.1183
  142OSM    H6F15606   1.035   1.711   7.211 -0.1356 -0.1627  2.1011
  142OSM    H6G15607   1.148   1.777   7.322  0.1728  0.7080  0.0500
  142OSM    C7F15608   1.219   1.594   7.245  0.2417  0.0165  0.3423
  142OSM    H7F15609   1.327   1.611   7.263  0.0923 -0.0040  1.2809
  142OSM    H7G15610   1.219   1.537   7.149 -1.6003 -2.4805  1.7186
  142OSM    C8F15611   1.169   1.502   7.356  0.3582 -0.3457 -0.1358
  142OSM    H8F15612   1.235   1.412   7.357 -0.1382 -0.7118 -0.2057
  142OSM    H8G15613   1.069   1.458   7.335  0.7671 -0.5228 -1.8409
  142OSM    C9F15614   1.168   1.570   7.490 -0.4295  0.8036  0.0729
  142OSM    H9F15615   1.066   1.604   7.515 -0.3359  0.6269  0.7163
  142OSM   C10F15616   1.255   1.578   7.593 -0.3751  0.3278  0.2017
  142OSM   H10F15617   1.239   1.636   7.686 -0.4371  0.6995 -0.0403
  142OSM   C11F15618   1.391   1.518   7.600  0.2016  0.7318  0.1949
  142OSM   H11F15619   1.470   1.597   7.597 -0.7125  1.9004  3.3400
  142OSM   H11G15620   1.411   1.440   7.524 -0.7801  0.7817 -0.1183
  142OSM   C12F15621   1.421   1.444   7.730  0.0659  0.0871 -0.5566
  142OSM   H12F15622   1.516   1.390   7.711  0.1112 -0.7020  1.6340
  142OSM   H12G15623   1.342   1.369   7.752  1.2770 -0.8284  0.8103
  142OSM   C13F15624   1.433   1.535   7.854 -0.9387  0.1718 -0.4635
  142OSM   H13F15625   1.334   1.582   7.865 -0.3078  1.3536  0.3259
  142OSM   H13G15626   1.514   1.610   7.839 -0.9817  0.7072  1.7616
  142OSM   C14F15627   1.470   1.446   7.977  0.1706  0.7099 -0.1059
  142OSM   H14F15628   1.424   1.344   7.979  1.2628  0.1567  3.4831
  142OSM   H14G15629   1.428   1.497   8.066  4.9079  2.3587  1.4420
  142OSM   C15F15630   1.617   1.419   7.996 -1.1776 -0.2470  0.6314
  142OSM   H15F15631   1.668   1.516   7.987 -1.4325 -0.3031 -2.8770
  142OSM   H15G15632   1.653   1.356   7.912 -1.8251  0.4960 -0.2204
  142OSM   C16F15633   1.641   1.354   8.133  0.1940 -0.1447  0.2250
  142OSM   H16F15634   1.582   1.407   8.210 -1.3893  0.2675 -1.1994
  142OSM   H16G15635   1.748   1.373   8.158  0.7892 -1.4687 -1.1204
  142OSM   C17F15636   1.610   1.209   8.138 -1.0115 -0.5647  0.0136
  142OSM   H17F15637   1.658   1.139   8.067 -1.1460  0.1345 -0.7942
  142OSM   H17G15638   1.500   1.197   8.127 -0.9272 -2.2606  0.8576
  142OSM   C18F15639   1.638   1.142   8.276 -0.7389 -0.9438  0.1260
  142OSM   H18F15640   1.733   1.181   8.319 -1.7511 -1.2717  2.8451
  142OSM   H18G15641   1.615   1.034   8.278  2.5918 -1.7890 -1.4090
  142OSM   H18H15642   1.557   1.184   8.340  0.9920 -0.9172  2.3797
  143OSM      N15643   2.769   2.905   5.931  0.7457  0.4396 -0.0774
  143OSM    C1515644   2.894   2.852   5.875  0.5561 -0.3465  0.2101
  143OSM   H15A15645   2.917   2.909   5.786 -1.6817 -1.6325 -1.3068
  143OSM   H15B15646   2.878   2.747   5.854 -1.7277 -0.5660  2.5067
  143OSM   H15C15647   2.978   2.866   5.941  1.3738 -0.1106 -0.8673
  143OSM    C1415648   2.676   2.900   5.815 -0.1685  0.5737 -0.0329
  143OSM   H14A15649   2.581   2.951   5.822 -0.7989 -0.4537 -0.7468
  143OSM   H14B15650   2.659   2.798   5.783 -2.8207  0.8171  0.3836
  143OSM   H14C15651   2.716   2.946   5.726  0.7735  1.3036  0.7563
  143OSM    C1315652   2.719   2.814   6.038  0.4638 -0.4275 -0.6532
  143OSM   H13A15653   2.729   2.709   6.011  2.3494 -0.1119 -1.3383
  143OSM   H13B15654   2.618   2.841   6.065  1.1859  3.0283 -0.9523
  143OSM   H13C15655   2.783   2.841   6.121 -0.6347 -0.4337  0.2151
  143OSM    C1215656   2.775   3.049   5.975 -0.6603 -0.3807  0.4694
  143OSM   H12A15657   2.678   3.070   6.019 -0.7429  2.4754 -0.8334
  143OSM   H12B15658   2.781   3.115   5.890 -1.3514  3.0046  2.8486
  143OSM    C1115659   2.871   3.096   6.087  0.0750 -0.6977  0.8832
  143OSM   H11A15660   2.842   3.201   6.109  2.2920  0.3035 -0.6568
  143OSM   H11B15661   2.977   3.101   6.055  0.0495 -2.2687  0.4842
  143OSM      P15662   2.973   2.955   6.290  0.1102  0.1211  0.3789
  143OSM    O1315663   2.911   2.849   6.376  0.2635 -0.2744  0.5328
  143OSM    O1415664   3.080   2.910   6.195  0.6588  0.1068  0.1881
  143OSM    O1115665   3.029   3.073   6.385  0.2412 -0.2499 -0.2527
  143OSM    O1215666   2.856   3.023   6.207  0.1476 -0.0066  0.4102
  143OSM    C1S15667   2.931   3.177   6.416 -0.8911  0.4144  0.7435
  143OSM    H1S15668   2.833   3.128   6.432 -0.6442 -1.1908 -1.8728
  143OSM    H1T15669   2.914   3.249   6.333 -1.5763 -2.8627 -2.2504
  143OSM     NF15670   2.860   3.346   6.575  0.9952 -0.5407 -0.9606
  143OSM    HNF15671   2.856   3.430   6.522 -0.9565  0.0662  0.0590
  143OSM    C2S15672   2.963   3.252   6.544 -1.2973 -0.8488  0.1821
  143OSM    H2S15673   2.974   3.172   6.620  1.6260  0.8435  1.7464
  143OSM    C3S15674   3.096   3.320   6.539 -0.6886 -0.2580  0.1300
  143OSM    H3S15675   3.089   3.405   6.468 -1.5333 -0.2946  0.1619
  143OSM     O315676   3.202   3.239   6.489  0.3057 -0.6796 -0.1179
  143OSM    HO315677   3.158   3.174   6.435  3.6609 -1.9478 -1.5655
  143OSM    C4S15678   3.155   3.363   6.673 -0.3003 -0.6195 -0.4188
  143OSM    H4S15679   3.190   3.282   6.739  1.9536  0.6357  0.0232
  143OSM    C5S15680   3.157   3.497   6.713  0.4689 -0.1432  0.3521
  143OSM    H5S15681   3.126   3.576   6.643  4.4648  3.2184  1.9261
  143OSM    C6S15682   3.202   3.541   6.847  0.0742 -0.3457  0.1494
  143OSM    H6S15683   3.114   3.576   6.905  0.5166  0.0335  0.5958
  143OSM    H6T15684   3.267   3.630   6.835  1.2169 -1.4316 -2.7734
  143OSM    C7S15685   3.263   3.438   6.949  0.0411 -0.6020  0.5503
  143OSM    H7S15686   3.348   3.394   6.892 -0.0789  0.5456 -0.5618
  143OSM    H7T15687   3.188   3.361   6.979  0.2057 -0.8018  0.4505
  143OSM    C8S15688   3.305   3.504   7.080  0.3094 -0.0104  0.1565
  143OSM    H8S15689   3.368   3.591   7.051 -0.3481 -0.0047 -1.3795
  143OSM    H8T15690   3.374   3.432   7.128  1.1619  0.8073  0.1933
  143OSM    C9S15691   3.198   3.525   7.187  0.2815 -0.0712 -0.4125
  143OSM    H9S15692   3.106   3.464   7.172 -0.5192  1.2103 -0.9135
  143OSM    H9T15693   3.159   3.629   7.185 -1.2403 -0.5598  1.3166
  143OSM   C10S15694   3.256   3.503   7.324 -0.8916 -0.1175 -0.5922
  143OSM   H10S15695   3.327   3.587   7.342 -0.4724 -0.0510 -2.3562
  143OSM   H10T15696   3.301   3.402   7.321 -0.2853  0.0628  1.0648
  143OSM   C11S15697   3.139   3.505   7.430 -0.5024 -1.3055 -0.5786
  143OSM   H11S15698   3.049   3.449   7.394 -2.2749  2.1608 -1.9725
  143OSM   H11T15699   3.092   3.605   7.440 -0.5877 -1.3812 -0.1936
  143OSM   C12S15700   3.179   3.459   7.575  0.3934 -0.0640 -0.2738
  143OSM   H12S15701   3.216   3.355   7.565 -0.4755 -0.5138  0.9082
  143OSM   H12T15702   3.089   3.451   7.641 -0.4141  0.7500 -1.2413
  143OSM   C13S15703   3.296   3.544   7.638  0.4156 -0.7537 -0.5963
  143OSM   H13S15704   3.255   3.646   7.656  1.3589 -0.4173 -0.3011
  143OSM   H13T15705   3.378   3.549   7.563  0.8260 -2.6243 -0.3232
  143OSM   C14S15706   3.364   3.499   7.768  0.2162  0.0150 -0.8780
  143OSM   H14S15707   3.280   3.480   7.838  0.2229  1.2595 -0.5088
  143OSM   H14T15708   3.424   3.581   7.813  0.7412 -2.0318  2.6126
  143OSM   C15S15709   3.457   3.374   7.760 -0.6462  0.9577  0.1266
  143OSM   H15S15710   3.537   3.380   7.683 -1.4312 -3.3064 -1.2697
  143OSM   H15T15711   3.397   3.286   7.728  0.8684  1.0805 -3.4785
  143OSM   C16S15712   3.536   3.339   7.892 -0.1644  0.4944 -1.0202
  143OSM   H16S15713   3.465   3.340   7.978 -0.2623  0.6037 -1.1038
  143OSM   H16T15714   3.611   3.415   7.922 -0.7261  0.2025  1.3510
  143OSM   C17S15715   3.605   3.199   7.891  0.0385 -0.4846 -0.2077
  143OSM   H17S15716   3.668   3.191   7.800 -1.0349  1.8082 -1.2680
  143OSM   H17T15717   3.524   3.123   7.887 -1.3112  0.8211  0.8370
  143OSM   C18S15718   3.688   3.175   8.020 -0.1343 -0.1311 -0.4266
  143OSM   H18S15719   3.762   3.093   8.007  0.1495  0.1097 -0.3415
  143OSM   H18T15720   3.625   3.146   8.107 -1.0667  4.3836  0.6668
  143OSM   H18U15721   3.753   3.262   8.045  1.5209 -1.9623  1.9676
  143OSM    C1F15722   2.758   3.306   6.654 -0.0635 -0.1209 -0.3903
  143OSM     OF15723   2.751   3.193   6.695 -0.3969  0.3541 -0.5395
  143OSM    C2F15724   2.658   3.409   6.694  0.5485  0.7998  0.1639
  143OSM    H2F15725   2.625   3.449   6.596  1.1397  3.9989  1.1616
  143OSM    H2G15726   2.712   3.487   6.752 -2.6083  1.9313  1.7932
  143OSM    C3F15727   2.547   3.346   6.784 -0.6652 -0.2862 -0.1222
  143OSM    H3F15728   2.606   3.304   6.868  0.8766  2.1372  0.1090
  143OSM    H3G15729   2.500   3.263   6.728 -3.3286  2.2174 -1.9204
  143OSM    C4F15730   2.436   3.441   6.827 -0.1640 -0.0821 -0.3498
  143OSM    H4F15731   2.381   3.469   6.735 -0.8043 -1.2764 -0.3465
  143OSM    H4G15732   2.465   3.531   6.886  0.2933 -1.3851  1.4993
  143OSM    C5F15733   2.336   3.369   6.924 -0.5045 -0.4168  0.1737
  143OSM    H5F15734   2.333   3.262   6.895 -1.5724  0.4734 -3.5860
  143OSM    H5G15735   2.232   3.403   6.903 -0.1423 -0.4056 -1.8748
  143OSM    C6F15736   2.376   3.384   7.069  0.1172 -0.4404 -0.4517
  143OSM    H6F15737   2.451   3.463   7.091 -2.4239  1.9865  0.1265
  143OSM    H6G15738   2.414   3.287   7.106 -2.1658 -0.2170  3.0390
  143OSM    C7F15739   2.260   3.414   7.168  0.1333  0.0829 -0.3880
  143OSM    H7F15740   2.194   3.327   7.151 -1.3023  0.8966  0.7473
  143OSM    H7G15741   2.190   3.496   7.143 -1.9798 -0.5068  2.9008
  143OSM    C8F15742   2.307   3.429   7.314  0.1032 -0.0981  0.6757
  143OSM    H8F15743   2.210   3.457   7.361 -1.2706  1.5542 -2.7993
  143OSM    H8G15744   2.377   3.515   7.325 -1.8319  1.7362 -0.5838
  143OSM    C9F15745   2.369   3.303   7.370  0.4553 -0.1707  0.1662
  143OSM    H9F15746   2.467   3.292   7.321  0.1353  3.8858 -1.8302
  143OSM   C10F15747   2.328   3.227   7.472  0.1218  0.4515 -0.0100
  143OSM   H10F15748   2.383   3.134   7.491 -0.2552  0.5050  1.5078
  143OSM   C11F15749   2.210   3.239   7.560 -0.7790 -0.4779 -0.5867
  143OSM   H11F15750   2.144   3.151   7.548 -0.2860 -1.3345  2.2898
  143OSM   H11G15751   2.155   3.332   7.532  0.9798  1.0419  0.7170
  143OSM   C12F15752   2.262   3.243   7.705 -1.4876  0.6660 -0.8019
  143OSM   H12F15753   2.335   3.166   7.737 -0.7788  0.8308 -1.9570
  143OSM   H12G15754   2.171   3.221   7.764 -1.5325 -1.1429 -1.4803
  143OSM   C13F15755   2.320   3.377   7.749 -0.1620  0.4971 -0.3573
  143OSM   H13F15756   2.260   3.461   7.708 -0.1501  0.6982  0.0278
  143OSM   H13G15757   2.425   3.393   7.719  0.2957 -1.1629  0.2577
  143OSM   C14F15758   2.340   3.362   7.899  0.3993 -0.4894  0.2436
  143OSM   H14F15759   2.433   3.303   7.913  0.5488 -0.4729 -0.6203
  143OSM   H14G15760   2.262   3.302   7.951 -1.1245  0.7480 -0.5330
  143OSM   C15F15761   2.351   3.488   7.995 -0.9285  0.5930  0.4630
  143OSM   H15F15762   2.254   3.541   8.010 -1.7311 -0.6088 -0.2968
  143OSM   H15G15763   2.417   3.563   7.948 -0.3049 -1.0570 -1.4539
  143OSM   C16F15764   2.414   3.452   8.135  0.1628  0.0101 -0.0561
  143OSM   H16F15765   2.371   3.363   8.185 -1.9586  1.3404  0.5918
  143OSM   H16G15766   2.392   3.537   8.204 -0.6380  0.2732 -0.6276
  143OSM   C17F15767   2.568   3.431   8.138 -0.5312  0.3775  0.2651
  143OSM   H17F15768   2.597   3.523   8.083  3.1156 -0.9508 -0.3364
  143OSM   H17G15769   2.593   3.340   8.079 -3.6368 -0.7364  0.5026
  143OSM   C18F15770   2.626   3.427   8.281  0.4533 -0.8078  0.2699
  143OSM   H18F15771   2.586   3.513   8.339  0.8983 -0.4093 -0.0050
  143OSM   H18G15772   2.737   3.435   8.279  0.4454 -0.2052  1.3541
  143OSM   H18H15773   2.592   3.334   8.332  0.5879 -0.9304  0.1363
  144OSM      N15774   1.558   2.623   6.140  0.2901 -0.2768 -0.2853
  144OSM    C1515775   1.520   2.474   6.116  0.9092  0.3560  0.0254
  144OSM   H15A15776   1.443   2.436   6.181 -0.6684  0.6882 -1.5605
  144OSM   H15B15777   1.613   2.420   6.124  1.1178  0.6349 -0.4533
  144OSM   H15C15778   1.474   2.474   6.017 -0.6911 -0.1347  0.7285
  144OSM    C1415779   1.673   2.663   6.050  0.1166 -0.5376  0.4630
  144OSM   H14A15780   1.640   2.649   5.948  3.3652 -1.0789 -0.6491
  144OSM   H14B15781   1.755   2.594   6.065  0.4505 -0.2740 -0.1115
  144OSM   H14C15782   1.695   2.767   6.067  1.4131 -0.6543 -0.3574
  144OSM    C1315783   1.436   2.706   6.104 -0.1517 -0.1019  0.3047
  144OSM   H13A15784   1.352   2.683   6.168 -0.4385  0.8835  0.2919
  144OSM   H13B15785   1.400   2.711   6.002 -4.4244  0.3370  1.6433
  144OSM   H13C15786   1.472   2.807   6.112 -0.5032  0.1502 -1.0521
  144OSM    C1215787   1.615   2.641   6.282  1.0317  0.3802 -0.3410
  144OSM   H12A15788   1.542   2.617   6.358  0.5098  1.7749 -0.3811
  144OSM   H12B15789   1.649   2.742   6.297  1.3535 -0.0365  2.2812
  144OSM    C1115790   1.736   2.547   6.319 -0.0514 -0.7422  0.5111
  144OSM   H11A15791   1.752   2.561   6.429 -0.8313 -1.0149  0.6614
  144OSM   H11B15792   1.822   2.583   6.258  0.0456  0.1932  1.1629
  144OSM      P15793   1.828   2.299   6.344 -0.3709  0.6967 -0.2656
  144OSM    O1315794   1.766   2.162   6.335  0.0879 -0.0588 -0.3285
  144OSM    O1415795   1.957   2.314   6.277 -0.1093 -0.6629  0.5728
  144OSM    O1115796   1.854   2.323   6.499  0.0203 -0.2566  0.1400
  144OSM    O1215797   1.721   2.413   6.304 -0.1001  0.1719 -0.7649
  144OSM    C1S15798   1.755   2.359   6.595 -0.3230 -0.5320 -0.5935
  144OSM    H1S15799   1.651   2.324   6.573 -0.4735 -0.9599  0.7279
  144OSM    H1T15800   1.759   2.467   6.621 -0.6726 -0.7473  0.3899
  144OSM     NF15801   1.704   2.360   6.830  0.3427 -0.3953 -0.8937
  144OSM    HNF15802   1.750   2.426   6.889  0.3113  0.4049 -1.7577
  144OSM    C2S15803   1.791   2.295   6.731  0.1400 -0.1995 -1.3040
  144OSM    H2S15804   1.770   2.186   6.742 -3.7461  0.6700  3.4377
  144OSM    C3S15805   1.945   2.323   6.765  0.0698 -0.1301 -0.0172
  144OSM    H3S15806   1.978   2.427   6.743  0.6578 -0.3085 -0.0161
  144OSM     O315807   2.030   2.229   6.698 -0.0005 -0.1616 -0.5769
  144OSM    HO315808   1.981   2.216   6.617 -1.3705  2.2176 -0.2285
  144OSM    C4S15809   1.957   2.297   6.918  0.3325  0.4868 -0.3930
  144OSM    H4S15810   1.938   2.194   6.950  1.2289  0.3108 -0.3907
  144OSM    C5S15811   1.962   2.389   7.014 -0.8489  0.3996 -0.1115
  144OSM    H5S15812   1.971   2.497   6.992  1.3903  0.4732  0.8329
  144OSM    C6S15813   1.966   2.350   7.159  0.0368  0.1285 -0.4857
  144OSM    H6S15814   2.054   2.369   7.225  1.0754 -0.3516 -1.6835
  144OSM    H6T15815   1.969   2.240   7.175 -0.9845  0.3457  1.6321
  144OSM    C7S15816   1.845   2.411   7.226 -0.0991  0.0803 -0.3220
  144OSM    H7S15817   1.754   2.433   7.167  0.2501 -0.0215 -0.9042
  144OSM    H7T15818   1.877   2.497   7.289 -1.5056 -1.5654  2.8251
  144OSM    C8S15819   1.783   2.317   7.337  0.3335  0.0731 -0.4354
  144OSM    H8S15820   1.727   2.237   7.285  1.1273 -0.3623 -0.6386
  144OSM    H8T15821   1.711   2.385   7.387 -2.0012 -1.5650 -1.3980
  144OSM    C9S15822   1.882   2.256   7.435 -0.2750  0.1657  0.5176
  144OSM    H9S15823   1.951   2.333   7.475 -0.8927  0.0902  1.7923
  144OSM    H9T15824   1.948   2.189   7.376 -1.9096 -1.4654  0.4611
  144OSM   C10S15825   1.819   2.186   7.554  0.4725 -1.2761  0.5814
  144OSM   H10S15826   1.908   2.167   7.618  0.0623 -0.3621  1.4509
  144OSM   H10T15827   1.781   2.083   7.536 -1.5809 -0.6809  1.2750
  144OSM   C11S15828   1.713   2.270   7.624 -0.3412  0.5276 -0.7476
  144OSM   H11S15829   1.685   2.220   7.719  1.0287  3.3071  1.2686
  144OSM   H11T15830   1.620   2.285   7.566  0.1652  0.1149 -1.7011
  144OSM   C12S15831   1.765   2.407   7.685  0.4699 -0.3347  0.6249
  144OSM   H12S15832   1.685   2.447   7.751  0.3389  2.2933 -0.9559
  144OSM   H12T15833   1.770   2.488   7.609  0.9631  1.3830  2.4035
  144OSM   C13S15834   1.886   2.394   7.786  0.3919 -0.2571  0.6048
  144OSM   H13S15835   1.953   2.479   7.759 -0.1628  0.0770  0.2297
  144OSM   H13T15836   1.937   2.302   7.750 -2.4174 -1.2630 -1.1399
  144OSM   C14S15837   1.856   2.385   7.937  0.0746 -0.4848  0.8266
  144OSM   H14S15838   1.772   2.314   7.954 -1.8989  1.5486  0.0546
  144OSM   H14T15839   1.823   2.488   7.963 -3.3137 -1.5774  1.2848
  144OSM   C15S15840   1.979   2.328   8.014 -0.3644  0.1633  0.4415
  144OSM   H15S15841   2.062   2.398   7.993  1.7705 -2.9772 -2.8242
  144OSM   H15T15842   2.013   2.235   7.964 -0.3443  1.2189 -1.6101
  144OSM   C16S15843   1.950   2.317   8.160  0.0036  0.1931 -0.2663
  144OSM   H16S15844   1.866   2.246   8.178  0.1147 -0.7406 -2.9125
  144OSM   H16T15845   1.936   2.416   8.208  4.2808  1.6521 -1.5547
  144OSM   C17S15846   2.073   2.241   8.219  1.0016  0.1860 -0.1898
  144OSM   H17S15847   2.160   2.310   8.226  0.9118  0.2916 -0.1096
  144OSM   H17T15848   2.101   2.153   8.157  0.4009  1.7858 -2.9425
  144OSM   C18S15849   2.052   2.209   8.364 -0.1658 -0.0990 -0.1877
  144OSM   H18S15850   1.971   2.144   8.404 -0.7191 -0.2974 -1.5665
  144OSM   H18T15851   2.043   2.302   8.424 -0.7987 -0.6351  0.5805
  144OSM   H18U15852   2.144   2.164   8.406 -0.9067  0.0031  1.6475
  144OSM    C1F15853   1.576   2.353   6.834 -0.3058  0.0999 -0.0339
  144OSM     OF15854   1.524   2.255   6.785 -0.2442 -0.1088  0.4565
  144OSM    C2F15855   1.507   2.462   6.917  0.1530  0.6506  0.4573
  144OSM    H2F15856   1.486   2.538   6.839 -0.1656  0.7067  0.5967
  144OSM    H2G15857   1.582   2.503   6.988 -1.6297  0.6223  2.4521
  144OSM    C3F15858   1.382   2.407   6.993  0.3376  0.8672 -0.1420
  144OSM    H3F15859   1.324   2.355   6.915  2.0471 -0.8812 -0.3272
  144OSM    H3G15860   1.329   2.501   7.021 -0.5756  0.4723 -0.5168
  144OSM    C4F15861   1.409   2.309   7.108  0.2524 -0.1270 -0.5449
  144OSM    H4F15862   1.490   2.346   7.174  0.1052 -1.5586  0.4930
  144OSM    H4G15863   1.440   2.210   7.070  1.3125  0.9455 -2.6338
  144OSM    C5F15864   1.281   2.304   7.190  0.0815 -0.7983 -0.8101
  144OSM    H5F15865   1.194   2.311   7.121 -1.7967 -2.1486  1.2637
  144OSM    H5G15866   1.279   2.396   7.251 -1.0911 -1.2349 -0.1468
  144OSM    C6F15867   1.264   2.198   7.289 -0.8708  0.2611 -0.7559
  144OSM    H6F15868   1.305   2.105   7.245 -3.3222 -0.3249 -2.0080
  144OSM    H6G15869   1.155   2.178   7.304 -0.9778  0.9193 -0.6215
  144OSM    C7F15870   1.321   2.221   7.429 -0.6597  0.1959 -0.2348
  144OSM    H7F15871   1.308   2.324   7.470  0.5878 -0.1931  1.2766
  144OSM    H7G15872   1.430   2.201   7.418 -0.4371  1.6196 -0.8898
  144OSM    C8F15873   1.276   2.122   7.532  0.1518  0.5623 -0.3764
  144OSM    H8F15874   1.166   2.114   7.536  0.1261  1.1997  0.4117
  144OSM    H8G15875   1.306   2.144   7.636 -2.3143 -0.3615  0.5976
  144OSM    C9F15876   1.309   1.979   7.503 -0.0603 -0.3258 -0.1484
  144OSM    H9F15877   1.250   1.932   7.423 -0.3839  0.8285 -0.6102
  144OSM   C10F15878   1.408   1.910   7.563  0.6354 -0.5242  0.6001
  144OSM   H10F15879   1.416   1.805   7.531  1.6856 -0.6345  1.1644
  144OSM   C11F15880   1.513   1.958   7.652  0.1307 -0.4994 -0.1904
  144OSM   H11F15881   1.483   2.059   7.688  0.5453 -0.9272  1.4770
  144OSM   H11G15882   1.612   1.964   7.602 -0.5222 -1.9771 -1.7687
  144OSM   C12F15883   1.536   1.871   7.774  1.1339  0.3579 -0.3546
  144OSM   H12F15884   1.579   1.775   7.738  0.0532  0.2593 -1.4519
  144OSM   H12G15885   1.443   1.862   7.834  0.7957  4.0196 -0.0904
  144OSM   C13F15886   1.648   1.915   7.870 -0.3366 -0.2521  0.7924
  144OSM   H13F15887   1.610   1.999   7.933 -0.5222 -0.5507  1.0826
  144OSM   H13G15888   1.720   1.977   7.812 -2.9701  2.1852 -0.0537
  144OSM   C14F15889   1.694   1.822   7.979  0.3587  0.0967 -0.7715
  144OSM   H14F15890   1.747   1.739   7.927  0.4830  1.2718 -2.6023
  144OSM   H14G15891   1.605   1.778   8.029  0.4560  1.5040  0.7369
  144OSM   C15F15892   1.784   1.891   8.077 -0.6900  1.3251 -0.0738
  144OSM   H15F15893   1.734   1.977   8.127 -3.5384 -0.6204  0.6523
  144OSM   H15G15894   1.865   1.943   8.022 -1.2748  1.0473 -1.2403
  144OSM   C16F15895   1.847   1.793   8.178  0.2359  0.7300 -0.8351
  144OSM   H16F15896   1.895   1.700   8.142 -1.3290 -0.5995  0.3400
  144OSM   H16G15897   1.768   1.746   8.241  3.3987 -1.9870  1.4819
  144OSM   C17F15898   1.942   1.870   8.265 -0.3599  0.1048  0.6135
  144OSM   H17F15899   1.884   1.955   8.306 -0.7466  0.7903 -1.2828
  144OSM   H17G15900   2.017   1.922   8.201 -0.6238 -1.1599 -0.7931
  144OSM   C18F15901   1.993   1.788   8.385  0.0219 -0.9492 -0.6690
  144OSM   H18F15902   2.076   1.721   8.353  0.0325 -1.3935  0.2484
  144OSM   H18G15903   1.913   1.726   8.432 -1.1319 -0.2585 -1.6580
  144OSM   H18H15904   2.038   1.857   8.460  0.2267 -0.3407 -1.3449
  145SAPE     N15905   1.569   3.922  10.850  0.4785  0.3993 -0.3839
  145SAPE   HN115906   1.483   3.933  10.907  0.7850 -1.9960  0.6455
  145SAPE   HN215907   1.562   3.831  10.800 -0.7073  0.7176 -0.8358
  145SAPE   HN315908   1.656   3.915  10.906 -0.4131 -1.6060  0.8422
  145SAPE   C1215909   1.581   4.044  10.752  0.6779  0.3394 -0.4970
  145SAPE  H12A15910   1.566   4.016  10.645 -1.1498 -1.2174  0.1204
  145SAPE  H12B15911   1.681   4.091  10.768  0.7799 -0.6506  2.1953
  145SAPE   C1115912   1.469   4.142  10.778  0.2100  0.2976 -0.4934
  145SAPE  H11A15913   1.442   4.169  10.882  2.3309  2.4817 -0.4287
  145SAPE  H11B15914   1.381   4.090  10.732  0.0698 -1.1856  1.3006
  145SAPE     P15915   1.380   4.351  10.652 -0.3689  0.4065 -0.1478
  145SAPE   O1315916   1.295   4.420  10.753 -0.4783  0.0988  0.0869
  145SAPE   O1415917   1.431   4.441  10.553  0.0401 -0.6386  0.2556
  145SAPE   O1215918   1.496   4.258  10.706 -0.3686  0.0032  0.0215
  145SAPE   O1115919   1.287   4.258  10.568 -0.0763  0.3990 -0.2773
  145SAPE    C115920   1.325   4.192  10.438  0.6814 -0.4990 -0.3214
  145SAPE    HA15921   1.429   4.216  10.406  1.0652 -0.7353  0.7063
  145SAPE    HB15922   1.323   4.083  10.461  0.7306 -0.6542 -1.0279
  145SAPE    C215923   1.230   4.237  10.322  0.5571  0.2726 -0.4284
  145SAPE    HS15924   1.123   4.216  10.345  1.3029 -2.9049  0.5754
  145SAPE   O2115925   1.275   4.166  10.206  0.6651  0.3884 -0.3745
  145SAPE   C2115926   1.214   4.047  10.185  0.5901  0.5801 -0.5670
  145SAPE   O2215927   1.121   3.999  10.248 -0.5553 -0.7480  0.8945
  145SAPE   C2215928   1.280   3.979  10.062  0.7656 -0.1142 -1.0095
  145SAPE   H2R15929   1.338   4.054  10.004  0.4492  1.3592  0.5298
  145SAPE   H2S15930   1.350   3.902  10.102  0.7904 -0.4665 -1.7154
  145SAPE    C315931   1.247   4.394  10.293 -0.0875 -0.2106  0.0581
  145SAPE    HX15932   1.348   4.415  10.252 -0.1478  0.8244  0.4033
  145SAPE    HY15933   1.239   4.442  10.393  0.7425 -1.9825  1.0396
  145SAPE   O3115934   1.150   4.430  10.200 -0.6491  0.0331  0.5116
  145SAPE   C3115935   1.060   4.520  10.232  0.3556 -0.6783 -0.5203
  145SAPE   O3215936   1.064   4.589  10.338  0.6099  0.4645  0.4970
  145SAPE   C3215937   0.964   4.543  10.122 -0.3026 -0.5571 -0.1368
  145SAPE   H2X15938   0.913   4.447  10.097  2.7854 -2.6716  1.0614
  145SAPE   H2Y15939   1.015   4.581  10.031  1.6097 -0.7125  0.8055
  145SAPE   C2315940   1.175   3.892   9.987 -0.2113 -0.6433 -0.5824
  145SAPE   H3R15941   1.103   3.862  10.066  1.1650  0.1656  1.0430
  145SAPE   H3S15942   1.227   3.803   9.944  0.9672 -0.2930  0.0848
  145SAPE   C2415943   1.118   3.978   9.874 -0.1191  0.0147 -0.7235
  145SAPE   H4R15944   1.054   3.909   9.815 -0.7986  0.0995 -0.1025
  145SAPE   H4S15945   1.206   4.024   9.824 -0.0658 -0.1253 -0.7575
  145SAPE   C2515946   1.033   4.090   9.926 -0.1990 -0.8072  0.5227
  145SAPE   H5R15947   0.980   4.067  10.020 -0.1092  1.1492  1.1077
  145SAPE   C2615948   1.010   4.217   9.865  0.4057  1.2012 -0.0458
  145SAPE   H6R15949   0.949   4.284   9.927 -0.8878 -2.7009  3.3945
  145SAPE   C2715950   1.059   4.253   9.732 -0.1750  1.1089 -0.5767
  145SAPE   H7R15951   1.007   4.209   9.644  0.3763 -0.0017 -0.3635
  145SAPE   H7S15952   1.156   4.201   9.719 -1.5094 -1.0488 -2.7354
  145SAPE   C2815953   1.063   4.400   9.719  0.2030 -0.2513  0.5358
  145SAPE   H8R15954   1.142   4.458   9.770  2.5230 -1.5438 -1.3541
  145SAPE   C2915955   0.977   4.476   9.645  0.0873 -0.2765  0.3166
  145SAPE   H9R15956   0.986   4.584   9.664  0.7333 -0.1904 -0.4314
  145SAPE  C21015957   0.864   4.422   9.570  0.3018 -0.2360  0.7829
  145SAPE  H10R15958   0.789   4.502   9.549 -1.8997 -1.6430  2.7796
  145SAPE  H10S15959   0.807   4.345   9.627 -1.3482  0.7713  0.5670
  145SAPE  C21115960   0.900   4.358   9.438 -0.0515  0.3622  0.0936
  145SAPE  H11R15961   0.978   4.281   9.444 -0.4417 -0.1162 -0.8256
  145SAPE  C21215962   0.863   4.391   9.318 -0.5243 -0.3669 -0.8190
  145SAPE  H12R15963   0.892   4.312   9.247 -0.0553 -1.2253  0.3077
  145SAPE  C21315964   0.765   4.489   9.260  0.3040 -0.4623 -0.6802
  145SAPE  H13R15965   0.805   4.533   9.167  1.5608  1.0878  0.5331
  145SAPE  H13S15966   0.749   4.572   9.332 -1.9621 -0.4667 -1.0992
  145SAPE  C21415967   0.631   4.426   9.237  0.3122  0.4900 -0.2488
  145SAPE  H14R15968   0.602   4.373   9.329 -0.0557  0.4278 -0.3983
  145SAPE  C21515969   0.550   4.415   9.131  0.0627 -0.0516  0.1698
  145SAPE  H15R15970   0.451   4.372   9.152  0.5004 -1.3343 -0.2667
  145SAPE  C21615971   0.567   4.477   8.989 -0.3505  0.9015 -1.1303
  145SAPE  H16R15972   0.645   4.556   8.995 -0.2046  0.7080 -0.3043
  145SAPE  H16S15973   0.468   4.515   8.957 -1.3225 -1.4442 -1.1388
  145SAPE  C21715974   0.596   4.366   8.893 -0.2546 -0.5992  0.3377
  145SAPE  H17R15975   0.603   4.396   8.787 -0.2763  1.3484  0.8443
  145SAPE  H17S15976   0.517   4.288   8.895  1.1818 -2.1894 -1.5699
  145SAPE  C21815977   0.739   4.301   8.922  0.3667 -0.0966  0.8476
  145SAPE  H18R15978   0.747   4.215   8.852  0.5785  2.8745 -3.1085
  145SAPE  H18S15979   0.741   4.261   9.026 -0.9674  0.5198  1.1330
  145SAPE  C21915980   0.855   4.389   8.886  0.4071 -0.5601 -0.3869
  145SAPE  H19R15981   0.840   4.483   8.943 -0.1701 -0.9862  0.1742
  145SAPE  H19S15982   0.860   4.415   8.778 -0.6473  1.5569  0.0227
  145SAPE  C22015983   0.990   4.333   8.926 -0.0444  1.1253 -0.1253
  145SAPE  H20R15984   1.000   4.321   9.036  1.8890 -1.7192 -0.5078
  145SAPE  H20S15985   1.077   4.393   8.892  1.8270 -1.6351 -0.4807
  145SAPE  H20T15986   1.007   4.234   8.880 -0.7789  1.0124 -0.1717
  145SAPE   C3315987   0.856   4.643  10.158 -0.0624 -0.5072  0.2933
  145SAPE   H3X15988   0.901   4.744  10.151  0.5891 -0.8670 -1.0952
  145SAPE   H3Y15989   0.799   4.631  10.253 -2.8436  1.6678 -0.9647
  145SAPE   C3415990   0.737   4.634  10.061  0.3476 -0.6369  0.0077
  145SAPE   H4X15991   0.654   4.690  10.108  0.2042 -0.3037 -0.6214
  145SAPE   H4Y15992   0.700   4.529  10.049 -1.3105  0.0426 -1.2726
  145SAPE   C3515993   0.759   4.694   9.920 -0.6244  0.2565  0.1897
  145SAPE   H5X15994   0.826   4.632   9.857 -1.5185 -0.8187  0.2692
  145SAPE   H5Y15995   0.798   4.798   9.929 -2.7063  0.9988  1.3779
  145SAPE   C3615996   0.633   4.695   9.830  0.2921 -0.8645 -0.3330
  145SAPE   H6X15997   0.581   4.596   9.835 -2.1543  0.3387 -0.3131
  145SAPE   H6Y15998   0.677   4.716   9.730  2.2160  1.2263  0.8700
  145SAPE   C3715999   0.525   4.804   9.854 -0.1282 -0.5270  0.2865
  145SAPE   H7X16000   0.570   4.905   9.839 -0.9575 -0.2925 -0.6872
  145SAPE   H7Y16001   0.491   4.803   9.959 -0.5971 -2.0011  0.1370
  145SAPE   C3816002   0.400   4.789   9.757  0.3367  0.0998 -0.1140
  145SAPE   H8X16003   0.324   4.870   9.764 -1.2171 -1.1951 -1.2525
  145SAPE   H8Y16004   0.341   4.697   9.774  1.1324 -0.3825  0.0748
  145SAPE   C3916005   0.436   4.793   9.603 -0.3599 -0.2111 -0.5540
  145SAPE   H9X16006   0.516   4.719   9.580 -0.2513 -0.2626 -0.0426
  145SAPE   H9Y16007   0.479   4.893   9.580 -2.5461  0.5102 -1.7086
  145SAPE  C31016008   0.319   4.783   9.514  0.5907  0.5248 -0.3101
  145SAPE  H10X16009   0.254   4.872   9.516  1.9635  1.5848  2.2277
  145SAPE  H10Y16010   0.254   4.698   9.545  0.4609  0.3593 -1.0128
  145SAPE  C31116011   0.373   4.753   9.370 -0.2846 -0.1217  0.4733
  145SAPE  H11X16012   0.366   4.646   9.343  0.6588  0.2031 -1.2599
  145SAPE  H11Y16013   0.479   4.784   9.353 -0.1136  0.3136  2.1601
  145SAPE  C31216014   0.295   4.819   9.256  0.6335  0.5211 -0.2125
  145SAPE  H12X16015   0.309   4.929   9.266 -5.8737  1.6448  1.3043
  145SAPE  H12Y16016   0.185   4.802   9.263  0.5253  0.4106 -1.8418
  145SAPE  C31316017   0.341   4.761   9.115  0.2096  0.4405 -0.0038
  145SAPE  H13X16018   0.334   4.650   9.122 -0.6914  0.5684  1.4987
  145SAPE  H13Y16019   0.451   4.772   9.105  0.4254 -0.4384  1.2349
  145SAPE  C31416020   0.255   4.802   8.994 -0.2236 -0.4175  0.4560
  145SAPE  H14X16021   0.261   4.911   8.977  0.2084 -0.4076  0.6606
  145SAPE  H14Y16022   0.149   4.775   9.016 -0.1554 -0.3729  0.8565
  145SAPE  C31516023   0.299   4.745   8.861 -0.7660 -0.0575  0.7148
  145SAPE  H15X16024   0.228   4.785   8.786  0.3551  0.1693 -0.2588
  145SAPE  H15Y16025   0.286   4.635   8.868 -1.7133  0.1190  2.1644
  145SAPE  C31616026   0.447   4.763   8.815  0.0182  0.4195 -0.3953
  145SAPE  H16X16027   0.509   4.737   8.904 -3.2410 -1.5657  1.4671
  145SAPE  H16Y16028   0.470   4.866   8.781  0.7704  0.3741 -0.0494
  145SAPE  C31716029   0.478   4.665   8.700 -0.7223 -0.2628  0.5762
  145SAPE  H17X16030   0.423   4.691   8.607  0.2943 -1.6746 -0.4808
  145SAPE  H17Y16031   0.439   4.564   8.726 -0.9700 -0.9868 -2.2731
  145SAPE  C31816032   0.628   4.646   8.656 -0.0255 -0.5997  0.1826
  145SAPE  H18X16033   0.683   4.741   8.638 -0.2730 -0.7283 -1.4197
  145SAPE  H18Y16034   0.618   4.588   8.562 -0.7320 -0.9451  0.4640
  145SAPE  H18Z16035   0.686   4.593   8.735 -0.6320 -0.3794  0.7832
  146SAPE     N16036   6.215   6.600  11.051  0.5536  0.4901  0.5953
  146SAPE   HN116037   6.238   6.499  11.067 -0.5657  0.1900  0.3750
  146SAPE   HN216038   6.294   6.658  11.087 -0.0648  2.2762 -0.8214
  146SAPE   HN316039   6.123   6.628  11.089 -0.0321 -0.7083  0.1134
  146SAPE   C1216040   6.188   6.598  10.903 -1.1324 -0.0282  0.0467
  146SAPE  H12A16041   6.253   6.527  10.848 -0.0965 -0.5993  1.9352
  146SAPE  H12B16042   6.213   6.700  10.866  1.6716 -0.6421  0.0675
  146SAPE   C1116043   6.046   6.556  10.875  0.1511  0.1440  0.2134
  146SAPE  H11A16044   6.039   6.559  10.764  2.4201  3.0212  0.0239
  146SAPE  H11B16045   5.967   6.623  10.916 -2.0503 -1.4761 -1.1911
  146SAPE     P16046   5.913   6.329  10.886  0.5675  0.0329 -0.2121
  146SAPE   O1316047   5.959   6.185  10.922  0.4647 -0.3234  0.1191
  146SAPE   O1416048   5.792   6.375  10.953  0.5702 -0.2302  0.1313
  146SAPE   O1216049   6.025   6.430  10.931  0.0257 -0.1763 -0.3370
  146SAPE   O1116050   5.900   6.345  10.740  0.2848  0.2208  0.4101
  146SAPE    C116051   5.980   6.283  10.639 -0.5867 -0.2525  0.0311
  146SAPE    HA16052   5.964   6.348  10.550 -0.4391 -0.0037  0.1869
  146SAPE    HB16053   6.089   6.285  10.660 -0.7807  0.1330  1.0628
  146SAPE    C216054   5.932   6.139  10.601 -0.6723  0.0878  0.4347
  146SAPE    HS16055   5.971   6.074  10.682  2.9304 -1.1903 -2.0615
  146SAPE   O2116056   5.996   6.103  10.477 -0.2896 -0.9042  0.2337
  146SAPE   C2116057   6.037   5.981  10.462 -0.2054  0.7614 -0.8245
  146SAPE   O2216058   6.031   5.891  10.541  0.5747  0.2050 -0.1050
  146SAPE   C2216059   6.099   5.960  10.325 -0.1634 -0.3242 -0.0835
  146SAPE   H2R16060   6.208   5.979  10.332  0.0794 -1.7435  0.3457
  146SAPE   H2S16061   6.100   5.850  10.305 -0.8728 -0.2068 -0.7850
  146SAPE    C316062   5.774   6.122  10.587  0.9232 -0.1242  0.0180
  146SAPE    HX16063   5.743   6.203  10.517  0.4169 -0.5780 -0.2924
  146SAPE    HY16064   5.727   6.139  10.686  2.4041  1.0100  0.5606
  146SAPE   O3116065   5.722   6.000  10.529  0.2608 -0.0716  0.3292
  146SAPE   C3116066   5.716   5.896  10.608  0.4900 -0.3585  0.9526
  146SAPE   O3216067   5.731   5.899  10.727 -0.0061  0.2332 -0.3128
  146SAPE   C3216068   5.662   5.769  10.524  0.6421 -0.4373  0.5840
  146SAPE   H2X16069   5.585   5.811  10.456  1.7670  2.2627  0.8421
  146SAPE   H2Y16070   5.602   5.714  10.599 -2.9574  1.7658 -0.4257
  146SAPE   C2316071   6.028   6.015  10.200  0.9889  0.2848  0.4770
  146SAPE   H3R16072   6.034   6.126  10.191 -0.8758  0.3464 -0.4265
  146SAPE   H3S16073   5.922   5.982  10.197 -0.0569  3.3387  0.4028
  146SAPE   C2416074   6.084   5.955  10.067 -0.1272  0.1966  0.0279
  146SAPE   H4R16075   6.021   5.980   9.979  1.4849 -0.2846 -1.3248
  146SAPE   H4S16076   6.100   5.847  10.082  3.5045  0.4994 -0.6403
  146SAPE   C2516077   6.225   6.015  10.038  0.9690  0.3642 -0.8104
  146SAPE   H5R16078   6.298   5.978  10.111  1.0844  1.5797 -0.2759
  146SAPE   C2616079   6.257   6.094   9.931  0.5436 -0.0495  0.4321
  146SAPE   H6R16080   6.364   6.120   9.929  0.4427  0.4726  1.3234
  146SAPE   C2716081   6.163   6.142   9.826 -0.1835 -0.0250 -0.0982
  146SAPE   H7R16082   6.117   6.241   9.848 -1.3445 -0.8871  1.6178
  146SAPE   H7S16083   6.079   6.071   9.809 -0.1101 -0.5369  1.5074
  146SAPE   C2816084   6.246   6.142   9.695  0.5556 -0.5472  0.2892
  146SAPE   H8R16085   6.247   6.048   9.638 -0.0876  0.5777 -1.6478
  146SAPE   C2916086   6.302   6.249   9.636  0.0540  0.4760  0.1316
  146SAPE   H9R16087   6.363   6.231   9.546  0.5567  0.3455  0.4975
  146SAPE  C21016088   6.300   6.388   9.692 -0.0625 -0.4277  0.1043
  146SAPE  H10R16089   6.380   6.460   9.665 -2.0498  1.1910 -1.7737
  146SAPE  H10S16090   6.296   6.395   9.803 -0.6301 -1.0683  0.1302
  146SAPE  C21116091   6.179   6.457   9.633  0.3911  0.5172  0.0074
  146SAPE  H11R16092   6.092   6.431   9.695 -0.3713  0.2304 -1.1382
  146SAPE  C21216093   6.158   6.526   9.518 -0.3591  0.6550 -0.1646
  146SAPE  H12R16094   6.056   6.551   9.487 -0.6806 -0.3879 -0.0136
  146SAPE  C21316095   6.257   6.557   9.409 -0.4672 -0.1856  0.7840
  146SAPE  H13R16096   6.352   6.501   9.423  1.7007  1.7709 -3.9686
  146SAPE  H13S16097   6.287   6.663   9.419  1.0153 -0.4931 -0.1169
  146SAPE  C21416098   6.204   6.539   9.263  0.3936  0.5257  0.9400
  146SAPE  H14R16099   6.117   6.473   9.249  0.5307 -0.1104  2.8065
  146SAPE  C21516100   6.251   6.602   9.150  0.2398  0.5870 -0.1963
  146SAPE  H15R16101   6.220   6.576   9.048 -0.4754 -2.0681  0.6132
  146SAPE  C21616102   6.364   6.699   9.156 -0.5636  0.6653 -0.1191
  146SAPE  H16R16103   6.408   6.718   9.256  0.2316  1.3209 -0.5851
  146SAPE  H16S16104   6.337   6.800   9.119 -0.2067  0.6548 -0.4059
  146SAPE  C21716105   6.478   6.644   9.065 -1.0424  0.5314 -0.7700
  146SAPE  H17R16106   6.451   6.621   8.959 -2.2709  0.7095 -0.5145
  146SAPE  H17S16107   6.503   6.545   9.109 -0.0242  0.5648 -1.2625
  146SAPE  C21816108   6.602   6.732   9.072 -0.8683 -0.1811  0.3269
  146SAPE  H18R16109   6.633   6.740   9.179 -0.2866  1.2134  0.0848
  146SAPE  H18S16110   6.577   6.833   9.032  0.6535  1.6666  3.6121
  146SAPE  C21916111   6.726   6.678   8.997  0.2458  0.2940 -0.1694
  146SAPE  H19R16112   6.702   6.662   8.890  2.6299  0.7480 -0.8225
  146SAPE  H19S16113   6.742   6.574   9.033  1.4900  0.5726  0.1324
  146SAPE  C22016114   6.842   6.768   9.009  0.1853 -0.8860 -0.5757
  146SAPE  H20R16115   6.863   6.782   9.118  2.2026  1.8134 -1.2013
  146SAPE  H20S16116   6.830   6.864   8.956  1.1159  0.2451  1.1441
  146SAPE  H20T16117   6.935   6.720   8.972  1.2006  1.3243 -1.0735
  146SAPE   C3316118   5.776   5.687  10.463  0.6455  0.5325  0.3156
  146SAPE   H3X16119   5.747   5.580  10.468 -1.5470  1.1363  2.1369
  146SAPE   H3Y16120   5.867   5.694  10.528  0.0029  1.8563  1.1195
  146SAPE   C3416121   5.811   5.737  10.320  0.3509 -0.0847  0.0537
  146SAPE   H4X16122   5.899   5.678  10.287  1.5318  1.6193  0.0424
  146SAPE   H4Y16123   5.843   5.842  10.330 -2.6933  0.9407 -0.0051
  146SAPE   C3516124   5.695   5.696  10.223  0.1285  0.1749  0.2687
  146SAPE   H5X16125   5.597   5.709  10.273 -0.4658 -2.5319 -0.0431
  146SAPE   H5Y16126   5.698   5.587  10.203  1.0112  0.0512  1.0008
  146SAPE   C3616127   5.708   5.764  10.090  0.4267 -0.0115 -0.0596
  146SAPE   H6X16128   5.719   5.873  10.105 -0.5527 -0.1416  1.8691
  146SAPE   H6Y16129   5.618   5.736  10.031  1.2459 -0.3772 -1.1768
  146SAPE   C3716130   5.828   5.702  10.014 -0.4403  0.0746 -0.7471
  146SAPE   H7X16131   5.818   5.592  10.020  0.7596 -0.0277 -0.3294
  146SAPE   H7Y16132   5.921   5.741  10.061 -0.9583 -0.0839  0.4307
  146SAPE   C3816133   5.843   5.736   9.868 -0.0383  0.4347  0.3135
  146SAPE   H8X16134   5.860   5.844   9.845  1.2002 -0.2812 -2.7085
  146SAPE   H8Y16135   5.747   5.709   9.819  0.2408  0.6150 -0.3468
  146SAPE   C3916136   5.962   5.671   9.796 -0.6226 -0.3026  0.1933
  146SAPE   H9X16137   5.952   5.561   9.785  0.9419 -0.4522  0.0656
  146SAPE   H9Y16138   6.052   5.688   9.858 -2.3951 -1.5710  3.3726
  146SAPE  C31016139   5.989   5.754   9.660 -0.2370  0.5721  0.9883
  146SAPE  H10X16140   6.043   5.849   9.680 -0.0339  0.6910 -0.0809
  146SAPE  H10Y16141   5.894   5.762   9.604  0.1184  0.5590  0.3780
  146SAPE  C31116142   6.090   5.676   9.563  0.7303  0.0793  0.1401
  146SAPE  H11X16143   6.047   5.579   9.532 -1.6850  1.4304 -0.9424
  146SAPE  H11Y16144   6.177   5.662   9.631  0.3898  1.7020  0.9777
  146SAPE  C31216145   6.121   5.754   9.432  0.1446 -0.0335 -0.9898
  146SAPE  H12X16146   6.140   5.860   9.460 -1.7010 -0.4968  2.6495
  146SAPE  H12Y16147   6.025   5.752   9.376  0.1409  0.4430 -1.0017
  146SAPE  C31316148   6.227   5.680   9.344  0.8139 -0.4608 -0.1724
  146SAPE  H13X16149   6.195   5.574   9.333 -2.3711  0.5737 -2.0424
  146SAPE  H13Y16150   6.329   5.680   9.388 -0.3625  1.8101  2.9126
  146SAPE  C31416151   6.235   5.734   9.195 -0.1275  0.4487  0.2269
  146SAPE  H14X16152   6.134   5.767   9.165 -0.1147 -0.7898 -1.3095
  146SAPE  H14Y16153   6.276   5.656   9.127  0.0058  0.4829  0.2671
  146SAPE  C31516154   6.330   5.855   9.188 -0.8419 -0.3317  0.3299
  146SAPE  H15X16155   6.434   5.817   9.196 -0.3226  0.5559 -1.6143
  146SAPE  H15Y16156   6.299   5.921   9.273 -2.2102 -1.8399  1.0549
  146SAPE  C31616157   6.318   5.936   9.060 -0.1380  0.5737  0.3382
  146SAPE  H16X16158   6.212   5.957   9.034 -0.4152 -0.9048  0.2104
  146SAPE  H16Y16159   6.357   5.883   8.971 -0.7552  0.5024  0.1004
  146SAPE  C31716160   6.404   6.066   9.068 -0.5202 -0.0394 -0.0691
  146SAPE  H17X16161   6.510   6.037   9.084 -0.7737 -1.0461 -0.1752
  146SAPE  H17Y16162   6.366   6.126   9.154 -0.6451 -0.2243  0.0044
  146SAPE  C31816163   6.425   6.162   8.948  0.4040  0.0243 -1.1349
  146SAPE  H18X16164   6.330   6.218   8.931 -0.2266 -1.0657 -1.2896
  146SAPE  H18Y16165   6.459   6.115   8.853  2.5225  0.4738 -0.6540
  146SAPE  H18Z16166   6.501   6.236   8.981  2.1035 -2.3349  0.6368
  147SAPE     N16167   2.412   2.096  10.923  0.9166  0.0331 -0.2038
  147SAPE   HN116168   2.496   2.087  10.984  0.8769  0.8712 -0.0066
  147SAPE   HN216169   2.345   2.169  10.953  1.1597  0.3321 -0.3736
  147SAPE   HN316170   2.355   2.012  10.940 -0.5616  1.3386  1.6879
  147SAPE   C1216171   2.449   2.124  10.779  0.1190 -0.1942  0.2712
  147SAPE  H12A16172   2.362   2.099  10.714 -2.2548 -0.8072  3.4451
  147SAPE  H12B16173   2.532   2.055  10.752  1.6694  0.7722  2.3101
  147SAPE   C1116174   2.512   2.265  10.764 -0.1673  0.2301 -0.2290
  147SAPE  H11A16175   2.434   2.343  10.773  1.2119  1.5669  0.6779
  147SAPE  H11B16176   2.542   2.277  10.657 -2.2651  0.3089 -0.8427
  147SAPE     P16177   2.755   2.364  10.797  0.3713 -0.1436 -0.4181
  147SAPE   O1316178   2.720   2.505  10.769 -0.2211 -1.1599  0.0295
  147SAPE   O1416179   2.865   2.345  10.894  0.1495 -0.5408  0.2986
  147SAPE   O1216180   2.623   2.299  10.854 -0.2960  0.5240 -0.3389
  147SAPE   O1116181   2.783   2.296  10.662 -0.1648 -0.6266 -0.2314
  147SAPE    C116182   2.804   2.158  10.650  0.4131  0.4657  0.4120
  147SAPE    HA16183   2.813   2.105  10.747 -0.4739 -2.3231 -0.9296
  147SAPE    HB16184   2.709   2.112  10.616 -0.3688  2.4860 -0.2884
  147SAPE    C216185   2.923   2.119  10.563  0.3091 -0.1746 -0.4545
  147SAPE    HS16186   3.000   2.183  10.610 -0.8928  1.7566 -0.9891
  147SAPE   O2116187   2.889   2.151  10.429 -0.2842  0.1517 -0.1651
  147SAPE   C2116188   2.976   2.235  10.369  0.1734 -0.4647 -0.4377
  147SAPE   O2216189   3.082   2.275  10.413 -0.2539 -0.4546 -0.4196
  147SAPE   C2216190   2.920   2.264  10.231  0.4025  0.3924  0.0528
  147SAPE   H2R16191   2.883   2.169  10.186 -0.0177  0.1274  0.9305
  147SAPE   H2S16192   2.832   2.331  10.241  0.9645  1.1711 -0.1724
  147SAPE    C316193   2.948   1.971  10.571  0.0849 -0.0930 -0.5269
  147SAPE    HX16194   2.851   1.924  10.546 -1.2152  1.9957  0.3711
  147SAPE    HY16195   2.966   1.932  10.674 -1.5213  2.1511  0.6587
  147SAPE   O3116196   3.045   1.928  10.473 -0.0096  0.0144  0.2700
  147SAPE   C3116197   3.170   1.926  10.518  0.5001  0.0897 -0.3218
  147SAPE   O3216198   3.207   1.933  10.634  0.0051 -0.5795 -0.6704
  147SAPE   C3216199   3.269   1.896  10.398  0.0319 -0.3432  0.2540
  147SAPE   H2X16200   3.317   1.800  10.427 -1.5262 -1.2431 -0.0379
  147SAPE   H2Y16201   3.337   1.983  10.394 -0.4961  0.0755  0.2265
  147SAPE   C2316202   3.028   2.325  10.140  0.2838 -0.6350  0.1693
  147SAPE   H3R16203   3.074   2.416  10.184  0.2874 -1.3186  1.6385
  147SAPE   H3S16204   2.980   2.352  10.043  2.2728 -1.7118 -1.1689
  147SAPE   C2416205   3.139   2.223  10.103 -0.5344 -1.2270 -0.0254
  147SAPE   H4R16206   3.078   2.143  10.055 -4.7374  1.0331  1.1252
  147SAPE   H4S16207   3.182   2.177  10.195  1.2736  0.2137 -0.0854
  147SAPE   C2516208   3.238   2.285  10.001 -0.5049  0.5687 -0.3340
  147SAPE   H5R16209   3.320   2.344  10.045 -0.7008  0.2861  0.4266
  147SAPE   C2616210   3.226   2.260   9.870  0.1343 -0.0528 -0.2620
  147SAPE   H6R16211   3.305   2.292   9.800  0.1460 -1.3101 -0.8553
  147SAPE   C2716212   3.131   2.171   9.791  0.1852  0.1312  0.3921
  147SAPE   H7R16213   3.069   2.116   9.865 -1.6964 -0.9942 -1.8641
  147SAPE   H7S16214   3.199   2.100   9.741 -0.9521 -0.4974 -0.3117
  147SAPE   C2816215   3.062   2.252   9.680  0.2117  0.8648  0.4096
  147SAPE   H8R16216   2.952   2.247   9.690  0.2818  1.7472  1.9417
  147SAPE   C2916217   3.106   2.300   9.562 -0.2948  0.0274  0.5548
  147SAPE   H9R16218   3.034   2.342   9.490  0.3739 -2.2938 -1.6485
  147SAPE  C21016219   3.250   2.283   9.505 -0.1196 -0.3830 -0.9103
  147SAPE  H10R16220   3.322   2.280   9.589 -1.4096 -1.6974  0.1896
  147SAPE  H10S16221   3.282   2.374   9.449 -1.9515 -1.0876 -3.3088
  147SAPE  C21116222   3.271   2.158   9.421  0.0127 -0.0223  0.2521
  147SAPE  H11R16223   3.209   2.074   9.454  0.6552 -0.2881  0.7857
  147SAPE  C21216224   3.341   2.142   9.302 -0.2371 -0.0097 -1.1118
  147SAPE  H12R16225   3.335   2.037   9.272 -0.5489 -0.5006  0.5601
  147SAPE  C21316226   3.434   2.226   9.219  0.6440  0.5233  1.1449
  147SAPE  H13R16227   3.520   2.160   9.199  0.5726  1.3143 -2.3677
  147SAPE  H13S16228   3.471   2.323   9.260  0.0997  1.5119 -0.6034
  147SAPE  C21416229   3.354   2.263   9.096 -0.2216 -0.0103  0.4365
  147SAPE  H14R16230   3.296   2.353   9.116 -2.4190 -1.7056  2.1883
  147SAPE  C21516231   3.362   2.206   8.978  0.2781  0.4036  0.0360
  147SAPE  H15R16232   3.294   2.241   8.900 -1.2789 -0.2079  1.0658
  147SAPE  C21616233   3.451   2.084   8.938 -0.0174  0.1136 -1.1034
  147SAPE  H16R16234   3.401   2.003   8.881  0.4491 -0.6499 -0.4450
  147SAPE  H16S16235   3.479   2.023   9.027 -0.4564  0.7089 -0.5437
  147SAPE  C21716236   3.581   2.123   8.850  0.9178  0.0342 -0.5733
  147SAPE  H17R16237   3.650   2.037   8.868  0.8779  0.3409  1.3027
  147SAPE  H17S16238   3.623   2.217   8.891 -0.9683  0.2016  1.1793
  147SAPE  C21816239   3.538   2.142   8.703 -0.4858 -0.6070 -0.2797
  147SAPE  H18R16240   3.468   2.228   8.706 -0.3233 -0.4526 -0.7942
  147SAPE  H18S16241   3.503   2.044   8.666 -0.8515 -1.5887  2.3953
  147SAPE  C21916242   3.656   2.173   8.610 -0.3119 -0.1291 -0.7649
  147SAPE  H19R16243   3.710   2.077   8.595  1.4866  0.8063 -0.5367
  147SAPE  H19S16244   3.737   2.234   8.655 -1.5388 -0.7299  2.5229
  147SAPE  C22016245   3.610   2.252   8.484 -0.1398  1.0239 -0.7320
  147SAPE  H20R16246   3.564   2.348   8.513  1.0886  1.4536 -0.1345
  147SAPE  H20S16247   3.542   2.189   8.423 -0.8142  0.1885  0.8313
  147SAPE  H20T16248   3.704   2.268   8.426 -0.6982  0.6942 -1.7438
  147SAPE   C3316249   3.208   1.879  10.253  0.9523 -0.3229 -0.1374
  147SAPE   H3X16250   3.123   1.948  10.235  1.0385  0.3425  1.8413
  147SAPE   H3Y16251   3.141   1.790  10.246 -2.6248  2.1124  0.3980
  147SAPE   C3416252   3.300   1.878  10.136  0.2384  0.0034 -0.1898
  147SAPE   H4X16253   3.400   1.857  10.178  0.7520  0.3474 -1.1819
  147SAPE   H4Y16254   3.310   1.981  10.094  0.3559 -0.2481 -0.7896
  147SAPE   C3516255   3.259   1.791  10.027  0.7976 -0.3923 -0.0809
  147SAPE   H5X16256   3.163   1.820   9.980 -0.4777 -0.1515  2.5051
  147SAPE   H5Y16257   3.241   1.685  10.058  2.2434  0.3838  3.9166
  147SAPE   C3616258   3.361   1.787   9.903  1.0291 -0.7931 -0.4237
  147SAPE   H6X16259   3.463   1.761   9.940  1.2478 -0.1711 -0.5745
  147SAPE   H6Y16260   3.374   1.891   9.866 -1.2919  1.1585  3.5318
  147SAPE   C3716261   3.313   1.691   9.796  0.6685  0.2880 -0.1851
  147SAPE   H7X16262   3.217   1.728   9.754  1.9698 -0.2895 -4.0985
  147SAPE   H7Y16263   3.295   1.589   9.835  2.1705 -0.8613 -2.2728
  147SAPE   C3816264   3.427   1.689   9.686  0.4448 -0.0430 -0.5442
  147SAPE   H8X16265   3.379   1.624   9.609  0.3252  1.3084 -1.6394
  147SAPE   H8Y16266   3.519   1.645   9.729  0.7873  2.2324  1.2434
  147SAPE   C3916267   3.446   1.818   9.607  0.1243 -0.3867  0.4935
  147SAPE   H9X16268   3.485   1.895   9.677  1.7019 -0.3246 -0.3926
  147SAPE   H9Y16269   3.346   1.849   9.572 -0.0589 -0.0932  1.2479
  147SAPE  C31016270   3.538   1.812   9.477  0.2975 -0.6456  0.1561
  147SAPE  H10X16271   3.633   1.763   9.505  0.3709  0.6533  2.3804
  147SAPE  H10Y16272   3.557   1.920   9.467 -2.4014 -0.1828 -1.0645
  147SAPE  C31116273   3.461   1.766   9.352  0.1834  0.1133 -0.1705
  147SAPE  H11X16274   3.370   1.829   9.342 -0.2657 -0.3416  0.8899
  147SAPE  H11Y16275   3.420   1.663   9.354 -0.7163  0.4702  1.6901
  147SAPE  C31216276   3.540   1.792   9.227 -0.3802 -0.3059  0.1230
  147SAPE  H12X16277   3.628   1.725   9.238  0.2067  0.5482  0.7568
  147SAPE  H12Y16278   3.572   1.891   9.189  0.3164 -1.4596 -2.5404
  147SAPE  C31316279   3.454   1.751   9.101 -0.3250  0.0601 -0.3254
  147SAPE  H13X16280   3.381   1.835   9.097  0.0216  0.4687  1.3049
  147SAPE  H13Y16281   3.404   1.653   9.112 -0.4948  0.1074 -0.6596
  147SAPE  C31416282   3.541   1.754   8.973  0.3716 -0.1399  0.2905
  147SAPE  H14X16283   3.628   1.685   8.988  1.4254  0.8337 -1.1494
  147SAPE  H14Y16284   3.598   1.847   8.955  0.9074 -0.2170  1.4550
  147SAPE  C31516285   3.448   1.722   8.854 -0.2799  0.8443 -0.0608
  147SAPE  H15X16286   3.359   1.788   8.851 -1.8211 -0.7430  3.6610
  147SAPE  H15Y16287   3.398   1.623   8.858 -3.4109  2.3400  0.4778
  147SAPE  C31616288   3.536   1.734   8.725  0.0030 -0.3786  0.0579
  147SAPE  H16X16289   3.640   1.700   8.745 -0.0962  0.8575  3.2718
  147SAPE  H16Y16290   3.553   1.838   8.691 -1.1272  0.4494  1.8977
  147SAPE  C31716291   3.480   1.653   8.610  1.0010 -0.3497 -0.4623
  147SAPE  H17X16292   3.387   1.705   8.578  0.0369 -0.4568  1.9659
  147SAPE  H17Y16293   3.453   1.551   8.644 -0.1028 -0.5317 -1.7580
  147SAPE  C31816294   3.581   1.657   8.500 -0.0547 -0.5689  0.1511
  147SAPE  H18X16295   3.606   1.755   8.454 -2.9991 -0.1429 -0.7471
  147SAPE  H18Y16296   3.544   1.584   8.425 -0.2343 -0.2671 -0.0570
  147SAPE  H18Z16297   3.678   1.614   8.534  0.1069  1.6618  2.8428
  148SAPE     N16298   3.767   3.838  10.858  0.1052  0.2777 -0.2005
  148SAPE   HN116299   3.830   3.901  10.913  0.4858 -0.4105  0.1584
  148SAPE   HN216300   3.705   3.895  10.797 -0.5320  1.0870  1.1600
  148SAPE   HN316301   3.703   3.779  10.914 -0.7080 -1.2547 -2.6018
  148SAPE   C1216302   3.851   3.752  10.760 -0.0269 -0.2981  0.0222
  148SAPE  H12A16303   3.782   3.694  10.696  0.4151 -1.5371  0.6307
  148SAPE  H12B16304   3.904   3.679  10.826 -0.1275 -0.7378 -0.3775
  148SAPE   C1116305   3.937   3.829  10.670 -0.3934  0.2440 -0.1176
  148SAPE  H11A16306   3.872   3.896  10.611 -1.2523  1.4784  2.0854
  148SAPE  H11B16307   4.005   3.772  10.604  0.0440  2.8431 -2.0794
  148SAPE     P16308   4.027   4.069  10.725 -0.3221 -0.4839 -0.1927
  148SAPE   O1316309   3.890   4.132  10.748 -0.6208  0.2623  0.5416
  148SAPE   O1416310   4.137   4.120  10.804 -0.5136  0.4072  0.1656
  148SAPE   O1216311   4.020   3.914  10.755 -0.0590  0.5746 -0.0880
  148SAPE   O1116312   4.070   4.072  10.571  0.4158  0.6659  0.1239
  148SAPE    C116313   4.023   4.178  10.487  0.1190  0.9732  0.0553
  148SAPE    HA16314   3.912   4.179  10.488 -0.0022 -2.1802  0.4891
  148SAPE    HB16315   4.071   4.272  10.519 -0.9634  1.2097  1.0265
  148SAPE    C216316   4.086   4.154  10.344  0.6519 -0.4874 -0.1849
  148SAPE    HS16317   4.063   4.244  10.283 -1.0929 -0.9258 -0.2055
  148SAPE   O2116318   4.038   4.029  10.288 -0.0675  0.6807 -0.0336
  148SAPE   C2116319   3.913   4.027  10.261  0.4573 -0.7803  0.5288
  148SAPE   O2216320   3.843   4.126  10.259  0.0650  0.3771  0.2958
  148SAPE   C2216321   3.876   3.898  10.193 -0.0099  0.6543 -0.0168
  148SAPE   H2R16322   3.964   3.861  10.136 -0.5008  0.7740 -0.8674
  148SAPE   H2S16323   3.863   3.834  10.283 -1.1630  0.4380 -0.3269
  148SAPE    C316324   4.241   4.152  10.360  0.1237 -0.1656 -0.1734
  148SAPE    HX16325   4.260   4.064  10.425 -0.5835  0.1925  0.5344
  148SAPE    HY16326   4.279   4.244  10.410  0.9482 -0.3632 -0.4187
  148SAPE   O3116327   4.298   4.150  10.227  0.0272  0.3782 -0.9724
  148SAPE   C3116328   4.363   4.043  10.194  0.3647 -0.2073 -0.4392
  148SAPE   O3216329   4.369   3.941  10.264 -0.8396 -0.4139  0.7295
  148SAPE   C3216330   4.449   4.062  10.071  0.0297  0.3571  0.2088
  148SAPE   H2X16331   4.538   3.996  10.073  1.7895  2.6087  0.0505
  148SAPE   H2Y16332   4.478   4.169  10.060  0.1482  0.4451  1.2354
  148SAPE   C2316333   3.749   3.898  10.101 -0.5707  0.2958 -0.0649
  148SAPE   H3R16334   3.671   3.924  10.175  0.0595  0.7936  0.4418
  148SAPE   H3S16335   3.727   3.794  10.069 -0.6343 -0.3316  1.8875
  148SAPE   C2416336   3.744   3.999   9.986 -0.7437 -0.3804 -0.3787
  148SAPE   H4R16337   3.765   4.103  10.018 -1.7336  0.5524 -2.5604
  148SAPE   H4S16338   3.640   3.991   9.947 -0.2063 -2.6525 -1.4658
  148SAPE   C2516339   3.849   3.971   9.883 -0.2152 -0.4255 -0.6776
  148SAPE   H5R16340   3.941   3.924   9.922  0.6911  2.0066  0.3086
  148SAPE   C2616341   3.848   4.014   9.750 -0.0499 -0.0449 -0.4095
  148SAPE   H6R16342   3.934   3.990   9.686  1.3140  0.0911  1.3154
  148SAPE   C2716343   3.730   4.089   9.693 -0.1028  0.4910 -0.2474
  148SAPE   H7R16344   3.783   4.167   9.634  1.4145  0.1103  0.5707
  148SAPE   H7S16345   3.672   4.139   9.774  1.9951  0.1954  1.5195
  148SAPE   C2816346   3.641   4.019   9.591 -0.3975  0.4005  0.2705
  148SAPE   H8R16347   3.549   3.968   9.623 -0.5444 -0.2216 -1.0766
  148SAPE   C2916348   3.662   4.005   9.456 -0.1746  0.1872  0.1828
  148SAPE   H9R16349   3.596   3.964   9.378  0.6152 -2.5932  0.8701
  148SAPE  C21016350   3.787   4.063   9.400 -0.0424 -0.4479 -0.3436
  148SAPE  H10R16351   3.875   4.052   9.467 -0.4891  0.0051  0.3299
  148SAPE  H10S16352   3.774   4.173   9.394 -4.4476 -0.7580  0.4047
  148SAPE  C21116353   3.822   4.005   9.268  0.4784  0.6067  0.0091
  148SAPE  H11R16354   3.784   3.903   9.252 -1.4704  1.4622 -1.1794
  148SAPE  C21216355   3.889   4.060   9.166 -0.6501 -0.8597  0.2730
  148SAPE  H12R16356   3.895   4.009   9.068  1.6214 -0.4403  0.1374
  148SAPE  C21316357   3.944   4.201   9.170 -1.1584  0.5813 -0.4215
  148SAPE  H13R16358   4.048   4.202   9.130 -1.0144  3.5426 -0.1897
  148SAPE  H13S16359   3.957   4.236   9.275  4.3726  1.9240 -1.2101
  148SAPE  C21416360   3.858   4.299   9.093  0.6454 -0.2925  0.1510
  148SAPE  H14R16361   3.785   4.344   9.162 -0.3770 -3.8353  1.5801
  148SAPE  C21516362   3.855   4.326   8.958  0.3843 -1.2877  0.1119
  148SAPE  H15R16363   3.781   4.391   8.909  2.7128  0.5749 -1.1524
  148SAPE  C21616364   3.942   4.266   8.858 -0.2898  0.1008 -0.1933
  148SAPE  H16R16365   4.037   4.231   8.903  0.0013  2.1156  0.8442
  148SAPE  H16S16366   3.969   4.339   8.778  0.8296  1.2055  1.1350
  148SAPE  C21716367   3.874   4.147   8.789  0.0817  0.2652 -0.0130
  148SAPE  H17R16368   3.778   4.185   8.746  0.8162  0.9457 -1.0927
  148SAPE  H17S16369   3.864   4.063   8.860  2.2531  2.0902  2.6516
  148SAPE  C21816370   3.951   4.095   8.676 -0.3113 -0.1215  0.3203
  148SAPE  H18R16371   3.978   4.170   8.599 -1.9232  0.4795  0.2972
  148SAPE  H18S16372   3.887   4.015   8.631 -1.4114 -1.1488  3.4481
  148SAPE  C21916373   4.076   4.027   8.728  0.3634  0.5793  0.6654
  148SAPE  H19R16374   4.039   3.972   8.817  0.4243 -0.4523  0.0653
  148SAPE  H19S16375   4.150   4.106   8.750 -0.1107  0.8974  1.1507
  148SAPE  C22016376   4.141   3.928   8.634  1.2281  0.1031 -0.5165
  148SAPE  H20R16377   4.136   3.961   8.528 -1.5329  0.2803 -0.4005
  148SAPE  H20S16378   4.097   3.827   8.646  1.1632 -0.0829 -2.0405
  148SAPE  H20T16379   4.248   3.914   8.659  1.0082  0.9817  1.0113
  148SAPE   C3316380   4.363   4.017   9.949  0.2481  0.9632  0.2018
  148SAPE   H3X16381   4.263   4.066   9.953  0.8496  2.1306  2.5864
  148SAPE   H3Y16382   4.340   3.909   9.962  0.1430  0.8702 -0.7130
  148SAPE   C3416383   4.430   4.034   9.815  0.0147  0.5455 -0.1977
  148SAPE   H4X16384   4.524   3.974   9.818 -0.4640 -0.1986  0.0166
  148SAPE   H4Y16385   4.467   4.137   9.798 -1.4437  0.8101 -2.0520
  148SAPE   C3516386   4.342   3.987   9.698  0.0086  0.5191  0.2144
  148SAPE   H5X16387   4.258   4.060   9.698 -2.0597 -1.7196  0.2091
  148SAPE   H5Y16388   4.314   3.882   9.722  1.2101  0.0350 -0.4135
  148SAPE   C3616389   4.412   3.990   9.562 -0.3327 -0.4432  0.0508
  148SAPE   H6X16390   4.336   4.001   9.481 -0.3248  1.3704  0.2502
  148SAPE   H6Y16391   4.476   3.900   9.549  1.6409  1.0184 -0.9752
  148SAPE   C3716392   4.508   4.117   9.531  0.1086 -0.1589 -0.2009
  148SAPE   H7X16393   4.579   4.138   9.614 -3.0707  0.2165  2.6877
  148SAPE   H7Y16394   4.439   4.205   9.541  0.8970  0.4089  0.4325
  148SAPE   C3816395   4.586   4.120   9.405  0.1231 -0.6522  0.1056
  148SAPE   H8X16396   4.659   4.037   9.395  2.2384  1.0551  0.5121
  148SAPE   H8Y16397   4.651   4.210   9.407 -0.7220  0.0962 -2.3620
  148SAPE   C3916398   4.484   4.132   9.294  0.1825  0.3126  0.3876
  148SAPE   H9X16399   4.395   4.190   9.327 -1.3113 -2.9038  2.6521
  148SAPE   H9Y16400   4.429   4.036   9.281  1.0040 -0.3085  1.2749
  148SAPE  C31016401   4.544   4.180   9.158  0.5686  0.0516  0.1936
  148SAPE  H10X16402   4.645   4.135   9.147  1.7085  2.6510 -0.9419
  148SAPE  H10Y16403   4.550   4.291   9.164 -0.2432  0.0397  1.7521
  148SAPE  C31116404   4.455   4.144   9.042 -0.6633 -0.2796  0.3111
  148SAPE  H11X16405   4.352   4.184   9.050 -0.9800 -1.3387  2.4530
  148SAPE  H11Y16406   4.450   4.033   9.047  0.8380 -0.3561  0.8085
  148SAPE  C31216407   4.533   4.176   8.911 -0.3334  0.0923  0.2800
  148SAPE  H12X16408   4.636   4.134   8.919 -0.7837 -0.9222  0.9458
  148SAPE  H12Y16409   4.558   4.283   8.895  2.2631 -0.8075 -2.6768
  148SAPE  C31316410   4.462   4.127   8.790  0.4257 -0.9333 -0.2971
  148SAPE  H13X16411   4.356   4.159   8.792  0.5690  0.3255 -4.5296
  148SAPE  H13Y16412   4.468   4.016   8.786 -1.1200 -0.9993 -1.9886
  148SAPE  C31416413   4.521   4.187   8.657 -0.2856  0.0002 -0.4151
  148SAPE  H14X16414   4.628   4.159   8.657 -0.4883 -0.9200  1.0593
  148SAPE  H14Y16415   4.506   4.297   8.658 -0.9817 -0.0831  0.7457
  148SAPE  C31516416   4.459   4.129   8.527  1.4030  0.6814 -0.1314
  148SAPE  H15X16417   4.350   4.152   8.534  1.2226 -0.5373  2.1829
  148SAPE  H15Y16418   4.477   4.020   8.525 -0.5973  0.3063 -2.3059
  148SAPE  C31616419   4.527   4.192   8.408 -0.0049  0.3692 -0.7625
  148SAPE  H16X16420   4.490   4.139   8.318  1.4904 -2.0734 -0.0438
  148SAPE  H16Y16421   4.635   4.168   8.421 -0.3372 -0.0379  1.7385
  148SAPE  C31716422   4.521   4.340   8.381  0.3673  1.4389 -0.5785
  148SAPE  H17X16423   4.597   4.389   8.446 -1.1392  0.6518  1.9068
  148SAPE  H17Y16424   4.423   4.377   8.419 -1.2955  1.3283 -4.3488
  148SAPE  C31816425   4.524   4.380   8.231  0.2669  0.6506 -0.2241
  148SAPE  H18X16426   4.549   4.488   8.225  1.4323  0.6054  2.2255
  148SAPE  H18Y16427   4.428   4.353   8.182  0.6198 -0.8506 -0.1531
  148SAPE  H18Z16428   4.595   4.314   8.176 -1.5896 -0.7396 -1.0815
  149SAPE     N16429   4.320   0.414  11.240  0.5449 -0.0788 -0.2897
  149SAPE   HN116430   4.218   0.413  11.260  1.0244 -0.1089  2.5999
  149SAPE   HN216431   4.372   0.356  11.309 -1.6970 -0.1832  1.4241
  149SAPE   HN316432   4.362   0.508  11.256 -0.4968  0.0872  1.8092
  149SAPE   C1216433   4.339   0.383  11.100  0.6459 -0.3605  0.7403
  149SAPE  H12A16434   4.285   0.288  11.079 -0.1945 -0.5640  3.4521
  149SAPE  H12B16435   4.448   0.365  11.089  0.6958 -0.1024  0.8062
  149SAPE   C1116436   4.271   0.500  11.020 -0.9088  0.5095  0.0937
  149SAPE  H11A16437   4.162   0.497  11.038 -1.0079 -0.5545 -0.6133
  149SAPE  H11B16438   4.282   0.475  10.912 -0.3702  1.7723 -0.1715
  149SAPE     P16439   4.461   0.686  10.999 -0.0168 -0.0363  0.3180
  149SAPE   O1316440   4.502   0.806  11.075 -0.6506  0.2667 -0.8815
  149SAPE   O1416441   4.563   0.578  11.004 -0.5353  0.0232  0.0658
  149SAPE   O1216442   4.325   0.630  11.060  0.5734 -0.4470  0.3916
  149SAPE   O1116443   4.431   0.724  10.852 -0.1800 -0.0118 -0.4813
  149SAPE    C116444   4.297   0.769  10.813 -0.2769 -0.1313  0.1208
  149SAPE    HA16445   4.227   0.687  10.786 -1.4380  0.7526  0.3612
  149SAPE    HB16446   4.248   0.819  10.899  0.7091 -1.2703  1.3864
  149SAPE    C216447   4.296   0.866  10.688  0.9432  0.4847  0.3730
  149SAPE    HS16448   4.191   0.895  10.671  0.9641  1.0323  1.1503
  149SAPE   O2116449   4.348   0.810  10.567 -0.0465 -0.1188  0.0308
  149SAPE   C2116450   4.262   0.725  10.515  1.0315 -0.4283  0.7165
  149SAPE   O2216451   4.155   0.687  10.565 -0.8385 -0.4181 -0.2197
  149SAPE   C2216452   4.319   0.675  10.380 -0.2391  0.0796 -0.7736
  149SAPE   H2R16453   4.423   0.711  10.371 -0.2839  0.5427  0.3932
  149SAPE   H2S16454   4.324   0.564  10.385  0.1602  0.0768 -1.1877
  149SAPE    C316455   4.370   1.002  10.721  0.1876  0.3711 -0.3604
  149SAPE    HX16456   4.472   0.982  10.759  0.9774  3.6657 -0.4505
  149SAPE    HY16457   4.316   1.051  10.805 -0.4976 -1.9680  0.6190
  149SAPE   O3116458   4.370   1.088  10.603 -0.5219  0.3205  0.4706
  149SAPE   C3116459   4.486   1.101  10.545  0.1161  0.6778  0.5226
  149SAPE   O3216460   4.593   1.045  10.574 -0.4687  0.5078  0.6130
  149SAPE   C3216461   4.465   1.206  10.432 -0.0307 -0.0707  0.3035
  149SAPE   H2X16462   4.544   1.282  10.448  0.2975  0.0502 -1.6296
  149SAPE   H2Y16463   4.362   1.247  10.440 -0.7060 -1.3799 -1.1913
  149SAPE   C2316464   4.227   0.713  10.262 -0.9017  0.1723  0.2332
  149SAPE   H3R16465   4.289   0.744  10.175  1.1700 -0.4094  1.4382
  149SAPE   H3S16466   4.168   0.806  10.283  1.8301  2.4994 -1.6570
  149SAPE   C2416467   4.133   0.592  10.217  0.3495 -0.0864 -1.3324
  149SAPE   H4R16468   4.057   0.633  10.147 -0.0635 -1.6937 -1.8620
  149SAPE   H4S16469   4.073   0.564  10.306  1.5940  2.2103  0.3503
  149SAPE   C2516470   4.211   0.486  10.158 -0.3896  0.2755  0.1999
  149SAPE   H5R16471   4.238   0.402  10.223 -1.8854 -0.0030  0.4835
  149SAPE   C2616472   4.236   0.460  10.028  0.0279 -0.1537 -0.8489
  149SAPE   H6R16473   4.298   0.373  10.003 -0.7865 -0.5897 -1.4071
  149SAPE   C2716474   4.202   0.548   9.903 -0.6143  0.2636 -0.2127
  149SAPE   H7R16475   4.286   0.613   9.869 -1.7239  0.8446 -1.9913
  149SAPE   H7S16476   4.121   0.620   9.926 -0.1276  0.2260  1.8576
  149SAPE   C2816477   4.167   0.457   9.786 -0.4940  0.3585 -0.0461
  149SAPE   H8R16478   4.085   0.386   9.806 -0.1269 -0.0318  0.0843
  149SAPE   C2916479   4.217   0.465   9.656 -0.0840 -0.2856 -0.2462
  149SAPE   H9R16480   4.169   0.406   9.577 -1.1738  1.0233 -0.6007
  149SAPE  C21016481   4.316   0.568   9.601 -0.3786  0.2652  0.3403
  149SAPE  H10R16482   4.388   0.606   9.676  0.5368  0.6977 -0.7362
  149SAPE  H10S16483   4.264   0.662   9.576 -0.8476 -0.5712 -2.1312
  149SAPE  C21116484   4.410   0.514   9.491  0.2807  0.0055  0.1285
  149SAPE  H11R16485   4.504   0.475   9.533  0.7765 -0.0981 -1.0463
  149SAPE  C21216486   4.393   0.541   9.359 -0.1128  0.2581  0.5246
  149SAPE  H12R16487   4.477   0.517   9.292  0.6286  3.1262  0.3046
  149SAPE  C21316488   4.276   0.618   9.305  0.4421  0.0414  0.1969
  149SAPE  H13R16489   4.190   0.635   9.373 -0.2038 -2.4422  0.0993
  149SAPE  H13S16490   4.219   0.557   9.232 -0.2768  3.3959 -2.2998
  149SAPE  C21416491   4.327   0.745   9.231  0.8151  0.6644 -0.0849
  149SAPE  H14R16492   4.336   0.836   9.292 -0.3483 -0.3329  1.6834
  149SAPE  C21516493   4.348   0.760   9.103 -0.6586  0.0219  0.1408
  149SAPE  H15R16494   4.372   0.857   9.058 -0.2849  0.1006  0.5100
  149SAPE  C21616495   4.330   0.646   9.006  0.0585 -0.1869  0.4412
  149SAPE  H16R16496   4.257   0.566   9.032 -0.2833 -1.4097 -3.4842
  149SAPE  H16S16497   4.428   0.601   8.980  0.6857  0.3757  1.7633
  149SAPE  C21716498   4.272   0.693   8.877  0.7031 -0.8070  0.2911
  149SAPE  H17R16499   4.187   0.761   8.898  1.0672  0.6300 -2.3869
  149SAPE  H17S16500   4.227   0.609   8.820 -0.0660  0.4287 -1.0142
  149SAPE  C21816501   4.366   0.782   8.793  0.2254  0.2355  0.1855
  149SAPE  H18R16502   4.462   0.732   8.766  0.3872  0.7462 -0.2107
  149SAPE  H18S16503   4.380   0.876   8.850 -0.1055 -0.8395  2.1233
  149SAPE  C21916504   4.311   0.832   8.655 -0.0317  0.6387  0.2958
  149SAPE  H19R16505   4.209   0.874   8.668 -0.5701 -0.3457 -0.5848
  149SAPE  H19S16506   4.298   0.731   8.610  1.3572 -0.1186  1.4914
  149SAPE  C22016507   4.402   0.922   8.573  0.3765 -0.3309  0.2236
  149SAPE  H20R16508   4.502   0.874   8.585  0.3658 -0.8241 -1.4156
  149SAPE  H20S16509   4.408   1.025   8.616 -3.6256 -0.3035  1.0941
  149SAPE  H20T16510   4.370   0.929   8.467  0.2951 -0.6543  0.2249
  149SAPE   C3316511   4.475   1.142  10.293  0.7371 -0.2279  0.4206
  149SAPE   H3X16512   4.444   1.216  10.217  1.6027 -1.0600 -0.7690
  149SAPE   H3Y16513   4.405   1.057  10.285 -0.8752  1.1181 -0.1574
  149SAPE   C3416514   4.614   1.084  10.253  0.5462  0.2703  0.2489
  149SAPE   H4X16515   4.635   0.993  10.313 -1.3883 -1.3025 -1.3116
  149SAPE   H4Y16516   4.679   1.171  10.274 -2.1199  2.0849  1.5896
  149SAPE   C3516517   4.623   1.045  10.101  0.0404  0.0910 -0.0787
  149SAPE   H5X16518   4.729   1.015  10.086  0.2161  1.3825 -1.6159
  149SAPE   H5Y16519   4.603   1.135  10.039  0.6879  0.7962  0.7164
  149SAPE   C3616520   4.533   0.927  10.069 -0.3548  0.3227  0.1670
  149SAPE   H6X16521   4.435   0.975  10.049  0.3352  0.8292 -2.3940
  149SAPE   H6Y16522   4.517   0.857  10.153  3.5510 -0.2419  0.6119
  149SAPE   C3716523   4.560   0.836   9.954 -0.9535 -0.2814 -0.0295
  149SAPE   H7X16524   4.476   0.767   9.930 -0.6966 -1.0227  1.1026
  149SAPE   H7Y16525   4.639   0.759   9.969 -1.6672 -0.8085  1.1683
  149SAPE   C3816526   4.596   0.919   9.823 -0.1013  0.6509  0.5630
  149SAPE   H8X16527   4.698   0.957   9.844 -0.4601  2.8669 -1.3584
  149SAPE   H8Y16528   4.530   1.008   9.814  0.4363  1.0384  0.4084
  149SAPE   C3916529   4.594   0.827   9.702  0.1657  0.4189  0.0780
  149SAPE   H9X16530   4.494   0.779   9.702  1.0491 -1.5792 -0.8387
  149SAPE   H9Y16531   4.666   0.742   9.698 -0.4050 -0.0697  0.1592
  149SAPE  C31016532   4.616   0.918   9.580 -0.5088  0.6937  0.4015
  149SAPE  H10X16533   4.716   0.961   9.598 -0.3991  1.1125 -1.1012
  149SAPE  H10Y16534   4.548   1.006   9.583 -0.3194  0.8491  0.0582
  149SAPE  C31116535   4.606   0.835   9.452  0.3254  0.1935  0.1362
  149SAPE  H11X16536   4.499   0.806   9.444  0.3348  0.1864  0.0302
  149SAPE  H11Y16537   4.668   0.743   9.450 -0.4218 -0.3189 -0.5200
  149SAPE  C31216538   4.640   0.922   9.330  0.4945  0.0856  0.0080
  149SAPE  H12X16539   4.708   0.995   9.379  1.2003 -0.9385  0.6087
  149SAPE  H12Y16540   4.553   0.964   9.276  1.4167 -0.1894 -1.7665
  149SAPE  C31316541   4.741   0.854   9.238 -0.1596  0.0304 -0.3520
  149SAPE  H13X16542   4.692   0.761   9.201 -1.6923  0.8110 -0.3127
  149SAPE  H13Y16543   4.827   0.833   9.306 -0.1757 -0.7796 -0.5618
  149SAPE  C31416544   4.797   0.950   9.136  0.3554  0.1053  0.0552
  149SAPE  H14X16545   4.903   0.937   9.104  1.3605  2.7779  1.9713
  149SAPE  H14Y16546   4.805   1.056   9.169  0.4896  0.2752 -0.5180
  149SAPE  C31516547   4.724   0.947   9.000 -0.2098 -0.2118 -0.5797
  149SAPE  H15X16548   4.629   0.892   9.011 -0.7079  0.7428 -0.0072
  149SAPE  H15Y16549   4.792   0.903   8.923 -1.6748 -0.7777 -1.5835
  149SAPE  C31616550   4.695   1.089   8.944  0.2141  0.1268 -0.5949
  149SAPE  H16X16551   4.797   1.126   8.918  0.9973 -1.1863  0.4740
  149SAPE  H16Y16552   4.643   1.143   9.026  2.3207  0.7723  0.3879
  149SAPE  C31716553   4.601   1.090   8.828 -0.3695 -0.3078  0.0690
  149SAPE  H17X16554   4.512   1.037   8.868 -0.8971 -0.1053 -0.7961
  149SAPE  H17Y16555   4.644   1.034   8.742 -4.0788 -1.5230 -1.2009
  149SAPE  C31816556   4.561   1.229   8.772  0.1552 -0.0407 -0.2849
  149SAPE  H18X16557   4.487   1.219   8.689 -1.2910  1.8790  0.7157
  149SAPE  H18Y16558   4.646   1.292   8.740 -1.2558  1.6329 -0.9223
  149SAPE  H18Z16559   4.501   1.286   8.846  0.7862  2.5283 -1.6685
  150SAPE     N16560   5.563   0.734  10.972  0.3168  0.7259 -0.0534
  150SAPE   HN116561   5.644   0.675  10.947  0.6545  1.0601  0.2326
  150SAPE   HN216562   5.562   0.741  11.076 -0.9248  0.4719 -0.0374
  150SAPE   HN316563   5.478   0.691  10.930  0.3845  0.1042  0.4398
  150SAPE   C1216564   5.594   0.872  10.909 -0.3945  0.8364  0.1712
  150SAPE  H12A16565   5.593   0.860  10.798 -2.0584 -0.7788  0.3070
  150SAPE  H12B16566   5.699   0.894  10.938  0.2708  0.4513 -1.7326
  150SAPE   C1116567   5.500   0.979  10.953 -0.3807  0.3452  0.5103
  150SAPE  H11A16568   5.528   1.067  10.891  1.5357 -1.0436 -0.7178
  150SAPE  H11B16569   5.513   0.995  11.062 -2.4610 -0.6938  0.9644
  150SAPE     P16570   5.276   0.985  10.820 -0.4103 -0.1375  0.0815
  150SAPE   O1316571   5.153   0.905  10.824 -0.1543 -0.2204  0.2943
  150SAPE   O1416572   5.247   1.132  10.820 -0.5766 -1.0198  0.2474
  150SAPE   O1216573   5.364   0.940  10.948 -0.0341 -0.0566  0.0380
  150SAPE   O1116574   5.363   0.937  10.697 -0.4108 -0.4445 -0.7609
  150SAPE    C116575   5.394   1.014  10.583  0.1774 -0.1137  0.1651
  150SAPE    HA16576   5.414   1.117  10.621  1.6317 -0.3518  0.1098
  150SAPE    HB16577   5.480   0.976  10.524 -0.6528  2.3881 -2.9301
  150SAPE    C216578   5.273   1.014  10.484  0.4388 -0.0725 -0.3509
  150SAPE    HS16579   5.192   1.077  10.527  0.1034 -0.4130 -0.4869
  150SAPE   O2116580   5.233   0.874  10.469 -0.0432  0.3328 -0.9028
  150SAPE   C2116581   5.102   0.854  10.476  0.5291  0.0779 -0.2984
  150SAPE   O2216582   5.016   0.940  10.497 -0.0095  0.1769 -0.6162
  150SAPE   C2216583   5.071   0.704  10.449 -0.1690  0.0108 -0.3520
  150SAPE   H2R16584   5.169   0.656  10.470  0.2249  0.6539 -0.6802
  150SAPE   H2S16585   5.000   0.661  10.522  1.3682  0.3134  1.3832
  150SAPE    C316586   5.312   1.080  10.351 -0.5351  0.3027 -0.2763
  150SAPE    HX16587   5.399   1.020  10.315 -0.8790  0.0557 -0.7090
  150SAPE    HY16588   5.358   1.179  10.371 -1.9341  1.0076 -0.4384
  150SAPE   O3116589   5.201   1.091  10.261  0.5446 -0.2688 -0.0754
  150SAPE   C3116590   5.115   1.188  10.281 -0.6920 -0.8268  0.5138
  150SAPE   O3216591   5.134   1.284  10.350  0.4087 -0.0765  0.1764
  150SAPE   C3216592   4.983   1.175  10.202 -1.2356 -0.2308  0.0241
  150SAPE   H2X16593   4.911   1.235  10.262 -1.8164 -0.4448 -0.4524
  150SAPE   H2Y16594   4.946   1.073  10.226 -2.4235  0.7516  2.7079
  150SAPE   C2316595   5.032   0.698  10.303  0.2347  0.6916 -0.9388
  150SAPE   H3R16596   5.067   0.596  10.277  0.5653 -0.2391  2.7295
  150SAPE   H3S16597   5.101   0.763  10.243  0.7564  1.6689  0.6556
  150SAPE   C2416598   4.887   0.731  10.276  0.6736  0.0683  0.3622
  150SAPE   H4R16599   4.868   0.735  10.167  1.9994  0.9270  0.1511
  150SAPE   H4S16600   4.870   0.833  10.317  0.2227  0.5944 -1.0937
  150SAPE   C2516601   4.794   0.635  10.343 -0.3066  0.0735  0.1565
  150SAPE   H5R16602   4.789   0.642  10.453 -1.7704 -0.1991  0.1280
  150SAPE   C2616603   4.713   0.548  10.282 -0.4199 -0.6117  0.4774
  150SAPE   H6R16604   4.646   0.487  10.344 -2.8763  0.0340 -1.3838
  150SAPE   C2716605   4.684   0.526  10.135 -0.3737  0.0520  0.1940
  150SAPE   H7R16606   4.738   0.600  10.073 -0.1012 -1.3060 -1.2476
  150SAPE   H7S16607   4.581   0.555  10.106  0.8095  3.0364 -1.3519
  150SAPE   C2816608   4.720   0.386  10.090 -0.3362  0.4291 -0.3572
  150SAPE   H8R16609   4.773   0.322  10.162  1.3635  0.7736 -1.2566
  150SAPE   C2916610   4.690   0.333   9.972 -0.0440  0.7019 -0.3799
  150SAPE   H9R16611   4.721   0.228   9.962 -1.0198 -0.1519  3.7370
  150SAPE  C21016612   4.613   0.409   9.867 -0.8556  0.0097  0.3769
  150SAPE  H10R16613   4.671   0.495   9.829 -3.0879  1.9586  1.1635
  150SAPE  H10S16614   4.523   0.457   9.910  0.2344  2.3837  0.1609
  150SAPE  C21116615   4.577   0.315   9.756  0.0239  0.3421  0.6381
  150SAPE  H11R16616   4.478   0.273   9.779 -0.0760  0.3217  0.1979
  150SAPE  C21216617   4.633   0.276   9.642  0.1890 -0.1403  0.2360
  150SAPE  H12R16618   4.590   0.196   9.579  0.5165 -0.1812  0.0598
  150SAPE  C21316619   4.772   0.322   9.599  0.0854  0.2132 -0.2899
  150SAPE  H13R16620   4.827   0.238   9.552  0.6990  0.4855 -0.0799
  150SAPE  H13S16621   4.841   0.333   9.685  2.3068 -0.0938 -1.9214
  150SAPE  C21416622   4.773   0.444   9.515 -0.0824 -0.6879 -0.1062
  150SAPE  H14R16623   4.787   0.540   9.567  0.7572 -1.0206  0.2926
  150SAPE  C21516624   4.774   0.447   9.382 -0.2800  0.0024 -0.1933
  150SAPE  H15R16625   4.782   0.549   9.343  0.2152  0.6558  1.5228
  150SAPE  C21616626   4.767   0.344   9.273 -0.0263  0.8563 -0.1847
  150SAPE  H16R16627   4.710   0.261   9.319  1.8563 -1.0605 -1.1586
  150SAPE  H16S16628   4.870   0.304   9.262 -0.6364 -0.5039 -1.3105
  150SAPE  C21716629   4.712   0.393   9.144  0.4059 -0.3354  0.4880
  150SAPE  H17R16630   4.745   0.498   9.133  2.0051 -0.9840 -1.6844
  150SAPE  H17S16631   4.601   0.390   9.152  0.2495  2.3624  0.0725
  150SAPE  C21816632   4.752   0.324   9.016  0.3244 -0.1471 -0.6836
  150SAPE  H18R16633   4.740   0.217   9.043  2.3539 -0.2588 -0.0433
  150SAPE  H18S16634   4.863   0.328   9.013  0.5560  0.3442  3.3662
  150SAPE  C21916635   4.674   0.362   8.891 -0.1062  0.1208  0.4333
  150SAPE  H19R16636   4.720   0.317   8.800 -0.5653 -0.3145  0.4122
  150SAPE  H19S16637   4.668   0.472   8.887 -0.5865  0.1276  1.1312
  150SAPE  C22016638   4.530   0.298   8.891 -0.0116 -0.3141 -0.2607
  150SAPE  H20R16639   4.523   0.190   8.864  0.1099 -0.0844 -1.2407
  150SAPE  H20S16640   4.463   0.355   8.822  0.6819 -0.3751 -1.0031
  150SAPE  H20T16641   4.485   0.308   8.992 -0.2773  0.0080 -0.4095
  150SAPE   C3316642   4.985   1.213  10.056 -0.3870  0.4180  0.4375
  150SAPE   H3X16643   5.046   1.304  10.034  1.7671 -0.9769  0.3826
  150SAPE   H3Y16644   4.885   1.241  10.016 -0.3679  1.6563  1.1987
  150SAPE   C3416645   5.045   1.087   9.979  0.8327  0.5798 -0.8593
  150SAPE   H4X16646   5.011   0.997  10.033  0.4701  1.5458  0.5796
  150SAPE   H4Y16647   5.156   1.093   9.979  1.1487 -2.1272  2.6713
  150SAPE   C3516648   4.985   1.071   9.842  0.3997 -0.1210  0.9916
  150SAPE   H5X16649   4.875   1.060   9.850  0.4709 -3.2147 -0.6091
  150SAPE   H5Y16650   5.019   0.975   9.797  1.2520  0.4823  0.3239
  150SAPE   C3616651   5.018   1.183   9.739  0.3047 -0.9009 -0.7716
  150SAPE   H6X16652   5.129   1.188   9.740  0.3650 -1.2367  1.6091
  150SAPE   H6Y16653   4.972   1.274   9.783 -1.2670 -2.1607  0.3313
  150SAPE   C3716654   4.974   1.144   9.598 -0.0925 -1.0355  0.3856
  150SAPE   H7X16655   4.865   1.141   9.576  0.3469 -0.3919 -2.2898
  150SAPE   H7Y16656   4.987   1.037   9.571 -1.6640 -0.8240 -1.3980
  150SAPE   C3816657   5.044   1.229   9.488 -0.4233 -0.0677 -0.1652
  150SAPE   H8X16658   5.152   1.208   9.506 -0.0046  0.8375 -1.4703
  150SAPE   H8Y16659   5.026   1.338   9.501  0.2456 -0.1018  1.3236
  150SAPE   C3916660   4.998   1.216   9.341 -0.9308  0.1134 -0.6153
  150SAPE   H9X16661   4.890   1.241   9.332 -1.7578 -3.2803 -1.5655
  150SAPE   H9Y16662   5.004   1.108   9.314  0.4931 -0.6479  2.2983
  150SAPE  C31016663   5.078   1.301   9.244  0.1378  0.0616 -0.4135
  150SAPE  H10X16664   5.187   1.281   9.252  0.0928 -0.2701 -0.6250
  150SAPE  H10Y16665   5.059   1.408   9.268 -0.8561 -0.2313  0.1176
  150SAPE  C31116666   5.026   1.263   9.102  0.4434  0.0589 -0.1822
  150SAPE  H11X16667   4.920   1.295   9.106  0.2663 -0.5490  0.1812
  150SAPE  H11Y16668   5.046   1.154   9.089  3.0143  0.5610 -1.2572
  150SAPE  C31216669   5.101   1.324   8.994  0.6617 -0.1033 -0.3874
  150SAPE  H12X16670   5.206   1.293   9.012 -0.1582 -2.4051  0.8669
  150SAPE  H12Y16671   5.087   1.433   9.010 -0.7085 -0.0420 -1.7077
  150SAPE  C31316672   5.050   1.286   8.852  0.4346 -0.5089  0.5920
  150SAPE  H13X16673   5.099   1.359   8.785  1.5897 -1.2357  0.5991
  150SAPE  H13Y16674   4.940   1.299   8.853  0.1977 -2.1981 -0.1260
  150SAPE  C31416675   5.084   1.148   8.811  0.6444  0.3895 -0.2979
  150SAPE  H14X16676   5.057   1.072   8.888 -0.4291  0.2438 -0.7998
  150SAPE  H14Y16677   5.193   1.135   8.794  1.2417  0.6592  2.8400
  150SAPE  C31516678   5.017   1.100   8.679 -0.1981  0.2260 -0.5294
  150SAPE  H15X16679   4.908   1.115   8.691 -0.1289  1.0299 -0.7949
  150SAPE  H15Y16680   5.031   0.990   8.675  1.9801  0.4523 -0.2547
  150SAPE  C31616681   5.048   1.169   8.542  0.2621  0.5203  0.0531
  150SAPE  H16X16682   5.159   1.174   8.533  0.3147 -1.7365 -1.2744
  150SAPE  H16Y16683   5.006   1.272   8.547 -0.5707  0.1751  0.2155
  150SAPE  C31716684   4.997   1.090   8.423 -0.0320  0.2094 -0.3638
  150SAPE  H17X16685   4.999   1.154   8.332 -1.6564  0.0907 -0.5117
  150SAPE  H17Y16686   4.888   1.070   8.427 -0.5904  1.9374 -3.3830
  150SAPE  C31816687   5.059   0.951   8.401 -0.4536 -0.2032  0.1171
  150SAPE  H18X16688   5.166   0.962   8.430 -0.2161 -1.4406 -0.2399
  150SAPE  H18Y16689   5.052   0.914   8.296 -1.1189 -1.0066  0.4395
  150SAPE  H18Z16690   5.012   0.876   8.467  0.5699 -1.7657 -0.8657
  151SAPE     N16691   5.427   2.767  10.621 -0.2713  0.5721 -0.1566
  151SAPE   HN116692   5.511   2.717  10.656  0.4733  0.6556 -1.7454
  151SAPE   HN216693   5.407   2.858  10.667 -4.1880 -0.0625 -0.1952
  151SAPE   HN316694   5.332   2.724  10.632 -0.5617  1.2326 -0.0668
  151SAPE   C1216695   5.460   2.798  10.477 -0.8017 -0.6115 -0.2734
  151SAPE  H12A16696   5.491   2.699  10.436  2.4041 -0.3000  1.0921
  151SAPE  H12B16697   5.554   2.857  10.470 -2.4191  2.1395 -0.3545
  151SAPE   C1116698   5.337   2.850  10.404  0.0327 -0.3017 -0.4099
  151SAPE  H11A16699   5.376   2.870  10.302 -0.7310 -3.3904 -1.3906
  151SAPE  H11B16700   5.296   2.943  10.450  0.0267 -0.9649  0.9878
  151SAPE     P16701   5.097   2.755  10.480  0.0052  0.0390  0.1120
  151SAPE   O1316702   5.031   2.626  10.452  0.1017 -0.5488 -0.5425
  151SAPE   O1416703   5.105   2.799  10.621  0.0518  0.1477  0.1732
  151SAPE   O1216704   5.238   2.752  10.408 -0.6137 -0.7677 -0.2362
  151SAPE   O1116705   5.021   2.873  10.398  0.2468  0.3695 -0.0679
  151SAPE    C116706   4.980   2.866  10.265  0.2243  0.1678  0.1777
  151SAPE    HA16707   4.974   2.765  10.218 -1.7550  0.5137 -0.4334
  151SAPE    HB16708   4.879   2.911  10.251 -0.3508 -1.4083 -1.0335
  151SAPE    C216709   5.076   2.944  10.175  0.7468 -0.0174 -0.1439
  151SAPE    HS16710   5.175   2.895  10.188  0.8623  0.2306 -0.0790
  151SAPE   O2116711   5.087   3.070  10.226  0.0410 -0.1090  0.0486
  151SAPE   C2116712   5.208   3.120  10.212  0.1404  0.4620  0.2951
  151SAPE   O2216713   5.301   3.073  10.145 -0.0130  0.4229  0.2719
  151SAPE   C2216714   5.210   3.252  10.293  0.0176  0.4120 -0.1407
  151SAPE   H2R16715   5.108   3.281  10.325 -0.9676 -1.4881 -1.3563
  151SAPE   H2S16716   5.246   3.216  10.392 -0.7353  0.6448  0.2195
  151SAPE    C316717   5.026   2.948  10.035 -0.3351 -0.5555 -0.1114
  151SAPE    HX16718   4.922   2.989  10.034 -1.0063 -1.9597  2.6170
  151SAPE    HY16719   5.011   2.849   9.987  0.3576 -1.5846  1.7112
  151SAPE   O3116720   5.108   3.034   9.960  0.2822  0.3243  0.5575
  151SAPE   C3116721   5.211   2.974   9.899  0.2802  0.1858  0.5381
  151SAPE   O3216722   5.235   2.854   9.907  0.1355  0.0087 -0.0124
  151SAPE   C3216723   5.300   3.069   9.814  0.6337  0.2373  0.1610
  151SAPE   H2X16724   5.355   3.133   9.886  5.3314 -2.3889 -0.6530
  151SAPE   H2Y16725   5.236   3.133   9.749 -0.3835  0.1441  1.0360
  151SAPE   C2316726   5.287   3.371  10.226 -0.1206  0.7412  0.6540
  151SAPE   H3R16727   5.391   3.339  10.208 -0.4926  0.2412 -0.7481
  151SAPE   H3S16728   5.284   3.453  10.301  0.0538 -0.5043  2.0725
  151SAPE   C2416729   5.229   3.402  10.084  0.2337 -0.2097  0.2200
  151SAPE   H4R16730   5.119   3.400  10.099  0.2128  0.8725  0.2946
  151SAPE   H4S16731   5.266   3.319  10.019 -0.1052  0.1655 -0.4619
  151SAPE   C2516732   5.287   3.536  10.043 -0.4373 -0.6893 -0.8725
  151SAPE   H5R16733   5.354   3.585  10.115 -0.0806 -0.8479 -1.0990
  151SAPE   C2616734   5.271   3.603   9.928 -0.1287  0.3970 -0.0212
  151SAPE   H6R16735   5.293   3.711   9.928  1.2409  0.1372 -0.4349
  151SAPE   C2716736   5.195   3.547   9.814  0.0611  0.3079  0.8172
  151SAPE   H7R16737   5.169   3.628   9.742 -0.7185  0.1184  0.8781
  151SAPE   H7S16738   5.098   3.501   9.841 -0.7008  1.2254 -0.2459
  151SAPE   C2816739   5.277   3.445   9.737  0.3097  0.0780  0.0671
  151SAPE   H8R16740   5.344   3.388   9.803  1.3022  0.8485 -0.2521
  151SAPE   C2916741   5.268   3.410   9.606  0.3415  0.3524 -0.6902
  151SAPE   H9R16742   5.331   3.330   9.565  2.5434  1.4002  0.5075
  151SAPE  C21016743   5.167   3.482   9.515  0.0104 -0.1675  0.0593
  151SAPE  H10R16744   5.083   3.528   9.571 -0.0508  1.2974 -1.1817
  151SAPE  H10S16745   5.125   3.411   9.440 -0.4863  0.7393 -0.5439
  151SAPE  C21116746   5.231   3.597   9.444 -0.1434  0.3138 -0.5526
  151SAPE  H11R16747   5.296   3.655   9.512  1.1700 -1.3484 -0.3468
  151SAPE  C21216748   5.221   3.634   9.316 -0.3353 -0.2169 -0.5321
  151SAPE  H12R16749   5.280   3.723   9.287 -0.3656  0.6603  1.8135
  151SAPE  C21316750   5.142   3.562   9.211  0.2857 -0.0384 -0.8195
  151SAPE  H13R16751   5.033   3.588   9.213  0.1549 -0.4950  1.4588
  151SAPE  H13S16752   5.143   3.456   9.244  0.7483  0.0290 -0.6131
  151SAPE  C21416753   5.208   3.561   9.077 -0.1424  0.0003 -0.4300
  151SAPE  H14R16754   5.317   3.578   9.072  0.0505 -0.3069  1.7605
  151SAPE  C21516755   5.145   3.505   8.976 -0.1825 -0.3472 -0.5319
  151SAPE  H15R16756   5.188   3.487   8.876 -0.6571  0.7503 -0.9528
  151SAPE  C21616757   5.008   3.448   8.987 -0.2214 -0.2204  0.2255
  151SAPE  H16R16758   4.932   3.524   9.013 -0.4130  0.3785 -1.8553
  151SAPE  H16S16759   4.995   3.366   9.061  0.0944 -1.2769 -0.8434
  151SAPE  C21716760   4.959   3.392   8.846 -0.0752  0.9226 -0.8865
  151SAPE  H17R16761   4.854   3.359   8.858 -0.0606  0.6911 -1.3862
  151SAPE  H17S16762   5.021   3.301   8.835  0.9534  1.7972 -2.9719
  151SAPE  C21816763   4.953   3.492   8.730  0.8837 -0.5023  0.1302
  151SAPE  H18R16764   5.045   3.554   8.720  0.2848  0.3242 -0.2965
  151SAPE  H18S16765   4.871   3.563   8.751 -0.4074 -2.4251  1.9434
  151SAPE  C21916766   4.916   3.430   8.590 -0.2938  0.0968  1.1507
  151SAPE  H19R16767   5.004   3.369   8.562 -0.9196 -0.5101  0.4600
  151SAPE  H19S16768   4.903   3.519   8.525  1.3093 -0.6301 -0.2114
  151SAPE  C22016769   4.790   3.336   8.594 -0.5595  0.2847  0.6470
  151SAPE  H20R16770   4.694   3.387   8.618 -0.9585 -0.1215 -0.0325
  151SAPE  H20S16771   4.809   3.250   8.661  2.8043  2.3760  2.6212
  151SAPE  H20T16772   4.776   3.294   8.492  1.5074 -1.2512  0.9329
  151SAPE   C3316773   5.404   2.984   9.731 -0.1852 -0.3518  0.7005
  151SAPE   H3X16774   5.430   2.892   9.787 -2.4057 -1.6175 -0.2109
  151SAPE   H3Y16775   5.498   3.042   9.722 -0.2718 -0.2656  0.3258
  151SAPE   C3416776   5.362   2.940   9.589 -0.3179  0.6645  0.0803
  151SAPE   H4X16777   5.262   2.893   9.582  0.0602  0.0146 -1.3745
  151SAPE   H4Y16778   5.434   2.862   9.556 -1.0424  0.7690 -1.8927
  151SAPE   C3516779   5.362   3.054   9.490  0.4735 -0.4402 -0.2348
  151SAPE   H5X16780   5.450   3.118   9.514 -0.1928  0.5758 -0.3949
  151SAPE   H5Y16781   5.272   3.120   9.489  0.8332  0.0585 -0.9444
  151SAPE   C3616782   5.372   3.008   9.342  0.1101 -0.4879 -0.5849
  151SAPE   H6X16783   5.284   2.943   9.323 -1.2274  1.3556 -1.0005
  151SAPE   H6Y16784   5.470   2.958   9.325  1.5874  2.1469 -0.3346
  151SAPE   C3716785   5.362   3.114   9.232  0.1399  0.1100 -0.0274
  151SAPE   H7X16786   5.457   3.170   9.218 -0.1123  0.3174 -0.9804
  151SAPE   H7Y16787   5.283   3.186   9.265  0.9050  0.0854  1.9725
  151SAPE   C3816788   5.332   3.047   9.085 -0.2872 -0.4583 -0.3502
  151SAPE   H8X16789   5.238   2.988   9.086 -1.6633  1.6546 -0.5839
  151SAPE   H8Y16790   5.422   2.983   9.071  1.3662  1.6047  0.3895
  151SAPE   C3916791   5.320   3.144   8.968 -0.3629 -0.7210 -0.1800
  151SAPE   H9X16792   5.396   3.226   8.970 -3.1095  2.0149 -0.4117
  151SAPE   H9Y16793   5.222   3.196   8.963 -0.3348 -0.6935 -0.5162
  151SAPE  C31016794   5.338   3.065   8.828 -0.2259 -0.3547  0.1963
  151SAPE  H10X16795   5.259   2.988   8.814 -1.5161  0.7075  1.3792
  151SAPE  H10Y16796   5.438   3.016   8.825 -0.2088 -0.3168  0.1430
  151SAPE  C31116797   5.351   3.164   8.710  0.1017  0.2231  0.1621
  151SAPE  H11X16798   5.434   3.238   8.715 -1.0311  1.7660 -2.0926
  151SAPE  H11Y16799   5.260   3.226   8.727 -1.2466 -1.2258 -1.4669
  151SAPE  C31216800   5.332   3.091   8.578  0.2475  0.4122 -0.2373
  151SAPE  H12X16801   5.233   3.040   8.586  0.4214 -0.8649 -3.9306
  151SAPE  H12Y16802   5.409   3.013   8.559 -2.2815 -1.9988 -1.2873
  151SAPE  C31316803   5.311   3.177   8.453 -0.7904 -0.2289  0.1592
  151SAPE  H13X16804   5.399   3.246   8.452  0.6528 -1.9715  1.2162
  151SAPE  H13Y16805   5.216   3.230   8.475 -0.3372  2.1739 -2.8900
  151SAPE  C31416806   5.299   3.090   8.319 -0.5475 -0.0273 -0.0093
  151SAPE  H14X16807   5.270   3.158   8.237  2.1120  0.7861 -0.3641
  151SAPE  H14Y16808   5.225   3.008   8.334  1.7330 -1.6426  4.7622
  151SAPE  C31516809   5.432   3.035   8.282  0.1635 -0.5020 -0.0754
  151SAPE  H15X16810   5.482   2.979   8.363 -0.6444 -0.2711  0.5993
  151SAPE  H15Y16811   5.491   3.123   8.250 -0.6080 -0.2598 -0.8869
  151SAPE  C31616812   5.427   2.931   8.170 -0.5056 -0.3197 -0.0642
  151SAPE  H16X16813   5.530   2.924   8.129 -0.0818 -1.6289  1.1668
  151SAPE  H16Y16814   5.369   2.974   8.085 -1.0187 -4.3367 -1.9899
  151SAPE  C31716815   5.384   2.790   8.202  0.7669  0.8249  0.7846
  151SAPE  H17X16816   5.274   2.788   8.215  0.7830  0.0874  0.8772
  151SAPE  H17Y16817   5.431   2.766   8.300 -0.4099 -1.9824  0.7678
  151SAPE  C31816818   5.423   2.684   8.091  0.7825 -0.4176 -0.6114
  151SAPE  H18X16819   5.533   2.679   8.081  0.8077  0.5100 -0.8692
  151SAPE  H18Y16820   5.375   2.726   8.000 -1.1175  1.8530  1.2841
  151SAPE  H18Z16821   5.379   2.584   8.112 -5.3174  1.7087 -1.1866
  152SAPE     N16822   1.317   1.361  10.777  0.6063  0.1521 -0.4087
  152SAPE   HN116823   1.248   1.438  10.790 -0.6902 -0.9629 -0.4675
  152SAPE   HN216824   1.294   1.275  10.830 -1.0471  0.0451 -1.1981
  152SAPE   HN316825   1.414   1.394  10.790  1.2785 -2.1410  0.8511
  152SAPE   C1216826   1.318   1.340  10.630  0.3629 -0.2269 -0.1247
  152SAPE  H12A16827   1.215   1.325  10.589  0.8012  0.2733 -1.4589
  152SAPE  H12B16828   1.394   1.260  10.613  1.2673  1.0067 -2.2734
  152SAPE   C1116829   1.387   1.469  10.569 -0.2438  0.0369  0.4497
  152SAPE  H11A16830   1.314   1.553  10.562  1.6075  1.6727 -0.3838
  152SAPE  H11B16831   1.424   1.437  10.469 -2.3450  0.2257 -0.4329
  152SAPE     P16832   1.578   1.640  10.640  0.1553  0.3910 -0.1379
  152SAPE   O1316833   1.492   1.753  10.689 -0.1132 -0.6628  0.5310
  152SAPE   O1416834   1.699   1.618  10.717  0.1504  0.2697 -0.8183
  152SAPE   O1216835   1.489   1.508  10.659  0.5824 -0.5188  0.1378
  152SAPE   O1116836   1.614   1.641  10.489  0.2416 -0.0768 -0.1029
  152SAPE    C116837   1.726   1.711  10.439  1.0386  0.0406 -0.2110
  152SAPE    HA16838   1.816   1.664  10.485  1.7656  3.1803  1.8966
  152SAPE    HB16839   1.723   1.712  10.328  0.7868 -0.9065 -0.2182
  152SAPE    C216840   1.739   1.858  10.475  0.2023  0.1254 -1.1247
  152SAPE    HS16841   1.757   1.858  10.584 -1.3712 -3.6978 -0.7400
  152SAPE   O2116842   1.626   1.929  10.435  0.3102 -0.7650 -0.0018
  152SAPE   C2116843   1.595   2.033  10.515 -0.4349 -0.3407  0.2673
  152SAPE   O2216844   1.662   2.071  10.610  0.2588 -0.3312 -0.0284
  152SAPE   C2216845   1.482   2.114  10.454  0.4084  0.4910 -0.2182
  152SAPE   H2R16846   1.399   2.136  10.524 -0.3420 -0.7497 -0.6811
  152SAPE   H2S16847   1.526   2.214  10.436  1.2086  0.0374 -0.8972
  152SAPE    C316848   1.862   1.926  10.402 -0.0861 -0.2082 -0.2572
  152SAPE    HX16849   1.955   1.874  10.432  0.2112  0.9119  0.8293
  152SAPE    HY16850   1.883   2.026  10.446  3.2913 -0.1073 -1.8256
  152SAPE   O3116851   1.836   1.903  10.261 -0.5965  0.0315  0.0968
  152SAPE   C3116852   1.806   2.015  10.197  0.4695 -0.2632  0.7898
  152SAPE   O3216853   1.815   2.126  10.245 -0.7304 -0.0729  0.6993
  152SAPE   C3216854   1.751   1.982  10.060  0.3212 -0.3110  0.1075
  152SAPE   H2X16855   1.664   1.917  10.081  0.3271 -0.9386 -1.6002
  152SAPE   H2Y16856   1.825   1.922  10.003 -0.3257 -0.6424 -0.4017
  152SAPE   C2316857   1.424   2.052  10.319  0.2689 -0.0416  0.4581
  152SAPE   H3R16858   1.391   1.948  10.340 -2.3965  0.5005 -0.6911
  152SAPE   H3S16859   1.514   2.062  10.253 -0.0771 -0.5346 -0.1057
  152SAPE   C2416860   1.306   2.125  10.259 -0.8134  0.4929  0.2918
  152SAPE   H4R16861   1.240   2.147  10.346 -0.2600 -0.3717  0.9540
  152SAPE   H4S16862   1.257   2.056  10.187  1.5988 -1.9461  0.7689
  152SAPE   C2516863   1.344   2.258  10.193 -0.2184  0.7449 -0.2029
  152SAPE   H5R16864   1.381   2.328  10.269  0.7728 -2.1437  2.1844
  152SAPE   C2616865   1.353   2.280  10.063  0.6388 -0.2454 -0.3913
  152SAPE   H6R16866   1.375   2.380  10.024  2.8906 -1.1111 -1.5566
  152SAPE   C2716867   1.330   2.180   9.954 -0.0765 -0.1326  0.2601
  152SAPE   H7R16868   1.345   2.077   9.992  2.6239  0.4492  0.9747
  152SAPE   H7S16869   1.403   2.192   9.872 -1.4726 -2.7038 -1.5154
  152SAPE   C2816870   1.192   2.197   9.896 -0.5598 -0.0582  0.1474
  152SAPE   H8R16871   1.117   2.233   9.968 -0.7621  2.3404 -1.1508
  152SAPE   C2916872   1.157   2.201   9.763 -0.6338  0.5964  0.2977
  152SAPE   H9R16873   1.051   2.209   9.736 -0.7080 -2.5241 -0.7705
  152SAPE  C21016874   1.259   2.177   9.647 -0.3454 -1.0471 -0.1451
  152SAPE  H10R16875   1.344   2.120   9.691  1.2861  1.3965  0.0899
  152SAPE  H10S16876   1.314   2.268   9.614 -1.0819 -0.6384 -0.2687
  152SAPE  C21116877   1.204   2.113   9.524 -0.8051 -0.1871  0.7694
  152SAPE  H11R16878   1.151   2.178   9.452 -0.8219  0.1422  1.0799
  152SAPE  C21216879   1.245   1.992   9.474  0.5597  0.8885 -0.0145
  152SAPE  H12R16880   1.188   1.966   9.384  0.9160 -0.5127  0.1462
  152SAPE  C21316881   1.341   1.893   9.528  0.1630 -0.3208  0.2250
  152SAPE  H13R16882   1.363   1.908   9.636  1.3668 -3.2059  0.4716
  152SAPE  H13S16883   1.433   1.912   9.469 -1.1879  0.5668 -1.7286
  152SAPE  C21416884   1.299   1.749   9.493  0.3500 -0.2868 -0.1049
  152SAPE  H14R16885   1.246   1.695   9.573  1.8814  0.3867  1.4181
  152SAPE  C21516886   1.351   1.681   9.383  0.3055 -0.4589 -0.5467
  152SAPE  H15R16887   1.321   1.575   9.385 -0.3509 -0.2789 -0.6305
  152SAPE  C21616888   1.449   1.730   9.283  0.2458 -0.4052 -0.6883
  152SAPE  H16R16889   1.517   1.646   9.259  1.1969  0.2316 -0.2556
  152SAPE  H16S16890   1.520   1.809   9.315 -1.6713  0.7776  0.8765
  152SAPE  C21716891   1.385   1.764   9.144  0.5886  0.3982  0.2029
  152SAPE  H17R16892   1.280   1.733   9.131  0.8152  0.3190 -1.6768
  152SAPE  H17S16893   1.434   1.708   9.062 -0.5096 -1.4395  0.7625
  152SAPE  C21816894   1.374   1.917   9.126 -0.0267 -0.6410  0.0838
  152SAPE  H18R16895   1.341   1.962   9.222 -1.5122  0.4932 -0.9164
  152SAPE  H18S16896   1.294   1.951   9.057  1.5777  2.5313 -0.3666
  152SAPE  C21916897   1.497   1.982   9.069 -0.2788 -0.8846  0.2018
  152SAPE  H19R16898   1.514   1.946   8.965  1.0565  0.6950 -0.1498
  152SAPE  H19S16899   1.586   1.955   9.130  1.1087 -0.3345 -1.5128
  152SAPE  C22016900   1.482   2.135   9.060 -0.0003 -0.6344  0.0850
  152SAPE  H20R16901   1.492   2.180   9.161  2.3387 -1.5366  0.3239
  152SAPE  H20S16902   1.394   2.169   9.003  0.2316  0.7766  0.5302
  152SAPE  H20T16903   1.567   2.173   8.999  1.0579 -2.1302  0.5770
  152SAPE   C3316904   1.719   2.111   9.975  0.1934  0.2728 -0.2878
  152SAPE   H3X16905   1.814   2.168   9.962  0.3315  0.4971  1.4930
  152SAPE   H3Y16906   1.647   2.168  10.037 -0.3385 -1.3859  0.7033
  152SAPE   C3416907   1.659   2.086   9.834  0.1291 -0.0114  0.2690
  152SAPE   H4X16908   1.607   2.176   9.796  0.1152  0.2082  0.8016
  152SAPE   H4Y16909   1.571   2.018   9.837 -0.6572  0.9961  0.9759
  152SAPE   C3516910   1.759   2.051   9.723 -0.1750  0.3516 -0.6130
  152SAPE   H5X16911   1.813   1.955   9.739  2.7524  2.2280  1.9993
  152SAPE   H5Y16912   1.840   2.127   9.729 -0.6976  0.8105  2.0241
  152SAPE   C3616913   1.693   2.060   9.582  0.1840  0.1146 -0.1306
  152SAPE   H6X16914   1.646   2.161   9.570 -1.3734 -0.0232  3.5139
  152SAPE   H6Y16915   1.608   1.988   9.577 -0.3304  0.6519  0.5249
  152SAPE   C3716916   1.794   2.023   9.477 -0.1069  0.1921  0.5348
  152SAPE   H7X16917   1.810   1.915   9.501  0.1028  0.6501  2.7194
  152SAPE   H7Y16918   1.889   2.076   9.500 -1.1725  1.5581  2.0328
  152SAPE   C3816919   1.751   2.066   9.339  0.0324 -0.1517 -0.2506
  152SAPE   H8X16920   1.744   2.176   9.339 -1.0796 -0.2048  0.7411
  152SAPE   H8Y16921   1.647   2.032   9.325 -0.4801  1.5119 -0.6410
  152SAPE   C3916922   1.858   2.017   9.238  0.4746  0.4710  0.6047
  152SAPE   H9X16923   1.954   2.063   9.270  1.2638 -1.0168  0.4461
  152SAPE   H9Y16924   1.833   2.059   9.138  0.3149 -2.1131 -0.5046
  152SAPE  C31016925   1.876   1.868   9.241 -1.1353  0.5683  0.7377
  152SAPE  H10X16926   1.779   1.814   9.236  0.1997 -1.8753 -1.8347
  152SAPE  H10Y16927   1.923   1.843   9.338  0.2688 -3.0055 -0.6998
  152SAPE  C31116928   1.959   1.802   9.133 -1.5111  0.0285 -0.3706
  152SAPE  H11X16929   1.988   1.700   9.164  2.9400  0.4972 -2.2693
  152SAPE  H11Y16930   2.053   1.858   9.117 -1.3637  0.0949  0.6703
  152SAPE  C31216931   1.888   1.772   9.003 -0.2795  0.2451  0.0786
  152SAPE  H12X16932   1.967   1.759   8.926 -0.4646 -0.2989 -0.0257
  152SAPE  H12Y16933   1.816   1.852   8.975  0.7148  1.8265  1.8530
  152SAPE  C31316934   1.801   1.641   9.004  0.7516  0.1745 -0.0632
  152SAPE  H13X16935   1.754   1.632   9.104  3.1541 -0.6816  1.0643
  152SAPE  H13Y16936   1.862   1.549   8.988  0.9789  0.4572 -0.8777
  152SAPE  C31416937   1.701   1.648   8.881 -0.0338  0.0734  0.0705
  152SAPE  H14X16938   1.746   1.701   8.794 -2.9279  0.7206 -1.1527
  152SAPE  H14Y16939   1.604   1.699   8.901  0.3602  0.8713 -0.0256
  152SAPE  C31516940   1.653   1.514   8.827  0.0508  0.2784  0.5266
  152SAPE  H15X16941   1.599   1.448   8.898 -0.4487 -1.0226 -1.0110
  152SAPE  H15Y16942   1.745   1.457   8.803 -1.3324 -1.4591 -0.8887
  152SAPE  C31616943   1.562   1.533   8.700 -0.7742  0.0682 -0.4592
  152SAPE  H16X16944   1.486   1.603   8.740  3.2445  3.4468  2.2227
  152SAPE  H16Y16945   1.516   1.438   8.667  0.5819 -0.3704 -1.1669
  152SAPE  C31716946   1.636   1.594   8.577 -0.0839 -0.3513  0.3494
  152SAPE  H17X16947   1.734   1.546   8.555  0.8055  2.0346 -1.2040
  152SAPE  H17Y16948   1.667   1.695   8.612 -0.6072 -0.5145  1.3324
  152SAPE  C31816949   1.548   1.601   8.455 -0.0717 -0.5669 -0.4584
  152SAPE  H18X16950   1.511   1.499   8.428 -0.0842 -1.2951  2.1154
  152SAPE  H18Y16951   1.595   1.653   8.369 -1.4074  0.6146 -0.5134
  152SAPE  H18Z16952   1.455   1.655   8.483  0.5029 -0.3572  1.0841
  153SAPE     N16953   0.197   3.048  11.018 -0.5075  0.2980 -0.4257
  153SAPE   HN116954   0.137   3.115  10.966  1.9859  0.6267 -3.0637
  153SAPE   HN216955   0.211   3.090  11.112 -1.5704 -2.4721  1.1285
  153SAPE   HN316956   0.291   3.055  10.974  0.2308 -0.1289  1.0222
  153SAPE   C1216957   0.140   2.906  11.022  0.0058  0.3791  0.0944
  153SAPE  H12A16958   0.082   2.903  11.117  2.3039  1.5417  1.6330
  153SAPE  H12B16959   0.214   2.823  11.020  0.2496  0.6019 -0.5252
  153SAPE   C1116960   0.037   2.891  10.913  0.0169  0.0384 -0.1409
  153SAPE  H11A16961  -0.015   2.794  10.921  1.0374 -0.5031  0.0535
  153SAPE  H11B16962   0.087   2.876  10.815  3.0194 -1.3629  1.4609
  153SAPE     P16963  -0.100   3.070  10.774  0.2443 -0.0453  0.1224
  153SAPE   O1316964  -0.110   2.963  10.665  0.6377  0.7447 -0.5610
  153SAPE   O1416965  -0.215   3.166  10.792 -0.7775  0.2105  0.3769
  153SAPE   O1216966  -0.067   2.994  10.912 -0.7530 -0.0624 -0.3583
  153SAPE   O1116967   0.042   3.135  10.751  0.0793  0.2885  0.1549
  153SAPE    C116968   0.071   3.271  10.785  0.3468 -0.6535 -0.2963
  153SAPE    HA16969   0.024   3.314  10.876  1.3526  0.5881 -0.3510
  153SAPE    HB16970   0.179   3.283  10.809  0.9421 -2.6500 -1.6448
  153SAPE    C216971   0.050   3.371  10.668 -0.0209 -1.1777 -0.4890
  153SAPE    HS16972  -0.054   3.406  10.682  0.7073  1.0712 -0.2281
  153SAPE   O2116973   0.079   3.302  10.539  0.2566 -0.2546  0.2151
  153SAPE   C2116974   0.000   3.348  10.438  0.3416  0.2644 -0.7133
  153SAPE   O2216975  -0.086   3.433  10.450 -0.6272  0.0214 -0.0096
  153SAPE   C2216976   0.024   3.255  10.318 -0.2864  0.0641 -0.0395
  153SAPE   H2R16977   0.040   3.155  10.363 -1.1306  0.1887  0.5661
  153SAPE   H2S16978  -0.058   3.264  10.243  1.8022 -0.9937 -2.6053
  153SAPE    C316979   0.151   3.492  10.687  0.0117  0.3866  0.2489
  153SAPE    HX16980   0.256   3.455  10.696  0.4729  1.3779 -0.8203
  153SAPE    HY16981   0.137   3.545  10.783 -0.2666 -0.2701  0.5772
  153SAPE   O3116982   0.147   3.572  10.568 -0.6315  0.0762  0.0043
  153SAPE   C3116983   0.046   3.656  10.572  0.1851  0.7166  0.0734
  153SAPE   O3216984  -0.024   3.681  10.669 -0.6476 -0.1167 -0.0447
  153SAPE   C3216985   0.034   3.728  10.433 -0.1434 -0.3073  0.2728
  153SAPE   H2X16986  -0.011   3.828  10.449  0.3135  0.7611 -4.0387
  153SAPE   H2Y16987  -0.024   3.662  10.366  0.7006 -0.7696 -0.0136
  153SAPE   C2316988   0.161   3.291  10.249 -0.7137 -0.4653 -0.5218
  153SAPE   H3R16989   0.177   3.215  10.169  1.8480  0.0562 -0.5847
  153SAPE   H3S16990   0.238   3.267  10.326 -1.8740  0.8634  1.1370
  153SAPE   C2416991   0.173   3.427  10.179 -0.2039  0.1235  0.0115
  153SAPE   H4R16992   0.282   3.448  10.168 -0.1626 -0.7404 -1.3864
  153SAPE   H4S16993   0.148   3.500  10.258  0.8613  0.4656  0.0465
  153SAPE   C2516994   0.082   3.446  10.059  0.5636 -0.2724 -1.2840
  153SAPE   H5R16995  -0.023   3.471  10.082  0.7946 -1.5847  1.6680
  153SAPE   C2616996   0.119   3.468   9.931  0.1704  0.2182 -0.6248
  153SAPE   H6R16997   0.037   3.490   9.861 -0.2160 -2.0102 -0.9564
  153SAPE   C2716998   0.256   3.463   9.879 -1.0679 -0.0388  0.4815
  153SAPE   H7R16999   0.334   3.434   9.952  0.8577 -0.6249 -1.7067
  153SAPE   H7S17000   0.285   3.568   9.856  2.5671 -0.6018  1.8484
  153SAPE   C2817001   0.277   3.365   9.763  0.2005 -0.0062  0.1614
  153SAPE   H8R17002   0.234   3.265   9.782 -0.6986  0.2975 -0.2240
  153SAPE   C2917003   0.323   3.381   9.640 -0.5851 -0.2582  0.5773
  153SAPE   H9R17004   0.331   3.298   9.568 -1.7996  0.7669 -0.8073
  153SAPE  C21017005   0.375   3.510   9.591 -0.8542  0.1964 -0.3973
  153SAPE  H10R17006   0.483   3.512   9.617 -1.5623 -0.3347  3.0674
  153SAPE  H10S17007   0.337   3.601   9.642  1.5975  1.5165 -0.7799
  153SAPE  C21117008   0.349   3.540   9.443 -0.3054  0.1195 -1.1141
  153SAPE  H11R17009   0.260   3.600   9.418 -1.5661  0.0272  2.5527
  153SAPE  C21217010   0.437   3.514   9.341  0.5985  0.0298 -0.9463
  153SAPE  H12R17011   0.403   3.557   9.246 -3.7730  2.3183  1.3428
  153SAPE  C21317012   0.575   3.448   9.342  0.1674 -0.2108 -0.9888
  153SAPE  H13R17013   0.591   3.394   9.438 -0.6196  0.2997 -0.5587
  153SAPE  H13S17014   0.649   3.531   9.348 -0.4868  0.3322 -0.2231
  153SAPE  C21417015   0.603   3.359   9.226  0.1432 -0.0339  0.0364
  153SAPE  H14R17016   0.603   3.251   9.248 -1.5077 -0.3000 -1.0730
  153SAPE  C21517017   0.648   3.402   9.100 -0.0693  0.1269 -0.0480
  153SAPE  H15R17018   0.666   3.331   9.018  0.9676 -0.6343  0.8088
  153SAPE  C21617019   0.663   3.546   9.055 -0.8596 -0.4074  0.6707
  153SAPE  H16R17020   0.690   3.616   9.136  0.1431  1.9556 -1.5572
  153SAPE  H16S17021   0.579   3.594   9.001  0.8233  0.7779 -1.0266
  153SAPE  C21717022   0.788   3.560   8.964 -0.0570  0.4020 -0.2555
  153SAPE  H17R17023   0.804   3.668   8.943 -2.0567  0.9141  0.5752
  153SAPE  H17S17024   0.766   3.525   8.861 -0.8258 -2.3817  0.7529
  153SAPE  C21817025   0.914   3.500   9.017 -0.7946  0.4347 -0.6215
  153SAPE  H18R17026   0.917   3.396   8.979  0.5191  0.2420 -0.0762
  153SAPE  H18S17027   0.931   3.501   9.127 -1.7099  0.1679 -0.4716
  153SAPE  C21917028   1.043   3.561   8.964 -0.8833 -0.2105  0.4480
  153SAPE  H19R17029   1.128   3.494   8.984  0.3083  0.7731 -1.0946
  153SAPE  H19S17030   1.069   3.660   9.008 -1.8945 -0.2338  1.1311
  153SAPE  C22017031   1.047   3.580   8.807  0.1168  0.3035 -0.2122
  153SAPE  H20R17032   1.148   3.611   8.772 -0.4457  1.7566 -0.6246
  153SAPE  H20S17033   0.971   3.652   8.770  1.0956  0.6129 -1.6854
  153SAPE  H20T17034   1.015   3.487   8.755 -0.7842  1.2139 -1.3473
  153SAPE   C3317035   0.173   3.752  10.356 -0.3660  0.6147 -0.4500
  153SAPE   H3X17036   0.236   3.660  10.352 -0.4877  0.4767  0.5422
  153SAPE   H3Y17037   0.225   3.828  10.419  1.0359 -0.4439 -0.2887
  153SAPE   C3417038   0.147   3.802  10.215  0.3552  0.7137  0.5384
  153SAPE   H4X17039   0.072   3.883  10.221 -1.6775 -1.0535 -0.0147
  153SAPE   H4Y17040   0.104   3.717  10.158  1.3369 -1.0140  2.2393
  153SAPE   C3517041   0.270   3.867  10.153 -0.1060 -0.3537  0.0859
  153SAPE   H5X17042   0.345   3.786  10.134 -0.3968 -1.0752  1.7855
  153SAPE   H5Y17043   0.312   3.938  10.227  0.8143  0.0110 -0.7665
  153SAPE   C3617044   0.239   3.941  10.020 -0.1989  0.0869 -0.2843
  153SAPE   H6X17045   0.328   3.996   9.982  0.3391 -0.4465  0.1887
  153SAPE   H6Y17046   0.158   4.018  10.024  0.4469  1.1908 -4.2106
  153SAPE   C3717047   0.197   3.842   9.912  0.3571  0.6206 -0.4635
  153SAPE   H7X17048   0.143   3.759   9.961 -0.9728  0.7479 -1.6361
  153SAPE   H7Y17049   0.293   3.813   9.864  0.6421  0.9030 -0.0689
  153SAPE   C3817050   0.100   3.911   9.812  0.3212  0.2857 -0.6444
  153SAPE   H8X17051   0.140   4.013   9.793  3.1948 -0.7291 -0.6024
  153SAPE   H8Y17052   0.006   3.929   9.869  0.4024  0.1431 -0.4635
  153SAPE   C3917053   0.085   3.833   9.688 -0.2084  0.3547  0.3340
  153SAPE   H9X17054   0.031   3.736   9.695 -2.3645  1.4322 -0.3216
  153SAPE   H9Y17055   0.184   3.810   9.644  1.4767  2.4395  2.7256
  153SAPE  C31017056  -0.002   3.918   9.582  0.0966  0.5075 -0.1363
  153SAPE  H10X17057   0.036   4.022   9.578  1.0421  0.1634 -0.7150
  153SAPE  H10Y17058  -0.110   3.914   9.607  0.4843  2.2048  2.1825
  153SAPE  C31117059   0.018   3.869   9.441 -0.3911  0.6776  0.0264
  153SAPE  H11X17060  -0.037   3.773   9.429  0.5187  0.2285 -0.7079
  153SAPE  H11Y17061   0.125   3.846   9.422 -0.5405  0.7046 -0.8832
  153SAPE  C31217062  -0.037   3.964   9.333  0.0303 -0.3099 -0.0375
  153SAPE  H12X17063   0.029   4.052   9.321 -0.9987  0.2322 -2.1385
  153SAPE  H12Y17064  -0.138   3.990   9.374  0.1867 -0.4843  0.4725
  153SAPE  C31317065  -0.053   3.897   9.206  0.1641  0.3078 -0.4297
  153SAPE  H13X17066  -0.095   3.972   9.136  0.3969  0.6021 -0.2576
  153SAPE  H13Y17067  -0.134   3.822   9.221  0.4266  0.1523  0.2505
  153SAPE  C31417068   0.077   3.840   9.147  0.1992  0.1560 -1.0710
  153SAPE  H14X17069   0.124   3.770   9.219  0.4965  1.0045 -0.4195
  153SAPE  H14Y17070   0.136   3.931   9.124 -1.7679  1.8785  0.2873
  153SAPE  C31517071   0.054   3.746   9.031  0.0821  0.2615  0.5636
  153SAPE  H15X17072  -0.020   3.665   9.052 -0.2454  0.3700 -0.1554
  153SAPE  H15Y17073   0.143   3.693   8.992  0.8916  1.3466  0.9104
  153SAPE  C31617074   0.002   3.824   8.905 -0.3152 -0.3461 -0.3221
  153SAPE  H16X17075   0.064   3.916   8.900  2.5102 -2.0954  0.1951
  153SAPE  H16Y17076  -0.102   3.846   8.937  0.5017  1.5062  1.2599
  153SAPE  C31717077  -0.002   3.746   8.777  0.4927  0.0402  0.4630
  153SAPE  H17X17078  -0.055   3.652   8.802  0.4157  0.1215  0.6061
  153SAPE  H17Y17079   0.095   3.707   8.739  0.2122  0.6596 -0.9498
  153SAPE  C31817080  -0.075   3.812   8.664 -0.2994 -0.1924  0.4571
  153SAPE  H18X17081  -0.096   3.747   8.576 -2.2714  0.7636  0.1724
  153SAPE  H18Y17082  -0.008   3.895   8.633  0.1338 -0.1250  1.5343
  153SAPE  H18Z17083  -0.173   3.856   8.689 -1.6634 -0.9012 -2.9941
  154SAPE     N17084   6.486   1.690  10.800  0.1259  0.0552 -0.4433
  154SAPE   HN117085   6.571   1.712  10.856 -1.8633  2.5880  1.8304
  154SAPE   HN217086   6.413   1.756  10.834 -1.0264 -0.4819 -1.7464
  154SAPE   HN317087   6.456   1.596  10.833 -0.5048 -0.5751 -2.6457
  154SAPE   C1217088   6.510   1.692  10.648 -0.0898 -0.2973  0.3206
  154SAPE  H12A17089   6.489   1.796  10.613  1.0897  1.1257  3.4237
  154SAPE  H12B17090   6.436   1.628  10.598 -0.2262  0.2238 -0.1545
  154SAPE   C1117091   6.655   1.647  10.621 -0.6947 -0.1882  0.4677
  154SAPE  H11A17092   6.729   1.714  10.669 -2.0439  0.4892  1.6751
  154SAPE  H11B17093   6.667   1.644  10.510 -2.1328  0.4998  0.2728
  154SAPE     P17094   6.817   1.468  10.733 -0.1676 -0.3707 -0.0560
  154SAPE   O1317095   6.879   1.581  10.807  0.3184  0.6141  0.1276
  154SAPE   O1417096   6.798   1.339  10.797 -0.1615 -0.1830 -0.2179
  154SAPE   O1217097   6.682   1.520  10.666  0.2375  0.6682  0.2370
  154SAPE   O1117098   6.905   1.447  10.606  0.2628  0.3434  0.2765
  154SAPE    C117099   7.023   1.524  10.573  0.6221 -0.3527  0.4301
  154SAPE    HA17100   7.070   1.573  10.661  0.9302  1.7079 -0.8320
  154SAPE    HB17101   7.106   1.459  10.536 -1.3388 -2.1829 -1.0548
  154SAPE    C217102   6.997   1.633  10.469 -0.6133 -0.5179  0.0532
  154SAPE    HS17103   6.911   1.691  10.508 -1.4348 -1.6285 -0.0540
  154SAPE   O2117104   6.960   1.560  10.353 -0.0700 -0.5288  0.8861
  154SAPE   C2117105   6.877   1.634  10.267 -0.6272  0.2012  0.1441
  154SAPE   O2217106   6.817   1.738  10.307  0.1335  0.1188  0.6472
  154SAPE   C2217107   6.858   1.573  10.129  0.3682  0.4428 -0.6903
  154SAPE   H2R17108   6.948   1.590  10.066  1.2674  0.6320  0.5886
  154SAPE   H2S17109   6.844   1.465  10.148 -0.5698  0.6968  0.1857
  154SAPE    C317110   7.119   1.727  10.439  0.2596 -0.3340  0.6538
  154SAPE    HX17111   7.134   1.784  10.533 -1.4037  2.3465 -0.5776
  154SAPE    HY17112   7.090   1.810  10.371  3.3269  0.2543 -0.0587
  154SAPE   O3117113   7.237   1.661  10.399  0.2767  0.1516 -0.6213
  154SAPE   C3117114   7.270   1.656  10.275  0.4071  0.4303 -0.1173
  154SAPE   O3217115   7.202   1.697  10.183 -0.0944  0.6236  0.3578
  154SAPE   C3217116   7.413   1.586  10.257 -0.7766  0.5597  0.3686
  154SAPE   H2X17117   7.400   1.487  10.305 -0.7814 -1.0975 -2.7777
  154SAPE   H2Y17118   7.501   1.630  10.308  1.8147 -2.3382 -1.2179
  154SAPE   C2317119   6.725   1.621  10.064 -0.3677 -0.2497  0.4122
  154SAPE   H3R17120   6.649   1.646  10.142  0.6764  0.7272  1.1518
  154SAPE   H3S17121   6.680   1.546   9.997 -0.0956  0.0895 -0.1542
  154SAPE   C2417122   6.738   1.752   9.988 -0.7020 -0.4343  0.1253
  154SAPE   H4R17123   6.820   1.723   9.919 -0.1586 -0.3326  0.7099
  154SAPE   H4S17124   6.781   1.834  10.049 -1.6595  1.0018 -1.0824
  154SAPE   C2517125   6.620   1.799   9.902 -0.5091  0.5734  0.0835
  154SAPE   H5R17126   6.534   1.833   9.962 -0.4902  0.8323 -0.0356
  154SAPE   C2617127   6.610   1.803   9.771 -0.2279  0.0536  0.3978
  154SAPE   H6R17128   6.520   1.848   9.726  0.6438  0.0264 -1.4639
  154SAPE   C2717129   6.716   1.764   9.662 -0.4316 -0.3424 -0.3556
  154SAPE   H7R17130   6.673   1.754   9.560  2.6522 -1.4744 -1.6803
  154SAPE   H7S17131   6.751   1.661   9.684 -0.3010 -0.2988 -0.3589
  154SAPE   C2817132   6.843   1.840   9.662  0.4329 -0.1556  0.3353
  154SAPE   H8R17133   6.894   1.863   9.757  0.8827 -1.5874  0.4582
  154SAPE   C2917134   6.907   1.875   9.550 -0.4662  0.8459  1.1744
  154SAPE   H9R17135   7.003   1.929   9.554  0.7283 -1.0416 -0.3553
  154SAPE  C21017136   6.880   1.854   9.406  0.8089 -0.0168  0.7484
  154SAPE  H10R17137   6.839   1.951   9.370 -1.7514 -0.8452  1.1913
  154SAPE  H10S17138   6.801   1.777   9.393  2.4728 -1.7618  0.5338
  154SAPE  C21117139   6.994   1.816   9.322 -0.4446 -0.0571 -0.0621
  154SAPE  H11R17140   7.005   1.711   9.292  1.1609  0.4420 -1.3555
  154SAPE  C21217141   7.100   1.881   9.272  0.2892  0.4277  0.5530
  154SAPE  H12R17142   7.171   1.825   9.210  2.6374  0.9705  2.5865
  154SAPE  C21317143   7.124   2.027   9.285  0.2095  1.2227  0.6123
  154SAPE  H13R17144   7.159   2.052   9.388 -0.3086  0.3172  1.0265
  154SAPE  H13S17145   7.024   2.074   9.276 -0.8231 -1.0679 -0.9863
  154SAPE  C21417146   7.225   2.064   9.179 -0.5640 -0.3838  0.0874
  154SAPE  H14R17147   7.331   2.046   9.204 -0.6804 -2.8467 -0.9515
  154SAPE  C21517148   7.192   2.108   9.057  0.7453 -0.4963  0.6131
  154SAPE  H15R17149   7.271   2.140   8.987 -2.1408  1.6865 -1.9561
  154SAPE  C21617150   7.056   2.136   9.001  0.1801  0.5469  0.4994
  154SAPE  H16R17151   7.008   2.202   9.078  0.1554 -1.0049  1.8750
  154SAPE  H16S17152   7.004   2.038   8.998  0.1897  0.5497 -2.6939
  154SAPE  C21717153   7.070   2.199   8.859 -1.2433  0.4117 -0.2921
  154SAPE  H17R17154   7.122   2.298   8.855  0.4511 -0.4181  0.2398
  154SAPE  H17S17155   6.965   2.212   8.828 -1.0765  2.0504 -0.2971
  154SAPE  C21817156   7.139   2.104   8.755 -0.0581  0.2483 -0.4698
  154SAPE  H18R17157   7.099   2.006   8.788 -0.0394 -0.1057 -1.4595
  154SAPE  H18S17158   7.246   2.099   8.783 -0.3811 -2.1483  0.5855
  154SAPE  C21917159   7.114   2.123   8.604  0.1617 -0.1809 -0.2980
  154SAPE  H19R17160   7.006   2.110   8.582  0.2022 -3.2154  0.7872
  154SAPE  H19S17161   7.157   2.046   8.537  1.1491  3.2782 -4.0448
  154SAPE  C22017162   7.156   2.265   8.545  0.1282  0.1432  0.9699
  154SAPE  H20R17163   7.095   2.350   8.583  3.0430  1.4012  3.2654
  154SAPE  H20S17164   7.140   2.255   8.435  1.3898 -0.5791  0.8310
  154SAPE  H20T17165   7.263   2.284   8.566 -0.3781  3.0600  1.3358
  154SAPE   C3317166   7.447   1.547  10.104 -0.6082  0.0715 -0.5008
  154SAPE   H3X17167   7.460   1.640  10.044 -0.3190  0.8213  0.6752
  154SAPE   H3Y17168   7.372   1.478  10.062 -0.7333 -0.1954  0.1453
  154SAPE   C3417169   7.574   1.470  10.094  0.5071  0.5962 -0.0414
  154SAPE   H4X17170   7.589   1.376  10.151 -0.4468  1.0780  1.0417
  154SAPE   H4Y17171   7.662   1.524  10.135  1.3729  0.2036 -1.3305
  154SAPE   C3517172   7.618   1.420   9.950 -0.0046  0.0301  0.2044
  154SAPE   H5X17173   7.549   1.336   9.926  0.1724 -0.0103 -0.1758
  154SAPE   H5Y17174   7.721   1.380   9.941  0.6481  1.9530 -2.0780
  154SAPE   C3617175   7.607   1.529   9.833 -0.5546 -0.1287 -0.3759
  154SAPE   H6X17176   7.679   1.606   9.868 -1.2422  0.4196 -0.1264
  154SAPE   H6Y17177   7.509   1.581   9.840  0.1347  1.2505 -0.5345
  154SAPE   C3717178   7.642   1.480   9.690 -0.1621 -0.2707  0.4713
  154SAPE   H7X17179   7.577   1.407   9.637 -0.9273  0.3480  0.5382
  154SAPE   H7Y17180   7.743   1.435   9.697  0.0123 -0.9094 -3.6073
  154SAPE   C3817181   7.663   1.596   9.588  0.0531 -0.5974 -0.2050
  154SAPE   H8X17182   7.742   1.664   9.626 -1.6888  1.4931 -0.1207
  154SAPE   H8Y17183   7.575   1.658   9.559  0.7480 -0.0390 -1.1946
  154SAPE   C3917184   7.717   1.535   9.452  0.0676  0.1103 -0.4232
  154SAPE   H9X17185   7.634   1.469   9.420 -1.1004  0.5344  1.5870
  154SAPE   H9Y17186   7.809   1.474   9.461 -1.9386 -3.0932 -0.1579
  154SAPE  C31017187   7.727   1.649   9.345 -0.5225 -0.4471  0.1249
  154SAPE  H10X17188   7.812   1.715   9.372  1.0845 -1.3503 -2.2860
  154SAPE  H10Y17189   7.629   1.700   9.340  0.0099  0.5275 -0.8629
  154SAPE  C31117190   7.756   1.600   9.200 -0.0906  0.6420 -0.0286
  154SAPE  H11X17191   7.670   1.534   9.175  0.0725  1.2215 -2.2933
  154SAPE  H11Y17192   7.843   1.532   9.187 -0.6057  0.0158 -0.2513
  154SAPE  C31217193   7.789   1.715   9.106  0.6524  0.0206  0.7991
  154SAPE  H12X17194   7.850   1.676   9.022  1.5786  0.4611  1.2433
  154SAPE  H12Y17195   7.853   1.778   9.172  1.8745 -0.7485  0.3924
  154SAPE  C31317196   7.667   1.800   9.056 -0.3241  0.1715 -1.1136
  154SAPE  H13X17197   7.604   1.827   9.144 -1.9186 -0.8784 -1.8940
  154SAPE  H13Y17198   7.612   1.736   8.985  1.0116 -0.8917 -1.2295
  154SAPE  C31417199   7.708   1.928   8.978 -0.2391  0.8025  0.9224
  154SAPE  H14X17200   7.784   1.899   8.903 -0.0427 -0.5768  1.6200
  154SAPE  H14Y17201   7.751   2.002   9.050  1.8088  1.0038 -0.4318
  154SAPE  C31517202   7.582   1.985   8.916  0.6622  0.6878  0.1909
  154SAPE  H15X17203   7.495   1.980   8.986 -1.5408 -3.8559 -2.3876
  154SAPE  H15Y17204   7.553   1.909   8.840 -2.4421 -0.1172  1.9610
  154SAPE  C31617205   7.598   2.117   8.868 -0.7615  0.0887 -0.3978
  154SAPE  H16X17206   7.646   2.180   8.947  0.6982  0.3668 -1.4458
  154SAPE  H16Y17207   7.495   2.152   8.849 -0.8577  0.0419  0.0215
  154SAPE  C31717208   7.679   2.120   8.737 -0.5482 -0.0032 -1.2019
  154SAPE  H17X17209   7.648   2.037   8.670 -0.6100 -1.1235  0.1599
  154SAPE  H17Y17210   7.781   2.083   8.765 -0.1175  0.1133 -2.5534
  154SAPE  C31817211   7.687   2.256   8.678  0.3171  0.0697 -0.7416
  154SAPE  H18X17212   7.590   2.296   8.641 -0.1333  2.7437  2.7730
  154SAPE  H18Y17213   7.765   2.256   8.599 -0.0077 -3.4330 -1.2001
  154SAPE  H18Z17214   7.724   2.324   8.758 -0.0231 -1.3503  0.6743
  155SAPE     N17215   1.410   2.600  11.091 -0.3817 -0.3650  0.6358
  155SAPE   HN117216   1.335   2.625  11.023  1.0685 -1.8844 -1.6782
  155SAPE   HN217217   1.431   2.503  11.060  0.3820 -0.0826  0.2247
  155SAPE   HN317218   1.368   2.600  11.186 -0.3825  1.4427  0.6745
  155SAPE   C1217219   1.525   2.690  11.066  0.0233 -0.4746 -0.1890
  155SAPE  H12A17220   1.555   2.675  10.960 -1.4059 -0.4146 -0.6230
  155SAPE  H12B17221   1.611   2.674  11.134  0.7029 -0.9825 -1.1511
  155SAPE   C1117222   1.458   2.830  11.078 -0.1623 -0.2825  0.0478
  155SAPE  H11A17223   1.406   2.842  11.176 -1.7196  1.5127 -0.9270
  155SAPE  H11B17224   1.390   2.845  10.991 -0.6359 -0.6607  0.3520
  155SAPE     P17225   1.513   3.083  11.109  0.3718  0.4195 -0.2101
  155SAPE   O1317226   1.384   3.085  11.177  0.3721  0.3435 -0.1174
  155SAPE   O1417227   1.629   3.143  11.190 -0.1152  0.3274 -0.3107
  155SAPE   O1217228   1.557   2.930  11.073 -0.2369 -0.0448  0.4734
  155SAPE   O1117229   1.503   3.143  10.958 -0.1218 -0.3420 -0.3799
  155SAPE    C117230   1.617   3.196  10.892  0.6479 -0.4674 -0.0512
  155SAPE    HA17231   1.628   3.307  10.898  0.4428 -0.4836  0.7140
  155SAPE    HB17232   1.706   3.163  10.950 -0.0423 -2.8034 -0.2181
  155SAPE    C217233   1.624   3.149  10.743  0.0083  0.5866 -0.9539
  155SAPE    HS17234   1.704   3.213  10.701 -0.1042  1.7778  0.5648
  155SAPE   O2117235   1.500   3.175  10.676  0.3713 -0.5680 -0.4446
  155SAPE   C2117236   1.467   3.305  10.651  0.1103  0.1883 -0.0307
  155SAPE   O2217237   1.520   3.399  10.701 -0.3347 -0.1240  0.0586
  155SAPE   C2217238   1.369   3.317  10.528 -0.4146  0.2490 -0.2102
  155SAPE   H2R17239   1.273   3.268  10.554 -0.5250 -0.7112 -2.2433
  155SAPE   H2S17240   1.369   3.428  10.527  0.6094  0.4874  3.9971
  155SAPE    C317241   1.660   3.005  10.721 -0.2961 -0.5175  0.5427
  155SAPE    HX17242   1.578   2.936  10.750 -2.0558  1.6407  0.9468
  155SAPE    HY17243   1.741   2.985  10.794 -0.4227  0.5972  1.0035
  155SAPE   O3117244   1.706   2.985  10.584 -0.2741  0.3294 -0.4234
  155SAPE   C3117245   1.838   2.978  10.562 -0.6633 -0.8657 -0.3415
  155SAPE   O3217246   1.920   2.997  10.648 -0.7139 -0.4942  0.0974
  155SAPE   C3217247   1.867   2.957  10.413 -0.1074 -0.5062 -0.9693
  155SAPE   H2X17248   1.816   3.038  10.358  2.8451  1.9239 -0.3984
  155SAPE   H2Y17249   1.819   2.858  10.398 -0.8862  0.0684 -2.6133
  155SAPE   C2317250   1.401   3.244  10.399 -0.7882 -0.5781 -0.1576
  155SAPE   H3R17251   1.328   3.280  10.323  0.4954 -1.4618 -1.8821
  155SAPE   H3S17252   1.376   3.136  10.409 -1.4992 -0.5760 -1.6414
  155SAPE   C2417253   1.546   3.256  10.356  0.8186 -0.2893 -0.0451
  155SAPE   H4R17254   1.580   3.195  10.269  2.7643  0.4973  0.1124
  155SAPE   H4S17255   1.622   3.228  10.433  3.8815  0.4660 -2.5745
  155SAPE   C2517256   1.568   3.404  10.329 -0.5680 -0.2411  0.2156
  155SAPE   H5R17257   1.552   3.464  10.420  2.2080  0.4445  0.3329
  155SAPE   C2617258   1.602   3.466  10.213 -0.0441  0.0997  0.5403
  155SAPE   H6R17259   1.609   3.575  10.199  0.4887  0.2895  2.0662
  155SAPE   C2717260   1.637   3.389  10.090  0.1523  0.0244 -0.2220
  155SAPE   H7R17261   1.536   3.371  10.048  0.1586 -0.4930 -0.0210
  155SAPE   H7S17262   1.704   3.303  10.112  1.2565  0.8557 -0.1938
  155SAPE   C2817263   1.709   3.482   9.998 -0.3510  0.3569  0.1350
  155SAPE   H8R17264   1.818   3.472   9.994 -0.4261 -0.2779 -0.5650
  155SAPE   C2917265   1.661   3.577   9.915 -0.1574  0.6951 -0.1871
  155SAPE   H9R17266   1.738   3.623   9.851 -2.0090  0.2919 -2.8786
  155SAPE  C21017267   1.511   3.612   9.887  0.0856  0.1987  0.2122
  155SAPE  H10R17268   1.480   3.711   9.926  0.1460  0.1884  0.2871
  155SAPE  H10S17269   1.442   3.547   9.944 -4.1634  2.4001 -1.9608
  155SAPE  C21117270   1.479   3.590   9.741 -0.1380  0.5848  0.0236
  155SAPE  H11R17271   1.483   3.484   9.710 -2.6565  0.8000 -1.3277
  155SAPE  C21217272   1.433   3.684   9.661 -1.0375 -0.0928  0.7465
  155SAPE  H12R17273   1.418   3.670   9.553 -1.4166 -0.7449  0.8834
  155SAPE  C21317274   1.405   3.830   9.695  0.9940  0.1449 -0.2758
  155SAPE  H13R17275   1.428   3.864   9.798  0.1889  1.5739 -0.5436
  155SAPE  H13S17276   1.295   3.846   9.696  0.6412 -2.0176  0.3952
  155SAPE  C21417277   1.462   3.932   9.602 -0.0186  0.0566  0.2233
  155SAPE  H14R17278   1.539   4.000   9.642  0.9119 -0.4012 -0.7160
  155SAPE  C21517279   1.428   3.955   9.472 -0.1747  0.1749 -0.2103
  155SAPE  H15R17280   1.468   4.045   9.422 -0.2348  0.0906 -0.4101
  155SAPE  C21617281   1.329   3.878   9.394 -0.0100 -0.0258  0.0653
  155SAPE  H16R17282   1.273   3.805   9.456  0.7022  0.1782  0.9786
  155SAPE  H16S17283   1.377   3.819   9.313 -1.0307 -0.4423 -0.2649
  155SAPE  C21717284   1.229   3.973   9.329 -0.8431  0.0985 -0.6013
  155SAPE  H17R17285   1.284   4.048   9.269 -0.6599  3.2686  3.0910
  155SAPE  H17S17286   1.190   4.037   9.411 -0.1470 -1.9758  1.4551
  155SAPE  C21817287   1.118   3.907   9.242 -0.6539 -0.1909  0.1102
  155SAPE  H18R17288   1.046   3.851   9.305 -0.0462  0.1717  1.1523
  155SAPE  H18S17289   1.167   3.831   9.177 -0.3429  1.1121 -1.2454
  155SAPE  C21917290   1.040   4.008   9.165 -0.1793 -0.4351 -0.5349
  155SAPE  H19R17291   1.107   4.077   9.109  0.9392 -0.5988  0.5425
  155SAPE  H19S17292   0.981   4.064   9.240 -0.6427 -3.4063  1.5069
  155SAPE  C22017293   0.948   3.939   9.063  0.5599  0.2717  0.3750
  155SAPE  H20R17294   0.898   3.846   9.096 -0.2163  0.8895  1.0030
  155SAPE  H20S17295   1.002   3.911   8.970 -1.3549 -1.6443 -0.2325
  155SAPE  H20T17296   0.858   3.996   9.028 -1.3017 -2.3291  0.6281
  155SAPE   C3317297   2.019   2.957  10.393 -0.5438  0.1715  0.3675
  155SAPE   H3X17298   2.064   2.884  10.464  1.3511  0.7600 -0.1811
  155SAPE   H3Y17299   2.068   3.056  10.404  1.4468 -0.3073 -2.9589
  155SAPE   C3417300   2.049   2.911  10.248 -0.1812  0.4768  0.0122
  155SAPE   H4X17301   2.156   2.928  10.222 -0.4839  0.5543 -1.2515
  155SAPE   H4Y17302   1.987   2.968  10.176 -0.7137  2.4204  1.9213
  155SAPE   C3517303   2.022   2.756  10.221 -0.2669 -0.2813 -0.8115
  155SAPE   H5X17304   1.914   2.736  10.205 -0.7573  1.2206  0.3574
  155SAPE   H5Y17305   2.064   2.697  10.305 -0.7339 -0.7651 -0.9128
  155SAPE   C3617306   2.088   2.704  10.095  0.3348  0.1698  0.0361
  155SAPE   H6X17307   2.053   2.599  10.087  1.3924 -0.3694  1.9850
  155SAPE   H6Y17308   2.197   2.721  10.106  0.0991  2.0811 -0.2722
  155SAPE   C3717309   2.034   2.770   9.962  0.0618  0.0168  0.2718
  155SAPE   H7X17310   2.058   2.878   9.966  0.8483 -0.1833  1.7427
  155SAPE   H7Y17311   1.924   2.758   9.959 -0.0413  1.0970 -1.5069
  155SAPE   C3817312   2.081   2.701   9.837  0.2618 -0.6377 -0.0182
  155SAPE   H8X17313   2.043   2.598   9.817  1.4295 -1.2119  0.6330
  155SAPE   H8Y17314   2.191   2.689   9.826  0.6896  3.2321 -2.0364
  155SAPE   C3917315   2.032   2.781   9.721 -0.2051 -0.1855 -0.1808
  155SAPE   H9X17316   2.067   2.886   9.733  0.8992 -0.5864  0.2758
  155SAPE   H9Y17317   1.922   2.779   9.728 -0.1867  0.9263  0.7180
  155SAPE  C31017318   2.068   2.726   9.575 -0.2248  0.5106  0.3417
  155SAPE  H10X17319   2.003   2.637   9.563 -0.9218  0.9658  0.7202
  155SAPE  H10Y17320   2.174   2.698   9.554 -0.9879 -1.7927 -0.7667
  155SAPE  C31117321   2.027   2.808   9.461  0.2020  0.3329 -0.2102
  155SAPE  H11X17322   1.928   2.848   9.489  0.0004  2.2295 -3.1449
  155SAPE  H11Y17323   2.014   2.742   9.373 -2.9191  2.2865 -1.3718
  155SAPE  C31217324   2.127   2.918   9.428  0.2371 -0.2219 -0.1251
  155SAPE  H12X17325   2.217   2.875   9.379 -0.6674  0.8490 -2.9261
  155SAPE  H12Y17326   2.153   2.959   9.528  1.2863  0.3531 -0.6110
  155SAPE  C31317327   2.053   3.037   9.359 -0.6992 -0.6402  0.2563
  155SAPE  H13X17328   2.106   3.135   9.352  0.1017 -1.1344 -0.9545
  155SAPE  H13Y17329   1.955   3.044   9.410 -0.1834 -2.3563  1.5676
  155SAPE  C31417330   2.038   2.998   9.212  0.2955  0.2507  0.1424
  155SAPE  H14X17331   1.981   2.903   9.207 -0.2220  0.6156 -2.2132
  155SAPE  H14Y17332   2.143   2.997   9.176  0.7214  3.0442  1.0155
  155SAPE  C31517333   1.961   3.106   9.122  0.5480 -0.1753 -0.0803
  155SAPE  H15X17334   2.025   3.195   9.138 -3.0721  2.6665 -0.1948
  155SAPE  H15Y17335   1.857   3.127   9.154 -0.3045 -0.8324 -2.1898
  155SAPE  C31617336   1.946   3.061   8.976 -0.2687 -0.4642 -0.3771
  155SAPE  H16X17337   1.891   3.133   8.912 -1.0506  0.2400  1.0177
  155SAPE  H16Y17338   1.899   2.961   8.968 -1.8496  0.3747 -2.9084
  155SAPE  C31717339   2.077   3.055   8.891 -0.1726 -0.2290  0.3992
  155SAPE  H17X17340   2.114   2.952   8.913 -1.5878 -1.3457 -2.0529
  155SAPE  H17Y17341   2.148   3.133   8.925  0.6278 -0.7039 -0.1572
  155SAPE  C31817342   2.056   3.067   8.743  0.0916  0.2391  0.1980
  155SAPE  H18X17343   2.146   3.031   8.689 -0.3722 -0.2940 -0.2518
  155SAPE  H18Y17344   2.023   3.168   8.711  0.4482  0.4359  0.4536
  155SAPE  H18Z17345   1.978   2.989   8.722 -0.2781  0.7675 -0.4384
  156SAPE     N17346   5.787   3.631  10.515 -0.0835  0.0606  0.0328
  156SAPE   HN117347   5.724   3.551  10.535  1.3089 -1.3722 -1.0718
  156SAPE   HN217348   5.726   3.709  10.485 -0.4929  0.3708  1.5686
  156SAPE   HN317349   5.851   3.598  10.440  0.3676  0.3295  0.2893
  156SAPE   C1217350   5.883   3.666  10.635  0.8643  0.4605 -0.2366
  156SAPE  H12A17351   5.839   3.753  10.690  1.5800 -0.0195  1.1410
  156SAPE  H12B17352   5.972   3.706  10.582  1.3697 -1.3951 -0.8296
  156SAPE   C1117353   5.926   3.544  10.712  0.3655  0.7258  0.5975
  156SAPE  H11A17354   5.837   3.487  10.746 -0.0630  1.9565  1.6121
  156SAPE  H11B17355   5.964   3.577  10.811 -0.0530 -0.1068  1.0528
  156SAPE     P17356   6.067   3.330  10.692 -0.2757 -0.2383 -0.1157
  156SAPE   O1317357   6.212   3.345  10.691 -0.3844 -0.2988  0.3677
  156SAPE   O1417358   6.005   3.303  10.826 -0.1065 -0.9138 -0.2117
  156SAPE   O1217359   6.010   3.460  10.635 -0.4999 -0.3840  0.3613
  156SAPE   O1117360   6.029   3.213  10.590  0.3693 -0.2196 -0.0746
  156SAPE    C117361   5.966   3.256  10.470 -0.0517 -0.4077 -0.0239
  156SAPE    HA17362   5.911   3.174  10.420 -0.5686 -0.8949  1.2804
  156SAPE    HB17363   5.883   3.329  10.483  0.4069  0.1404 -0.0959
  156SAPE    C217364   6.079   3.290  10.367 -0.2817  0.4162  0.5748
  156SAPE    HS17365   6.124   3.391  10.379 -3.8221  2.2040  0.2291
  156SAPE   O2117366   6.013   3.293  10.234  0.2401 -0.1874 -0.2446
  156SAPE   C2117367   5.930   3.398  10.219  0.1296  0.1757  0.0772
  156SAPE   O2217368   5.910   3.484  10.303  0.1415  1.0064 -0.2019
  156SAPE   C2217369   5.864   3.381  10.074  0.2441  0.1286  0.6428
  156SAPE   H2R17370   5.942   3.411  10.001 -1.1381  1.9997 -0.1479
  156SAPE   H2S17371   5.846   3.272  10.058  1.1172  0.1148 -0.3506
  156SAPE    C317372   6.194   3.173  10.357  0.3301 -0.2629  0.8464
  156SAPE    HX17373   6.134   3.085  10.327  0.9639 -0.3356 -0.2635
  156SAPE    HY17374   6.249   3.151  10.451 -0.2932 -1.0787  1.0316
  156SAPE   O3117375   6.282   3.217  10.253 -0.8015  0.2267 -0.4635
  156SAPE   C3117376   6.399   3.152  10.240 -0.5104  0.2118  0.2904
  156SAPE   O3217377   6.435   3.052  10.307  0.0705 -0.7390  0.6195
  156SAPE   C3217378   6.466   3.195  10.107  0.3798  0.6253 -0.4346
  156SAPE   H2X17379   6.523   3.289  10.120  1.0752  0.2825 -0.9245
  156SAPE   H2Y17380   6.385   3.212  10.033  0.2859  2.2115 -0.0010
  156SAPE   C2317381   5.725   3.444  10.063 -0.0403 -0.2169  0.1285
  156SAPE   H3R17382   5.721   3.544  10.111  0.2875 -0.3475  0.4326
  156SAPE   H3S17383   5.665   3.380  10.132 -0.7361  0.7172  0.4083
  156SAPE   C2417384   5.656   3.446   9.922 -0.6252  0.0195 -0.0503
  156SAPE   H4R17385   5.719   3.522   9.870  2.1511 -2.4109 -0.4605
  156SAPE   H4S17386   5.558   3.498   9.932 -0.1627  1.0215 -0.5693
  156SAPE   C2517387   5.635   3.310   9.856  0.2739  0.1407 -0.0400
  156SAPE   H5R17388   5.591   3.233   9.921  0.0419 -0.7258 -1.2024
  156SAPE   C2617389   5.671   3.293   9.729 -0.1587  0.3124  0.3924
  156SAPE   H6R17390   5.639   3.200   9.679  0.6325 -0.4054  1.1598
  156SAPE   C2717391   5.740   3.389   9.634 -0.8498  0.5608 -0.8662
  156SAPE   H7R17392   5.764   3.324   9.548  1.0723 -0.7702  0.6019
  156SAPE   H7S17393   5.833   3.429   9.679 -0.1951 -1.4014 -0.4052
  156SAPE   C2817394   5.643   3.495   9.584 -0.6679 -0.2129  0.0287
  156SAPE   H8R17395   5.604   3.570   9.655 -2.3876  0.6295 -1.7057
  156SAPE   C2917396   5.590   3.497   9.461 -0.6891 -0.2846 -0.1416
  156SAPE   H9R17397   5.534   3.583   9.421  1.6126  1.1475 -0.4528
  156SAPE  C21017398   5.602   3.409   9.341 -0.9193  0.5212  0.2623
  156SAPE  H10R17399   5.514   3.414   9.274 -0.1685  2.8664 -0.6910
  156SAPE  H10S17400   5.620   3.306   9.376  2.5018  0.8626 -0.1024
  156SAPE  C21117401   5.720   3.448   9.255 -0.1958  0.0103 -0.5017
  156SAPE  H11R17402   5.815   3.407   9.292 -0.9093  1.0788  2.8523
  156SAPE  C21217403   5.732   3.515   9.139  0.2516  0.6774 -0.0356
  156SAPE  H12R17404   5.836   3.540   9.113  1.8504 -5.7991 -1.7104
  156SAPE  C21317405   5.617   3.558   9.057  0.5885  0.3871 -0.1410
  156SAPE  H13R17406   5.545   3.614   9.119 -0.1494  1.2043 -1.6735
  156SAPE  H13S17407   5.563   3.468   9.020 -0.0407  0.0277  1.5630
  156SAPE  C21417408   5.650   3.638   8.936 -0.3445 -0.0738  0.0458
  156SAPE  H14R17409   5.649   3.745   8.958 -2.0154 -0.5579  2.7730
  156SAPE  C21517410   5.670   3.598   8.809  0.3431  0.7824 -0.2417
  156SAPE  H15R17411   5.705   3.673   8.737  1.3489 -0.5465 -1.1778
  156SAPE  C21617412   5.654   3.454   8.762  0.1399  0.1500 -0.5179
  156SAPE  H16R17413   5.570   3.431   8.693  0.2935 -0.0058 -0.6528
  156SAPE  H16S17414   5.657   3.380   8.845  1.6832  1.0511  0.2704
  156SAPE  C21717415   5.786   3.425   8.678  0.0133 -0.8341 -0.6823
  156SAPE  H17R17416   5.883   3.437   8.732 -0.0510 -2.9576 -0.0410
  156SAPE  H17S17417   5.799   3.494   8.591  0.3436 -2.1483 -1.7091
  156SAPE  C21817418   5.787   3.276   8.625  0.2616  0.0178 -0.4790
  156SAPE  H18R17419   5.781   3.213   8.717  2.4615  2.6003  1.6051
  156SAPE  H18S17420   5.879   3.244   8.572  0.4340  0.6218 -0.5461
  156SAPE  C21917421   5.667   3.245   8.529  0.2975 -0.2656  0.1294
  156SAPE  H19R17422   5.568   3.264   8.575 -0.5267 -0.7589 -1.3688
  156SAPE  H19S17423   5.672   3.136   8.505  0.3640 -0.1754 -0.2680
  156SAPE  C22017424   5.677   3.319   8.395  0.0231 -0.0355  0.6205
  156SAPE  H20R17425   5.637   3.421   8.411 -1.8673 -0.7360  0.6121
  156SAPE  H20S17426   5.612   3.270   8.319  2.0021 -0.1345 -1.0839
  156SAPE  H20T17427   5.778   3.317   8.349 -0.3879  0.5578 -0.3463
  156SAPE   C3317428   6.565   3.089  10.063 -1.2232  0.8929  0.5112
  156SAPE   H3X17429   6.538   2.986  10.095 -0.9026  1.1401  1.6452
  156SAPE   H3Y17430   6.661   3.103  10.117 -0.9507  1.4590 -0.0994
  156SAPE   C3417431   6.582   3.089   9.908 -0.2033 -0.0595  0.4563
  156SAPE   H4X17432   6.479   3.079   9.867 -0.0615 -0.8032  0.2574
  156SAPE   H4Y17433   6.644   3.001   9.881 -0.2544 -0.1844  0.7519
  156SAPE   C3517434   6.638   3.221   9.854 -0.3933  0.5550 -0.7279
  156SAPE   H5X17435   6.743   3.224   9.890 -0.2452 -0.7202 -1.0117
  156SAPE   H5Y17436   6.579   3.309   9.887 -1.1054 -0.2014  0.0688
  156SAPE   C3617437   6.630   3.211   9.697 -0.2966  1.0017 -0.5515
  156SAPE   H6X17438   6.525   3.187   9.668 -0.3524  1.2001 -0.5146
  156SAPE   H6Y17439   6.708   3.143   9.659  1.0550  2.9143 -1.3767
  156SAPE   C3717440   6.661   3.339   9.610 -0.2837 -0.6797  0.1336
  156SAPE   H7X17441   6.768   3.366   9.598 -0.7150  0.8666 -0.5103
  156SAPE   H7Y17442   6.624   3.429   9.665  1.3608 -0.9230  1.7027
  156SAPE   C3817443   6.610   3.328   9.460  0.4488 -0.0747  0.2417
  156SAPE   H8X17444   6.516   3.387   9.451  0.3404 -0.4300 -1.3994
  156SAPE   H8Y17445   6.577   3.222   9.454  1.0250 -0.2050 -0.9271
  156SAPE   C3917446   6.714   3.377   9.360 -0.0940 -0.5063  0.9254
  156SAPE   H9X17447   6.804   3.315   9.380  0.9279 -0.3802 -2.4736
  156SAPE   H9Y17448   6.748   3.482   9.377  0.1325 -0.2798 -0.6766
  156SAPE  C31017449   6.666   3.357   9.214 -0.3496 -0.3476  0.4624
  156SAPE  H10X17450   6.659   3.253   9.175  1.7962  0.3938 -2.2150
  156SAPE  H10Y17451   6.755   3.396   9.160  0.9324 -1.9468  1.3220
  156SAPE  C31117452   6.545   3.440   9.177  0.8990  0.5839  0.4954
  156SAPE  H11X17453   6.566   3.545   9.206  2.2409  0.4936 -0.0617
  156SAPE  H11Y17454   6.449   3.402   9.218 -0.5724  3.1970 -0.3470
  156SAPE  C31217455   6.511   3.442   9.028  0.2198 -0.2084 -0.1138
  156SAPE  H12X17456   6.505   3.340   8.986 -2.2531  0.7187 -2.3667
  156SAPE  H12Y17457   6.591   3.496   8.973  2.0864 -2.7021 -0.0049
  156SAPE  C31317458   6.383   3.522   9.003  0.3222 -0.0326  0.0177
  156SAPE  H13X17459   6.407   3.626   9.035 -1.7817  1.1145 -1.8658
  156SAPE  H13Y17460   6.283   3.501   9.046  0.3746  0.1718  0.2423
  156SAPE  C31417461   6.365   3.540   8.850 -0.6994  0.9271  0.6101
  156SAPE  H14X17462   6.457   3.579   8.802 -0.5148  1.1193  1.1064
  156SAPE  H14Y17463   6.295   3.624   8.827 -1.2075  0.1020 -0.9863
  156SAPE  C31517464   6.302   3.412   8.796 -0.4225  0.4446  0.6435
  156SAPE  H15X17465   6.200   3.393   8.837  0.9546 -2.1393  3.2709
  156SAPE  H15Y17466   6.363   3.321   8.818 -2.0317 -0.7516  0.3779
  156SAPE  C31617467   6.284   3.418   8.640  0.1167 -0.4821 -0.6443
  156SAPE  H16X17468   6.367   3.485   8.609  0.2849  0.2852  1.3344
  156SAPE  H16Y17469   6.198   3.487   8.623  1.5494  0.9171 -2.7484
  156SAPE  C31717470   6.284   3.281   8.583 -0.0453 -0.6225 -0.0138
  156SAPE  H17X17471   6.370   3.219   8.618  0.6806  1.3635  1.9379
  156SAPE  H17Y17472   6.290   3.287   8.473  1.7084  3.7256  0.1192
  156SAPE  C31817473   6.158   3.214   8.615  0.5888  1.0938 -0.1402
  156SAPE  H18X17474   6.131   3.224   8.723 -1.5410 -1.8865 -0.2913
  156SAPE  H18Y17475   6.158   3.108   8.583  0.6651  0.6825  1.1575
  156SAPE  H18Z17476   6.076   3.261   8.557 -2.4198 -2.7061  0.6102
  157SAPE     N17477   2.876   0.191  11.003 -0.2408  0.2206  0.2769
  157SAPE   HN117478   2.815   0.236  11.075 -1.4991 -1.5487  0.3801
  157SAPE   HN217479   2.834   0.108  10.956 -0.2327  0.8100 -0.7950
  157SAPE   HN317480   2.954   0.151  11.057  0.2460  1.4294  0.4965
  157SAPE   C1217481   2.922   0.280  10.890 -0.1864  0.4838 -0.7749
  157SAPE  H12A17482   2.845   0.355  10.864  1.3092  1.6170 -2.1508
  157SAPE  H12B17483   2.932   0.212  10.803  1.8442 -0.3706  0.0382
  157SAPE   C1117484   3.055   0.351  10.936  1.0109 -0.2835  0.5910
  157SAPE  H11A17485   3.018   0.425  11.010 -1.9376 -1.0997  0.0661
  157SAPE  H11B17486   3.098   0.401  10.846  0.7666  0.1389  0.7025
  157SAPE     P17487   3.293   0.313  11.036 -0.3836 -0.1135 -0.5579
  157SAPE   O1317488   3.299   0.436  11.122 -0.9910 -0.1586 -0.0418
  157SAPE   O1417489   3.379   0.205  11.093 -0.4491 -0.6146 -0.3940
  157SAPE   O1217490   3.151   0.264  10.998  0.1560 -0.0632  0.1724
  157SAPE   O1117491   3.352   0.352  10.896 -0.3918 -0.4777  0.0730
  157SAPE    C117492   3.444   0.453  10.867 -0.6138  0.6705  0.0126
  157SAPE    HA17493   3.394   0.548  10.838  0.9256  0.9801 -1.8147
  157SAPE    HB17494   3.508   0.478  10.955  1.5941 -0.5173 -1.1986
  157SAPE    C217495   3.546   0.417  10.747  0.0310  0.3671  0.2058
  157SAPE    HS17496   3.609   0.505  10.721  1.7755 -1.0362 -0.5578
  157SAPE   O2117497   3.463   0.378  10.636 -0.1542 -0.4316  0.0197
  157SAPE   C2117498   3.416   0.479  10.562 -0.4928 -0.0114 -0.1789
  157SAPE   O2217499   3.444   0.598  10.561 -0.5901 -0.0722 -0.2208
  157SAPE   C2217500   3.326   0.416  10.444 -0.4551 -0.0400  0.2664
  157SAPE   H2R17501   3.357   0.312  10.421 -1.4275 -0.4249  0.6501
  157SAPE   H2S17502   3.229   0.404  10.497 -0.7042  0.3332 -0.0957
  157SAPE    C317503   3.651   0.301  10.777 -0.6104  1.2140 -0.1839
  157SAPE    HX17504   3.598   0.230  10.844 -2.8742 -0.3117 -3.3312
  157SAPE    HY17505   3.726   0.343  10.847 -1.9584 -0.3444  2.3494
  157SAPE   O3117506   3.709   0.241  10.655 -0.0100 -0.8695  0.1731
  157SAPE   C3117507   3.801   0.311  10.592  0.5276  0.0966  0.2566
  157SAPE   O3217508   3.835   0.425  10.618  0.0379 -0.0911 -0.0990
  157SAPE   C3217509   3.845   0.237  10.469 -0.3639  0.5630  0.1470
  157SAPE   H2X17510   3.793   0.139  10.471  1.0941 -0.2917 -1.3563
  157SAPE   H2Y17511   3.955   0.229  10.461 -0.5004 -1.2152 -0.5151
  157SAPE   C2317512   3.316   0.498  10.324  0.1639  0.5076  0.0862
  157SAPE   H3R17513   3.396   0.480  10.248 -0.6840 -2.7936 -0.1558
  157SAPE   H3S17514   3.326   0.606  10.348 -0.7521  0.3454  1.2229
  157SAPE   C2417515   3.180   0.474  10.249  0.5258  0.0090  0.9849
  157SAPE   H4R17516   3.096   0.526  10.299  0.0722 -0.9761  1.2644
  157SAPE   H4S17517   3.155   0.365  10.253 -1.8738  0.4201 -0.5185
  157SAPE   C2517518   3.179   0.526  10.107 -0.6693  0.5070  0.4558
  157SAPE   H5R17519   3.248   0.610  10.096 -1.6327  1.3840  0.9144
  157SAPE   C2617520   3.119   0.485   9.996 -0.6770 -0.0224 -0.1218
  157SAPE   H6R17521   3.145   0.540   9.904  0.5380 -0.4662 -0.0563
  157SAPE   C2717522   3.032   0.363   9.988  0.2157  0.8098 -0.0650
  157SAPE   H7R17523   2.936   0.386   9.937 -0.5643 -1.5426  0.2194
  157SAPE   H7S17524   3.008   0.319  10.087  0.5677 -3.1528 -1.5403
  157SAPE   C2817525   3.089   0.243   9.916 -0.1526 -0.4179  0.9966
  157SAPE   H8R17526   3.125   0.161   9.980  0.1475 -0.5048  0.7188
  157SAPE   C2917527   3.096   0.243   9.777  0.3996  0.2771 -0.1987
  157SAPE   H9R17528   3.133   0.150   9.732  2.4694  0.8414  0.2255
  157SAPE  C21017529   3.052   0.351   9.683 -0.7562 -0.8966  0.1932
  157SAPE  H10R17530   2.981   0.413   9.741  0.4403  0.0496  0.6888
  157SAPE  H10S17531   3.012   0.287   9.601  3.0099 -1.2275 -1.5761
  157SAPE  C21117532   3.161   0.437   9.621  0.8101  0.2117  0.1532
  157SAPE  H11R17533   3.205   0.511   9.690 -1.4549  1.0058  0.8524
  157SAPE  C21217534   3.205   0.440   9.493  0.5618  0.1955  0.2973
  157SAPE  H12R17535   3.284   0.517   9.488  0.9663 -0.2766 -1.2198
  157SAPE  C21317536   3.156   0.363   9.369  0.0603  0.4818  0.0640
  157SAPE  H13R17537   3.076   0.290   9.395 -0.3897  0.7241 -0.6183
  157SAPE  H13S17538   3.245   0.301   9.343 -0.1454  0.3809 -0.4048
  157SAPE  C21417539   3.112   0.449   9.252  0.1217  0.0496 -0.3518
  157SAPE  H14R17540   3.005   0.450   9.228 -0.0427 -1.4501  0.2239
  157SAPE  C21517541   3.198   0.511   9.168  0.0025  0.6892  0.0206
  157SAPE  H15R17542   3.169   0.587   9.095  1.3378  2.3985  1.1852
  157SAPE  C21617543   3.353   0.494   9.179 -0.4770 -0.7272  0.8922
  157SAPE  H16R17544   3.389   0.412   9.245  0.4839  0.4569  1.8764
  157SAPE  H16S17545   3.409   0.583   9.214  0.3454 -1.0917  0.5479
  157SAPE  C21717546   3.416   0.452   9.043  0.2950  0.7510 -0.5386
  157SAPE  H17R17547   3.366   0.355   9.020 -0.4790  1.2838 -1.1578
  157SAPE  H17S17548   3.521   0.432   9.073  0.2548 -0.6563 -1.2183
  157SAPE  C21817549   3.409   0.553   8.927 -0.4683  0.0988 -0.8358
  157SAPE  H18R17550   3.476   0.637   8.957  0.2698 -0.1517 -1.7449
  157SAPE  H18S17551   3.309   0.588   8.897 -0.3560  1.4390  0.2516
  157SAPE  C21917552   3.486   0.490   8.810 -0.3654 -0.2942 -0.0173
  157SAPE  H19R17553   3.584   0.453   8.845  0.3126  0.1280 -1.4170
  157SAPE  H19S17554   3.494   0.567   8.730 -0.1177 -1.2461 -0.9231
  157SAPE  C22017555   3.418   0.382   8.726 -0.0301 -0.8284 -0.6610
  157SAPE  H20R17556   3.325   0.422   8.679 -1.1356 -1.2009  1.1345
  157SAPE  H20S17557   3.380   0.302   8.793 -1.4632 -1.1314 -1.7808
  157SAPE  H20T17558   3.485   0.343   8.646 -0.3029 -1.1696 -0.7256
  157SAPE   C3317559   3.783   0.300  10.345  0.6237  0.3340  0.3090
  157SAPE   H3X17560   3.830   0.400  10.328  0.6066  0.0769 -1.4237
  157SAPE   H3Y17561   3.673   0.295  10.334  0.7328  0.1718 -0.8697
  157SAPE   C3417562   3.820   0.224  10.214  0.1342  0.2481 -0.3846
  157SAPE   H4X17563   3.790   0.120  10.236 -0.3365  0.2747 -0.8848
  157SAPE   H4Y17564   3.930   0.233  10.218  0.2394 -1.1331  0.1877
  157SAPE   C3517565   3.754   0.278  10.085 -0.3756  0.9860 -0.1151
  157SAPE   H5X17566   3.785   0.384  10.072  1.9030  0.1280 -2.4745
  157SAPE   H5Y17567   3.643   0.273  10.087 -0.3432  0.3046 -0.0061
  157SAPE   C3617568   3.802   0.192   9.969 -0.9835  0.0941  0.1356
  157SAPE   H6X17569   3.738   0.102   9.960  0.1539 -0.7556  0.3655
  157SAPE   H6Y17570   3.908   0.169   9.993 -1.6781 -2.2955  1.1860
  157SAPE   C3717571   3.789   0.271   9.839  0.0130  0.1245  0.2201
  157SAPE   H7X17572   3.838   0.369   9.848 -0.4187  0.2083  1.8924
  157SAPE   H7Y17573   3.678   0.283   9.832 -0.1122  0.6883  2.5806
  157SAPE   C3817574   3.833   0.198   9.718 -0.4759  0.5307  0.2118
  157SAPE   H8X17575   3.802   0.091   9.719 -1.0840  0.6977 -0.3543
  157SAPE   H8Y17576   3.943   0.182   9.720 -0.7365 -1.6505  0.4532
  157SAPE   C3917577   3.800   0.278   9.591 -0.1685 -0.6542  0.5157
  157SAPE   H9X17578   3.824   0.383   9.620  0.4323 -0.3563 -0.9739
  157SAPE   H9Y17579   3.695   0.262   9.560 -0.5155 -1.3973  1.9655
  157SAPE  C31017580   3.878   0.236   9.463  0.3920  0.7488 -0.3205
  157SAPE  H10X17581   3.860   0.127   9.448 -1.3585  0.9534  0.0339
  157SAPE  H10Y17582   3.986   0.241   9.490  0.0488  1.4447  1.0625
  157SAPE  C31117583   3.854   0.311   9.330  1.1593  0.3780  0.3587
  157SAPE  H11X17584   3.845   0.422   9.339 -0.7187  0.2086  1.0674
  157SAPE  H11Y17585   3.756   0.289   9.282  0.4776 -2.8807  2.9149
  157SAPE  C31217586   3.963   0.281   9.227 -0.4739  0.5604 -0.2603
  157SAPE  H12X17587   3.983   0.172   9.223 -0.0090  0.5512  1.4951
  157SAPE  H12Y17588   4.063   0.318   9.259 -0.1902 -0.1194 -0.3569
  157SAPE  C31317589   3.927   0.349   9.096 -0.1099  0.1183  0.7737
  157SAPE  H13X17590   3.906   0.457   9.116 -4.0237 -0.1375 -0.9228
  157SAPE  H13Y17591   3.833   0.300   9.065  0.3175  0.2809 -0.8625
  157SAPE  C31417592   4.051   0.341   9.000  0.5580  0.4921  1.0020
  157SAPE  H14X17593   4.084   0.236   8.982  1.6292  0.7735  1.2550
  157SAPE  H14Y17594   4.143   0.393   9.035  2.3376 -1.8387  0.0958
  157SAPE  C31517595   4.015   0.402   8.861 -0.8819 -0.4681  0.8764
  157SAPE  H15X17596   4.002   0.511   8.880  2.1889  0.1020  0.2348
  157SAPE  H15Y17597   3.920   0.357   8.825 -0.9507  0.9389 -0.8356
  157SAPE  C31617598   4.117   0.380   8.746  0.2517 -0.1213 -0.4613
  157SAPE  H16X17599   4.218   0.407   8.784 -0.1303 -0.7513  1.0835
  157SAPE  H16Y17600   4.083   0.443   8.661 -1.6585 -2.3488 -1.4436
  157SAPE  C31717601   4.124   0.230   8.703 -0.1666 -0.0146  0.1237
  157SAPE  H17X17602   4.032   0.212   8.643  0.7473  1.5962 -1.8954
  157SAPE  H17Y17603   4.134   0.166   8.793  1.0610  0.1849  0.1424
  157SAPE  C31817604   4.248   0.196   8.620  0.1555  0.1799  0.0667
  157SAPE  H18X17605   4.241   0.086   8.611 -2.2451  0.3098 -0.1358
  157SAPE  H18Y17606   4.344   0.228   8.666  0.8012 -0.2346 -0.9418
  157SAPE  H18Z17607   4.243   0.247   8.521  0.6120 -0.1069 -0.1061
  158SAPE     N17608   0.118   1.076  10.742 -0.2418  0.5778 -0.1058
  158SAPE   HN117609   0.131   0.981  10.781 -1.2584  0.5635  0.2173
  158SAPE   HN217610   0.119   1.151  10.814 -0.0769  1.2851 -0.8250
  158SAPE   HN317611   0.024   1.095  10.702  0.6688  1.0783 -2.1547
  158SAPE   C1217612   0.221   1.107  10.632  1.3124  0.0907 -0.8133
  158SAPE  H12A17613   0.286   1.188  10.671 -0.3642  0.4028  1.5928
  158SAPE  H12B17614   0.171   1.160  10.549  0.1254  1.0732  0.4778
  158SAPE   C1117615   0.301   0.986  10.588 -0.3388  0.2936 -0.3271
  158SAPE  H11A17616   0.352   0.944  10.678  0.5209 -0.9855 -1.3854
  158SAPE  H11B17617   0.376   1.027  10.517  1.1664 -1.0458  0.4194
  158SAPE     P17618   0.204   0.860  10.381 -0.2698 -0.4486 -0.5703
  158SAPE   O1317619   0.333   0.812  10.334  0.1663  0.5744 -0.4244
  158SAPE   O1417620   0.086   0.779  10.359 -0.2871  0.8407  0.0766
  158SAPE   O1217621   0.214   0.886  10.535 -0.1321  0.7261  0.1491
  158SAPE   O1117622   0.176   1.007  10.337  0.4222  0.3989 -0.8092
  158SAPE    C117623   0.037   1.043  10.306 -0.9168 -0.3425  0.5804
  158SAPE    HA17624  -0.038   0.963  10.326  0.4777 -2.1979 -1.1091
  158SAPE    HB17625   0.005   1.122  10.377 -0.2582  0.2650  0.2191
  158SAPE    C217626   0.034   1.111  10.167 -0.2493 -0.4757 -0.0793
  158SAPE    HS17627  -0.052   1.177  10.141 -0.5078 -0.2832  1.1622
  158SAPE   O2117628   0.033   1.017  10.065 -0.5270 -0.0414 -0.9937
  158SAPE   C2117629  -0.082   0.949  10.060  0.1687 -0.6432  0.4471
  158SAPE   O2217630  -0.185   0.981  10.122 -0.3256  0.7286  0.5298
  158SAPE   C2217631  -0.069   0.842   9.952  0.2622  0.6750  0.2563
  158SAPE   H2R17632  -0.030   0.886   9.858 -3.0804  1.5921 -0.8630
  158SAPE   H2S17633   0.003   0.763   9.979 -0.4265 -1.3151 -3.2115
  158SAPE    C317634   0.164   1.195  10.147  0.2667  0.3856  0.2722
  158SAPE    HX17635   0.252   1.129  10.163  1.2365  0.7683 -2.7289
  158SAPE    HY17636   0.155   1.275  10.223 -0.1349  0.1788  0.4466
  158SAPE   O3117637   0.165   1.255  10.015 -0.4069  0.0208 -0.1077
  158SAPE   C3117638   0.273   1.336   9.979 -0.2806  0.5815  0.2687
  158SAPE   O3217639   0.370   1.347  10.055 -0.0171 -0.4794  0.1658
  158SAPE   C3217640   0.264   1.405   9.848  0.2005  0.6784 -0.1248
  158SAPE   H2X17641   0.160   1.443   9.834 -0.6910 -0.9346  1.6396
  158SAPE   H2Y17642   0.271   1.325   9.772  0.2733  1.4158 -0.9083
  158SAPE   C2317643  -0.196   0.771   9.895 -0.2993  0.1321  0.4198
  158SAPE   H3R17644  -0.276   0.846   9.873  0.6690  1.3856  1.0169
  158SAPE   H3S17645  -0.232   0.709   9.979 -0.4001 -1.1745 -0.5586
  158SAPE   C2417646  -0.161   0.685   9.774 -0.5719  0.3449  0.1972
  158SAPE   H4R17647  -0.244   0.612   9.761 -1.5478  0.9481  2.4213
  158SAPE   H4S17648  -0.076   0.619   9.802 -0.7062  0.3052  0.5263
  158SAPE   C2517649  -0.126   0.766   9.656 -0.6115 -0.1660  0.1260
  158SAPE   H5R17650  -0.020   0.794   9.641  0.0403 -2.2397  0.5102
  158SAPE   C2617651  -0.204   0.805   9.561  0.9311 -0.8808  0.0871
  158SAPE   H6R17652  -0.168   0.854   9.469 -0.6932 -0.8641 -0.5758
  158SAPE   C2717653  -0.358   0.780   9.561 -0.1850 -0.2494 -0.2436
  158SAPE   H7R17654  -0.379   0.679   9.602  0.8150 -0.9284 -1.3237
  158SAPE   H7S17655  -0.392   0.775   9.456 -1.3889  0.0030  0.1228
  158SAPE   C2817656  -0.435   0.888   9.630 -0.2477 -0.4769 -1.2907
  158SAPE   H8R17657  -0.458   0.859   9.734  2.5978 -0.2173 -0.4976
  158SAPE   C2917658  -0.461   1.015   9.589 -0.3405  0.2029 -0.3347
  158SAPE   H9R17659  -0.508   1.075   9.668 -0.6158 -0.1024 -0.2633
  158SAPE  C21017660  -0.402   1.088   9.464 -0.5294 -0.7189 -0.3328
  158SAPE  H10R17661  -0.296   1.057   9.475 -0.4051  0.6058  3.6137
  158SAPE  H10S17662  -0.400   1.198   9.480 -1.9050 -0.6814 -0.3146
  158SAPE  C21117663  -0.454   1.062   9.324 -0.0490 -0.0532 -0.0909
  158SAPE  H11R17664  -0.563   1.071   9.315 -0.4795 -1.9314  2.2354
  158SAPE  C21217665  -0.379   1.043   9.213 -0.3600  0.1654  0.0611
  158SAPE  H12R17666  -0.425   1.033   9.114  1.3909  0.1589 -0.7953
  158SAPE  C21317667  -0.227   1.039   9.205 -0.2231 -0.4481 -0.3848
  158SAPE  H13R17668  -0.188   1.042   9.309 -1.4866  1.4095  0.0931
  158SAPE  H13S17669  -0.186   1.140   9.184 -3.5755  1.5212  1.6613
  158SAPE  C21417670  -0.174   0.920   9.138  0.2740 -0.2525 -0.5714
  158SAPE  H14R17671  -0.228   0.828   9.164 -0.2761 -0.0182 -0.8557
  158SAPE  C21517672  -0.083   0.919   9.035  0.3998 -0.1161 -0.1450
  158SAPE  H15R17673  -0.048   0.824   8.993  1.0866 -0.9472  2.1669
  158SAPE  C21617674  -0.018   1.044   8.975 -0.3194 -0.5973  0.0718
  158SAPE  H16R17675   0.089   1.036   9.004 -0.4531 -0.2997  0.6651
  158SAPE  H16S17676  -0.051   1.146   9.006 -1.4645 -0.6124 -1.0346
  158SAPE  C21717677  -0.015   1.042   8.818  0.0296 -0.1230 -0.5475
  158SAPE  H17R17678   0.027   0.943   8.791 -0.0553  0.0685 -1.4252
  158SAPE  H17S17679   0.060   1.114   8.777 -0.7530  1.2649  0.3601
  158SAPE  C21817680  -0.149   1.079   8.756 -0.6564 -0.5770 -0.5352
  158SAPE  H18R17681  -0.176   1.185   8.773  0.2039 -0.5770  0.9386
  158SAPE  H18S17682  -0.227   1.031   8.817  0.7317 -1.8096  0.3420
  158SAPE  C21917683  -0.160   1.037   8.613  0.1184  0.0318 -0.1698
  158SAPE  H19R17684  -0.118   0.935   8.601  0.8816  0.3512 -0.2476
  158SAPE  H19S17685  -0.078   1.094   8.564 -0.8110  1.8480  0.3005
  158SAPE  C22017686  -0.288   1.055   8.535 -0.3880  0.5633  0.1552
  158SAPE  H20R17687  -0.265   1.032   8.429 -0.2602 -0.2221  0.3495
  158SAPE  H20S17688  -0.337   1.154   8.528 -1.7217 -0.1522 -0.9823
  158SAPE  H20T17689  -0.370   0.988   8.568 -0.2299  1.4972  2.7479
  158SAPE   C3317690   0.373   1.510   9.820 -0.2162  0.6788 -0.3150
  158SAPE   H3X17691   0.467   1.463   9.857 -0.5839 -1.2734 -1.6911
  158SAPE   H3Y17692   0.358   1.596   9.888  1.3879  0.0738  0.8680
  158SAPE   C3417693   0.375   1.560   9.682  0.4565 -0.0896  0.5774
  158SAPE   H4X17694   0.424   1.658   9.665 -0.5317  0.5361  1.2752
  158SAPE   H4Y17695   0.270   1.565   9.647 -0.5366 -1.2830  3.1188
  158SAPE   C3517696   0.459   1.465   9.590  0.0762  0.4098 -0.4030
  158SAPE   H5X17697   0.415   1.363   9.595  1.4488 -0.2021 -0.4289
  158SAPE   H5Y17698   0.560   1.463   9.634 -0.3667  2.5876  0.8076
  158SAPE   C3617699   0.477   1.511   9.443  0.3333 -0.3446  0.6455
  158SAPE   H6X17700   0.519   1.614   9.435 -1.5464  0.3658 -1.3607
  158SAPE   H6Y17701   0.379   1.521   9.391  1.2050 -0.2788 -1.0677
  158SAPE   C3717702   0.557   1.428   9.349  0.1250 -0.0776 -0.1182
  158SAPE   H7X17703   0.500   1.336   9.325  1.3930 -0.7041 -0.7858
  158SAPE   H7Y17704   0.655   1.405   9.395  0.3886 -0.2938 -0.7755
  158SAPE   C3817705   0.579   1.488   9.208  0.5562  0.2492  0.0034
  158SAPE   H8X17706   0.632   1.585   9.219  0.4353  0.2669  0.4558
  158SAPE   H8Y17707   0.475   1.504   9.172 -0.5198 -0.3220  2.6015
  158SAPE   C3917708   0.667   1.387   9.125 -0.0565 -0.4333 -0.7452
  158SAPE   H9X17709   0.611   1.292   9.111 -2.2054  0.5315  0.8513
  158SAPE   H9Y17710   0.770   1.361   9.160 -0.9887 -1.8527  1.0803
  158SAPE  C31017711   0.694   1.445   8.987  0.4716 -0.9273 -0.6731
  158SAPE  H10X17712   0.772   1.385   8.936  0.9319 -0.9872  0.0796
  158SAPE  H10Y17713   0.752   1.539   9.002  1.6669 -1.9787  1.8891
  158SAPE  C31117714   0.575   1.470   8.909  0.1037 -1.0196  0.1633
  158SAPE  H11X17715   0.525   1.566   8.934  1.2146 -0.3887  0.0059
  158SAPE  H11Y17716   0.497   1.395   8.935  0.3497 -0.6721  2.0092
  158SAPE  C31217717   0.590   1.484   8.758 -0.1876 -0.3506 -0.1558
  158SAPE  H12X17718   0.492   1.462   8.708  0.3434 -0.7772 -1.0413
  158SAPE  H12Y17719   0.652   1.397   8.729  0.4435 -0.4766  1.5294
  158SAPE  C31317720   0.652   1.616   8.708  0.2097  0.2221 -0.8800
  158SAPE  H13X17721   0.750   1.636   8.758 -0.1991 -1.2540  0.6027
  158SAPE  H13Y17722   0.579   1.698   8.724  0.6068  0.9259 -2.3972
  158SAPE  C31417723   0.696   1.611   8.557  0.6380  0.0247  0.1267
  158SAPE  H14X17724   0.600   1.585   8.505  0.3308  0.1770  0.6127
  158SAPE  H14Y17725   0.782   1.542   8.546  0.9753  0.2601  1.1719
  158SAPE  C31517726   0.750   1.749   8.515 -0.3009 -0.4237  0.6782
  158SAPE  H15X17727   0.816   1.746   8.425 -1.3260 -1.7255 -0.0701
  158SAPE  H15Y17728   0.814   1.788   8.596 -0.9863  2.9705 -0.2412
  158SAPE  C31617729   0.653   1.863   8.486 -0.3225 -0.4852 -0.2405
  158SAPE  H16X17730   0.606   1.896   8.581 -0.7458 -2.8313  0.4518
  158SAPE  H16Y17731   0.567   1.837   8.420  0.1025  0.7894 -1.3260
  158SAPE  C31717732   0.728   1.976   8.415  0.4746  0.1263 -1.0835
  158SAPE  H17X17733   0.768   1.933   8.321 -1.6200 -2.0891 -1.0492
  158SAPE  H17Y17734   0.813   2.003   8.482 -0.2914 -3.2702  1.5172
  158SAPE  C31817735   0.642   2.101   8.377 -1.1190  0.2510  0.0797
  158SAPE  H18X17736   0.699   2.147   8.293  0.8424 -0.9774  0.6989
  158SAPE  H18Y17737   0.638   2.172   8.463 -0.4978  1.1216 -0.5869
  158SAPE  H18Z17738   0.538   2.073   8.349 -0.6618 -0.8853 -0.5292
  159SAPE     N17739   1.842   5.873   6.592 -0.2875 -0.4538  0.3231
  159SAPE   HN117740   1.774   5.949   6.575 -0.2855 -0.8969 -1.9230
  159SAPE   HN217741   1.817   5.793   6.529  0.5293 -0.0708 -0.5055
  159SAPE   HN317742   1.846   5.838   6.690 -3.0237 -1.4458  0.1653
  159SAPE   C1217743   1.974   5.926   6.562 -0.2847  0.1392  1.0650
  159SAPE  H12A17744   2.044   5.840   6.554  1.7051  1.6764  1.3138
  159SAPE  H12B17745   2.014   5.987   6.646 -1.9018 -0.1977  2.1507
  159SAPE   C1117746   1.979   6.000   6.431  0.1803  0.2331  0.4535
  159SAPE  H11A17747   1.947   5.940   6.343  1.8652  2.0256 -1.4904
  159SAPE  H11B17748   2.089   6.013   6.414  0.2464 -2.1573 -1.7409
  159SAPE     P17749   1.962   6.261   6.446  0.0529  0.0216 -0.4866
  159SAPE   O1317750   2.075   6.266   6.350 -0.5415  0.6099 -0.4381
  159SAPE   O1417751   1.849   6.357   6.427  0.0417 -0.1890 -0.2920
  159SAPE   O1217752   1.898   6.115   6.423 -0.0435 -0.5352 -0.0106
  159SAPE   O1117753   2.012   6.268   6.592 -0.1005  0.5739 -0.4707
  159SAPE    C117754   1.923   6.262   6.703  0.8585 -0.3545  0.2316
  159SAPE    HA17755   1.829   6.318   6.683  1.0545 -0.2694 -0.5024
  159SAPE    HB17756   1.892   6.157   6.722  1.8654 -0.6707  0.2136
  159SAPE    C217757   1.988   6.309   6.838  0.4733 -0.0622  0.2535
  159SAPE    HS17758   2.069   6.235   6.857  0.2970 -0.6914 -1.2399
  159SAPE   O2117759   1.888   6.311   6.945 -0.8212 -0.1827  0.4896
  159SAPE   C2117760   1.882   6.183   7.004 -0.1928 -0.8874 -0.0686
  159SAPE   O2217761   1.946   6.084   6.973  0.3244  0.2505  0.1180
  159SAPE   C2217762   1.789   6.185   7.120 -0.0285  0.2252 -0.4372
  159SAPE   H2R17763   1.706   6.258   7.109 -1.2813 -0.7268  1.8927
  159SAPE   H2S17764   1.728   6.092   7.126 -0.4831  0.4552 -1.3407
  159SAPE    C317765   2.035   6.454   6.827 -0.5276  0.5611  0.0145
  159SAPE    HX17766   1.946   6.520   6.814 -0.5878  0.2434 -1.3563
  159SAPE    HY17767   2.098   6.463   6.736 -1.3275  0.6431 -0.5392
  159SAPE   O3117768   2.124   6.482   6.945  0.0703  0.2445  0.5523
  159SAPE   C3117769   2.104   6.607   6.993  0.1148 -0.7048 -0.5661
  159SAPE   O3217770   2.026   6.690   6.949  0.3506 -0.1530  0.1821
  159SAPE   C3217771   2.197   6.624   7.122 -0.0755  0.2216  0.4148
  159SAPE   H2X17772   2.292   6.569   7.104 -0.7037 -0.8471  0.2419
  159SAPE   H2Y17773   2.161   6.575   7.216  2.6088 -0.6871  1.0678
  159SAPE   C2317774   1.860   6.213   7.255 -0.0071  0.2961  0.3194
  159SAPE   H3R17775   1.951   6.149   7.263 -0.0569 -0.3263 -2.7404
  159SAPE   H3S17776   1.784   6.181   7.330 -0.0483  0.0469  0.1704
  159SAPE   C2417777   1.882   6.362   7.287  0.5986  0.5140  0.5330
  159SAPE   H4R17778   1.786   6.405   7.324  0.8235 -0.1966  2.0234
  159SAPE   H4S17779   1.912   6.417   7.195 -0.0596 -1.4957 -0.9598
  159SAPE   C2517780   1.991   6.381   7.386 -0.2694 -0.0139 -0.8447
  159SAPE   H5R17781   2.092   6.391   7.344  0.6314  0.3249  1.2727
  159SAPE   C2617782   1.980   6.417   7.514 -0.3929  0.4439 -0.7090
  159SAPE   H6R17783   2.078   6.434   7.562 -1.2692  2.2964  0.5219
  159SAPE   C2717784   1.861   6.441   7.602  0.1849  0.5538 -0.8904
  159SAPE   H7R17785   1.876   6.378   7.692  0.2347 -3.0359 -3.2186
  159SAPE   H7S17786   1.773   6.389   7.558  1.4089 -1.0720 -1.5152
  159SAPE   C2817787   1.832   6.585   7.624 -0.1295 -0.6678  1.1107
  159SAPE   H8R17788   1.906   6.659   7.588 -1.7374  0.7608  0.5725
  159SAPE   C2917789   1.741   6.623   7.712  0.0445 -0.2794  0.0207
  159SAPE   H9R17790   1.739   6.733   7.719  0.9261 -0.1711 -1.1692
  159SAPE  C21017791   1.647   6.533   7.782 -0.3384 -0.3107 -0.2431
  159SAPE  H10R17792   1.628   6.449   7.713 -1.5086  0.8793 -1.4216
  159SAPE  H10S17793   1.546   6.579   7.784 -0.7088 -1.0511 -1.5112
  159SAPE  C21117794   1.696   6.467   7.910  0.0805 -0.0260  0.1586
  159SAPE  H11R17795   1.755   6.375   7.902 -1.5378 -0.9714 -2.0517
  159SAPE  C21217796   1.683   6.529   8.031 -1.0389 -0.6198  0.4666
  159SAPE  H12R17797   1.721   6.479   8.121  2.1363  3.2148  1.5344
  159SAPE  C21317798   1.630   6.663   8.067  0.3526 -0.2174  1.0568
  159SAPE  H13R17799   1.627   6.733   7.981  0.7009 -0.9074  0.4711
  159SAPE  H13S17800   1.697   6.712   8.140 -0.9953  1.6112  1.1407
  159SAPE  C21417801   1.487   6.640   8.113  0.1746 -0.0452  0.1753
  159SAPE  H14R17802   1.439   6.562   8.052  1.3904  0.5468 -1.6552
  159SAPE  C21517803   1.422   6.691   8.219 -0.1079  0.1076  0.3797
  159SAPE  H15R17804   1.317   6.659   8.228  0.3644 -1.0106  3.6739
  159SAPE  C21617805   1.475   6.790   8.319  0.4108 -0.2912 -0.1577
  159SAPE  H16R17806   1.582   6.817   8.300  0.3833 -0.1811 -0.1550
  159SAPE  H16S17807   1.469   6.744   8.420  1.5487 -1.2755 -0.5044
  159SAPE  C21717808   1.395   6.924   8.318  0.3947  0.0078  0.2592
  159SAPE  H17R17809   1.436   7.002   8.386  2.2457 -1.1356  0.5093
  159SAPE  H17S17810   1.293   6.911   8.361  0.3046  0.9500  0.3447
  159SAPE  C21817811   1.366   6.978   8.178 -0.5929  0.1482 -0.0760
  159SAPE  H18R17812   1.321   6.901   8.112  0.5747  0.4435 -1.2560
  159SAPE  H18S17813   1.471   6.990   8.145 -0.3859 -2.9601 -0.8826
  159SAPE  C21917814   1.294   7.117   8.163 -0.0811  0.2329 -0.2143
  159SAPE  H19R17815   1.319   7.151   8.060  2.9733  0.5860  0.5571
  159SAPE  H19S17816   1.346   7.179   8.240 -0.5343  0.8377 -0.3808
  159SAPE  C22017817   1.150   7.130   8.195  0.0687  0.4939 -0.9991
  159SAPE  H20R17818   1.098   7.049   8.140  0.1759 -1.1411  1.1453
  159SAPE  H20S17819   1.103   7.230   8.189 -0.7906  0.0566 -1.7176
  159SAPE  H20T17820   1.139   7.100   8.302 -0.1360  0.4164 -1.0425
  159SAPE   C3317821   2.220   6.773   7.159  0.0066  0.5070 -0.5310
  159SAPE   H3X17822   2.123   6.816   7.191 -0.0254 -0.9397  1.5770
  159SAPE   H3Y17823   2.270   6.823   7.073 -0.4030  3.0776  0.6323
  159SAPE   C3417824   2.316   6.780   7.279  0.1922 -0.4048 -0.0938
  159SAPE   H4X17825   2.360   6.881   7.276 -0.9588  0.3413  3.5004
  159SAPE   H4Y17826   2.396   6.703   7.275 -0.8888 -1.6151  0.7345
  159SAPE   C3517827   2.236   6.766   7.414  0.0788 -0.4479 -0.5102
  159SAPE   H5X17828   2.155   6.689   7.416  0.5694 -0.9733  1.0330
  159SAPE   H5Y17829   2.181   6.861   7.427  0.0649 -0.6423  1.0822
  159SAPE   C3617830   2.317   6.726   7.541  0.6476 -0.3659 -0.0149
  159SAPE   H6X17831   2.375   6.816   7.572 -0.7303  0.6389 -0.2104
  159SAPE   H6Y17832   2.395   6.653   7.512  0.7494  0.3663 -1.7043
  159SAPE   C3717833   2.233   6.686   7.663  0.1341  0.0024 -0.9580
  159SAPE   H7X17834   2.158   6.605   7.647 -1.1864  0.2813  2.7666
  159SAPE   H7Y17835   2.180   6.779   7.694 -1.9604 -0.5212 -2.7141
  159SAPE   C3817836   2.338   6.635   7.773  0.3216  0.0062  0.1487
  159SAPE   H8X17837   2.406   6.719   7.798  1.1428 -0.5276 -0.2311
  159SAPE   H8Y17838   2.395   6.556   7.720 -0.6461  0.6732 -2.0209
  159SAPE   C3917839   2.268   6.587   7.906 -0.0743  0.8941  0.0454
  159SAPE   H9X17840   2.270   6.671   7.979  0.4848  0.1604  0.9006
  159SAPE   H9Y17841   2.337   6.516   7.956 -1.9314 -0.6257  0.5357
  159SAPE  C31017842   2.127   6.515   7.885 -0.3834  0.3819 -0.4680
  159SAPE  H10X17843   2.131   6.434   7.809  0.8282  0.7626 -0.8325
  159SAPE  H10Y17844   2.044   6.579   7.847 -2.5392 -1.9882 -0.0708
  159SAPE  C31117845   2.069   6.452   8.007  0.6132  0.5716 -0.0749
  159SAPE  H11X17846   2.137   6.376   8.051 -0.7532 -0.2317  0.7232
  159SAPE  H11Y17847   1.985   6.393   7.965  1.5915 -0.7132 -0.2666
  159SAPE  C31217848   2.034   6.546   8.125  0.8099 -0.5937  0.0772
  159SAPE  H12X17849   1.956   6.612   8.082  0.0360 -1.1744  0.5710
  159SAPE  H12Y17850   2.123   6.608   8.150  0.8826 -0.7466  0.2019
  159SAPE  C31317851   1.987   6.466   8.239  0.6279 -0.7526  0.1113
  159SAPE  H13X17852   2.049   6.378   8.267  1.1542 -0.6046 -0.5853
  159SAPE  H13Y17853   1.887   6.427   8.212  1.2993 -1.7969 -0.9738
  159SAPE  C31417854   1.956   6.555   8.366 -0.3902 -0.2402 -0.0501
  159SAPE  H14X17855   1.875   6.629   8.348 -0.4902 -0.3694 -0.1340
  159SAPE  H14Y17856   2.046   6.612   8.396 -1.9832  2.0773  0.6451
  159SAPE  C31517857   1.913   6.482   8.499  0.6523 -0.5048  0.0358
  159SAPE  H15X17858   1.900   6.559   8.578  3.0427 -1.5147  1.5321
  159SAPE  H15Y17859   1.997   6.430   8.550 -0.1156  0.5605  2.5346
  159SAPE  C31617860   1.796   6.384   8.480 -0.7751 -0.0525 -0.1799
  159SAPE  H16X17861   1.830   6.283   8.450  0.7581  0.0156  1.2052
  159SAPE  H16Y17862   1.732   6.424   8.397  0.2381  0.8600 -0.5484
  159SAPE  C31717863   1.709   6.366   8.606  0.5761  0.0862 -0.0020
  159SAPE  H17X17864   1.627   6.303   8.566  0.1749  1.3527 -1.2478
  159SAPE  H17Y17865   1.661   6.458   8.647  1.4374  0.0020  1.2608
  159SAPE  C31817866   1.777   6.297   8.716  0.1070 -0.6635 -0.1346
  159SAPE  H18X17867   1.869   6.351   8.745 -0.4413 -1.1499  2.8014
  159SAPE  H18Y17868   1.795   6.191   8.689 -1.2117 -1.4533  1.8732
  159SAPE  H18Z17869   1.708   6.309   8.802  0.1611 -0.8432 -0.0657
  160SAPE     N17870   1.803   6.546   6.251 -0.4678  1.1043 -0.1753
  160SAPE   HN117871   1.741   6.619   6.289 -0.0544  0.2870  2.2410
  160SAPE   HN217872   1.769   6.505   6.161  2.6617  2.5414 -2.2041
  160SAPE   HN317873   1.801   6.466   6.317  1.1450 -0.8333 -2.2977
  160SAPE   C1217874   1.945   6.590   6.235  0.4014  1.3056  0.2817
  160SAPE  H12A17875   1.951   6.646   6.140  0.6474 -0.1016 -0.5462
  160SAPE  H12B17876   2.018   6.508   6.224  0.1395  0.8574  1.5955
  160SAPE   C1117877   1.990   6.680   6.352 -0.5562  0.3851  0.3456
  160SAPE  H11A17878   2.101   6.694   6.349 -0.4137 -0.7724 -1.7923
  160SAPE  H11B17879   1.967   6.623   6.444  0.3133  1.2609  1.1343
  160SAPE     P17880   1.910   6.889   6.484  0.2067  0.2865  0.0755
  160SAPE   O1317881   1.863   7.030   6.471 -0.0422 -0.4772 -0.2044
  160SAPE   O1417882   1.841   6.810   6.591  0.2159 -0.1931 -0.2141
  160SAPE   O1217883   1.922   6.808   6.341  0.0437 -0.0421 -0.0051
  160SAPE   O1117884   2.065   6.895   6.528 -0.3145  0.9482 -0.4060
  160SAPE    C117885   2.134   6.821   6.632 -0.6247 -0.0184 -0.0776
  160SAPE    HA17886   2.096   6.838   6.735  0.4644  1.4345  0.1171
  160SAPE    HB17887   2.133   6.710   6.622 -0.3438  0.0628 -1.1493
  160SAPE    C217888   2.277   6.870   6.647 -0.1275  0.2010  1.0491
  160SAPE    HS17889   2.320   6.873   6.545  1.1625  1.2944  1.5986
  160SAPE   O2117890   2.353   6.787   6.729  0.0513  0.7470 -0.5765
  160SAPE   C2117891   2.393   6.660   6.700 -0.1945  0.2460 -0.7823
  160SAPE   O2217892   2.379   6.602   6.598 -0.0523 -0.0628  0.1245
  160SAPE   C2217893   2.457   6.594   6.826  1.0002 -0.5179 -0.2790
  160SAPE   H2R17894   2.368   6.550   6.877  0.1790 -0.4154 -1.5634
  160SAPE   H2S17895   2.529   6.512   6.805  1.0982 -0.5549  0.1903
  160SAPE    C317896   2.281   7.019   6.701  0.5153  0.1773 -0.4943
  160SAPE    HX17897   2.232   7.080   6.622  0.5723  1.1071  0.1710
  160SAPE    HY17898   2.387   7.051   6.710  0.7859 -0.0677 -2.3698
  160SAPE   O3117899   2.209   7.028   6.828  0.1003 -0.3879  0.2313
  160SAPE   C3117900   2.182   7.151   6.867  0.1237 -0.5101  0.3464
  160SAPE   O3217901   2.201   7.251   6.801 -0.3893 -0.1822  0.0851
  160SAPE   C3217902   2.119   7.148   6.999 -0.0790 -0.4741  0.4458
  160SAPE   H2X17903   2.156   7.063   7.060 -1.7756 -0.5043  1.5158
  160SAPE   H2Y17904   2.011   7.123   6.993 -0.5040  1.0576  1.0216
  160SAPE   C2317905   2.529   6.686   6.927 -0.7508 -0.2437  0.4851
  160SAPE   H3R17906   2.456   6.735   6.995 -0.4740  1.5418 -0.4780
  160SAPE   H3S17907   2.589   6.762   6.873  1.2773 -1.7009  0.5469
  160SAPE   C2417908   2.639   6.597   7.010  0.1046  0.1121 -0.3045
  160SAPE   H4R17909   2.707   6.546   6.939  1.5199  0.3873  0.7992
  160SAPE   H4S17910   2.580   6.516   7.059  0.2711 -0.3410 -0.8377
  160SAPE   C2517911   2.725   6.678   7.103  0.2100 -0.2165 -0.0077
  160SAPE   H5R17912   2.779   6.761   7.055 -0.4333  2.0622  2.9025
  160SAPE   C2617913   2.729   6.672   7.242 -0.4210  0.6791 -0.5806
  160SAPE   H6R17914   2.795   6.745   7.292 -0.3056  1.3363 -1.6558
  160SAPE   C2717915   2.654   6.583   7.341 -0.1337 -0.3211 -0.0000
  160SAPE   H7R17916   2.574   6.521   7.295 -0.2003 -1.3700  1.4341
  160SAPE   H7S17917   2.606   6.656   7.410  3.0230 -1.3282  3.6409
  160SAPE   C2817918   2.744   6.490   7.414  0.1581 -0.1866 -0.4265
  160SAPE   H8R17919   2.779   6.408   7.350 -1.4531 -0.6814 -0.7316
  160SAPE   C2917920   2.779   6.491   7.544  0.8179 -0.2393 -0.4253
  160SAPE   H9R17921   2.858   6.423   7.580  0.3622  0.0160  1.1199
  160SAPE  C21017922   2.732   6.597   7.650  0.3601  0.7470  0.0550
  160SAPE  H10R17923   2.661   6.674   7.611 -0.1531 -0.0625 -0.6685
  160SAPE  H10S17924   2.819   6.653   7.690  0.8278 -1.1377  1.8015
  160SAPE  C21117925   2.678   6.512   7.765  0.4672 -0.4586 -0.0314
  160SAPE  H11R17926   2.632   6.415   7.737 -1.3671  0.6009 -0.9206
  160SAPE  C21217927   2.689   6.529   7.901 -0.1777  0.0884  0.4213
  160SAPE  H12R17928   2.636   6.453   7.961 -1.8205  1.4952  0.8226
  160SAPE  C21317929   2.745   6.644   7.970 -0.0448 -0.6943  0.6940
  160SAPE  H13R17930   2.816   6.696   7.902 -0.2366 -0.8548  0.3692
  160SAPE  H13S17931   2.805   6.611   8.057  2.0145  2.1016  0.4691
  160SAPE  C21417932   2.639   6.732   8.021  1.1900  0.6841 -0.5884
  160SAPE  H14R17933   2.562   6.762   7.949  1.4612  1.1469 -0.6948
  160SAPE  C21517934   2.616   6.761   8.149 -0.5757 -0.4066 -0.4683
  160SAPE  H15R17935   2.548   6.843   8.179 -1.7017 -1.1486 -0.9295
  160SAPE  C21617936   2.698   6.713   8.268 -0.8387  0.0974 -0.0173
  160SAPE  H16R17937   2.792   6.771   8.266  0.7416 -2.3029  0.2362
  160SAPE  H16S17938   2.729   6.607   8.252  2.6301  0.9664  0.2177
  160SAPE  C21717939   2.620   6.729   8.401  0.4436  0.7217  0.5372
  160SAPE  H17R17940   2.530   6.664   8.399  1.5356 -0.8583 -1.3389
  160SAPE  H17S17941   2.585   6.834   8.418  0.5915  0.6163  1.5168
  160SAPE  C21817942   2.697   6.680   8.529 -0.8430 -0.4626  0.4740
  160SAPE  H18R17943   2.757   6.766   8.566 -2.3143 -0.3132  2.6658
  160SAPE  H18S17944   2.767   6.597   8.506  0.2347  1.1503 -2.8460
  160SAPE  C21917945   2.613   6.652   8.654 -0.0594  0.7425 -0.1609
  160SAPE  H19R17946   2.557   6.746   8.673 -2.1189 -0.3539 -0.6138
  160SAPE  H19S17947   2.675   6.623   8.742  0.4365  0.9228 -0.4444
  160SAPE  C22017948   2.513   6.542   8.628 -0.2692  0.2584  0.0538
  160SAPE  H20R17949   2.567   6.445   8.627 -0.7864 -0.0323 -0.0253
  160SAPE  H20S17950   2.445   6.548   8.540 -0.1487 -1.1532 -0.1589
  160SAPE  H20T17951   2.441   6.548   8.713  1.9764  0.9877  2.0317
  160SAPE   C3317952   2.146   7.279   7.091 -0.2652  0.6337  0.1887
  160SAPE   H3X17953   2.111   7.370   7.039 -0.4817  0.5033  0.1039
  160SAPE   H3Y17954   2.253   7.298   7.111  0.2545 -0.0965 -1.7410
  160SAPE   C3417955   2.075   7.257   7.227 -0.2814  0.3344  0.4247
  160SAPE   H4X17956   2.002   7.174   7.214  0.5934 -0.8385  2.4644
  160SAPE   H4Y17957   2.019   7.349   7.256 -3.2698 -1.0478 -0.5303
  160SAPE   C3517958   2.169   7.214   7.346  1.0218  0.5076 -0.2824
  160SAPE   H5X17959   2.247   7.289   7.371  2.2187 -0.7079 -0.2406
  160SAPE   H5Y17960   2.223   7.123   7.311  0.7407  0.4322 -0.5220
  160SAPE   C3617961   2.095   7.185   7.478  0.5368 -0.0470  0.1563
  160SAPE   H6X17962   2.028   7.099   7.457 -0.8482  0.6134  1.6365
  160SAPE   H6Y17963   2.029   7.273   7.494 -0.4469  0.0004 -3.2838
  160SAPE   C3717964   2.195   7.145   7.594 -0.1534 -0.0707 -0.1734
  160SAPE   H7X17965   2.255   7.237   7.610  0.4942 -0.4775 -0.1964
  160SAPE   H7Y17966   2.268   7.074   7.548 -0.1155 -0.1273 -0.0259
  160SAPE   C3817967   2.126   7.098   7.719  0.0374 -0.6578  0.4091
  160SAPE   H8X17968   2.065   7.012   7.684 -1.0790  0.2095  0.1329
  160SAPE   H8Y17969   2.058   7.177   7.758  0.1068  1.3708 -3.1593
  160SAPE   C3917970   2.235   7.074   7.825  0.0084 -0.5053 -0.2839
  160SAPE   H9X17971   2.288   7.169   7.847 -0.1442 -0.4905  0.0199
  160SAPE   H9Y17972   2.308   7.008   7.774 -0.1376 -1.7929  1.1143
  160SAPE  C31017973   2.182   7.014   7.958  0.3847  0.3721  0.1752
  160SAPE  H10X17974   2.119   6.928   7.927 -0.1117  0.7081  0.2455
  160SAPE  H10Y17975   2.120   7.086   8.014 -1.8458  0.6919 -2.4845
  160SAPE  C31117976   2.293   6.954   8.033 -0.8240 -0.2557  0.0513
  160SAPE  H11X17977   2.357   7.038   8.066  3.2566 -2.0918 -2.4208
  160SAPE  H11Y17978   2.360   6.894   7.968  0.3889  0.3266  0.7520
  160SAPE  C31217979   2.250   6.877   8.160 -0.2089  0.2207  0.7091
  160SAPE  H12X17980   2.323   6.798   8.190 -0.7795 -0.4951  0.2699
  160SAPE  H12Y17981   2.152   6.826   8.148  0.6967 -1.9684  1.8648
  160SAPE  C31317982   2.241   6.970   8.278 -0.6772 -0.1669  0.4496
  160SAPE  H13X17983   2.181   7.060   8.253 -2.2158  0.2351  4.7568
  160SAPE  H13Y17984   2.338   7.007   8.318 -0.6615  0.2129  0.0590
  160SAPE  C31417985   2.177   6.898   8.402 -0.0943 -0.0339 -0.0352
  160SAPE  H14X17986   2.229   6.806   8.438  0.0372  0.2598  0.5338
  160SAPE  H14Y17987   2.078   6.861   8.370 -0.6852  0.2056  1.4453
  160SAPE  C31517988   2.163   6.983   8.530  0.0582 -0.1209  0.4819
  160SAPE  H15X17989   2.105   7.077   8.521  1.1433  0.3302 -4.0551
  160SAPE  H15Y17990   2.263   7.028   8.550 -0.2012  2.2928 -2.8883
  160SAPE  C31617991   2.109   6.910   8.653 -0.3527  0.6557  0.1160
  160SAPE  H16X17992   2.149   6.807   8.655 -1.2977  0.2646 -0.4023
  160SAPE  H16Y17993   1.999   6.903   8.634 -0.5483  1.3158  0.9281
  160SAPE  C31717994   2.147   6.983   8.781  0.4310 -0.0469 -0.3777
  160SAPE  H17X17995   2.100   7.084   8.785 -0.3291 -0.4155  0.8660
  160SAPE  H17Y17996   2.258   6.989   8.782  0.4179  0.1877  0.0646
  160SAPE  C31817997   2.088   6.912   8.909  0.2731  0.2183 -0.6893
  160SAPE  H18X17998   2.119   6.963   9.003  0.9540 -0.9153 -0.2801
  160SAPE  H18Y17999   2.125   6.808   8.911 -2.3854 -0.8104 -1.1536
  160SAPE  H18Z18000   1.977   6.907   8.912  0.2692  0.7135  1.6556
  161SAPE     N18001   4.600   6.625   6.074  0.4175 -0.2610 -0.0251
  161SAPE   HN118002   4.606   6.650   5.973 -1.1800 -1.0998 -0.3622
  161SAPE   HN218003   4.614   6.522   6.085 -1.9602 -0.5152  1.5303
  161SAPE   HN318004   4.508   6.642   6.119  0.6711  0.4142  0.2403
  161SAPE   C1218005   4.693   6.715   6.164  0.2144  0.6733 -0.1211
  161SAPE  H12A18006   4.628   6.791   6.213  0.0847 -1.1315  2.7559
  161SAPE  H12B18007   4.767   6.768   6.101  1.6050 -1.0022  0.0168
  161SAPE   C1118008   4.772   6.629   6.259 -0.2183 -0.0377  0.0504
  161SAPE  H11A18009   4.832   6.709   6.307  1.0725 -0.6694 -0.4614
  161SAPE  H11B18010   4.827   6.549   6.205 -1.2342 -1.2152  0.7047
  161SAPE     P18011   4.724   6.534   6.496 -0.0919 -0.2279 -0.0416
  161SAPE   O1318012   4.609   6.479   6.576 -0.3771  0.2590  0.3380
  161SAPE   O1418013   4.847   6.457   6.499 -0.3012 -0.1166  0.3378
  161SAPE   O1218014   4.686   6.552   6.340  0.3129  0.7994  0.6366
  161SAPE   O1118015   4.742   6.686   6.535 -0.0574  0.0079 -0.1052
  161SAPE    C118016   4.863   6.743   6.575 -0.4964  0.3977 -0.7910
  161SAPE    HA18017   4.949   6.700   6.520  0.5534 -0.4978  1.4472
  161SAPE    HB18018   4.872   6.849   6.544  0.8436  0.7338  0.6204
  161SAPE    C218019   4.893   6.737   6.736 -0.4381 -0.4323  0.0679
  161SAPE    HS18020   4.891   6.630   6.764  0.2856  0.1322  2.5159
  161SAPE   O2118021   4.802   6.819   6.803  0.0055 -0.2636  0.8407
  161SAPE   C2118022   4.753   6.768   6.920 -0.0849 -0.1531 -0.1187
  161SAPE   O2218023   4.801   6.672   6.977  0.1545  0.0672 -0.8123
  161SAPE   C2218024   4.616   6.828   6.946 -0.1159  0.7869 -0.1213
  161SAPE   H2R18025   4.615   6.860   7.052  3.1749  0.8145 -0.0116
  161SAPE   H2S18026   4.601   6.916   6.880 -1.8114  0.9470  0.4140
  161SAPE    C318027   5.035   6.801   6.761 -0.4834 -0.6744  0.1360
  161SAPE    HX18028   5.029   6.893   6.699  0.6132 -1.4356 -1.1721
  161SAPE    HY18029   5.108   6.737   6.707  0.7039  1.4673 -0.9397
  161SAPE   O3118030   5.057   6.823   6.901  0.2522 -0.3433 -0.4777
  161SAPE   C3118031   5.097   6.727   6.983 -0.3096 -0.9753 -0.7022
  161SAPE   O3218032   5.135   6.616   6.947  0.6522  0.0152 -0.1219
  161SAPE   C3218033   5.095   6.779   7.130  0.0588  0.2015  0.1303
  161SAPE   H2X18034   4.993   6.817   7.150  0.3453  0.4681  1.1709
  161SAPE   H2Y18035   5.159   6.869   7.127  1.6531 -0.8205  1.4560
  161SAPE   C2318036   4.503   6.721   6.920  0.8994  0.6632 -0.1286
  161SAPE   H3R18037   4.521   6.659   6.829 -0.0262  0.6094 -0.2889
  161SAPE   H3S18038   4.413   6.780   6.893 -0.6968 -1.6089 -0.0232
  161SAPE   C2418039   4.460   6.629   7.038  0.0576  0.1761  0.1543
  161SAPE   H4R18040   4.556   6.583   7.068 -0.9333 -1.4666  0.9184
  161SAPE   H4S18041   4.398   6.544   7.003  1.0460 -1.2810  1.8348
  161SAPE   C2518042   4.382   6.697   7.141 -0.0337 -0.7148 -0.0445
  161SAPE   H5R18043   4.293   6.748   7.102  1.0841  0.2717 -1.4341
  161SAPE   C2618044   4.416   6.718   7.266 -0.7934 -0.1157  0.1630
  161SAPE   H6R18045   4.340   6.768   7.329 -1.8009 -1.3086 -0.0583
  161SAPE   C2718046   4.535   6.673   7.349  0.9688  0.4144 -0.1994
  161SAPE   H7R18047   4.562   6.573   7.310  2.1365  0.4237  0.5299
  161SAPE   H7S18048   4.498   6.654   7.453  0.0650 -0.0263 -0.5886
  161SAPE   C2818049   4.648   6.772   7.342  0.2303  0.6168 -0.8416
  161SAPE   H8R18050   4.669   6.831   7.251  3.3752  0.3159 -0.4252
  161SAPE   C2918051   4.738   6.791   7.443  0.0169 -0.1816 -1.0071
  161SAPE   H9R18052   4.817   6.866   7.428 -1.0469  1.2101  0.0636
  161SAPE  C21018053   4.750   6.727   7.578  0.2916 -0.1063  0.0773
  161SAPE  H10R18054   4.841   6.766   7.628  0.2363 -0.5085  0.5068
  161SAPE  H10S18055   4.766   6.621   7.546 -0.3387  0.6859 -3.2151
  161SAPE  C21118056   4.641   6.735   7.681  0.4944 -0.4773  0.1157
  161SAPE  H11R18057   4.556   6.801   7.657  1.1966  1.0384  1.5474
  161SAPE  C21218058   4.639   6.663   7.794  0.1423  0.5781 -1.1760
  161SAPE  H12R18059   4.565   6.673   7.875  1.1675  0.5477 -0.1943
  161SAPE  C21318060   4.743   6.561   7.842  0.2617 -0.0424 -0.2856
  161SAPE  H13R18061   4.782   6.504   7.755 -0.6678  1.6355 -1.8751
  161SAPE  H13S18062   4.699   6.480   7.903  1.6472 -1.1746 -0.7380
  161SAPE  C21418063   4.860   6.623   7.909  1.0754 -0.1693 -0.8544
  161SAPE  H14R18064   4.916   6.683   7.835 -0.4393 -0.3899 -2.2241
  161SAPE  C21518065   4.898   6.601   8.033  0.3438 -0.0702  0.0016
  161SAPE  H15R18066   4.988   6.656   8.064  0.2404 -0.4643  1.0312
  161SAPE  C21618067   4.822   6.523   8.140 -0.5419  0.0789  0.2723
  161SAPE  H16R18068   4.715   6.506   8.118 -0.6546  1.1333 -0.0155
  161SAPE  H16S18069   4.829   6.568   8.242 -0.0358 -2.3533  1.3968
  161SAPE  C21718070   4.892   6.387   8.165  0.2096  0.3282  0.4478
  161SAPE  H17R18071   4.987   6.399   8.221  0.3013 -0.5216  0.4800
  161SAPE  H17S18072   4.918   6.340   8.068  1.9621  1.8125  0.1454
  161SAPE  C21818073   4.802   6.308   8.259 -0.1652  0.3830 -0.0830
  161SAPE  H18R18074   4.702   6.293   8.213 -0.3061 -0.2432  0.4182
  161SAPE  H18S18075   4.796   6.374   8.348  1.3825  0.5733 -0.0841
  161SAPE  C21918076   4.853   6.178   8.320  0.2835 -0.2291 -0.7522
  161SAPE  H19R18077   4.846   6.100   8.241  2.6660  0.5265 -1.7957
  161SAPE  H19S18078   4.792   6.151   8.409  0.6844  0.2457 -0.3259
  161SAPE  C22018079   5.000   6.184   8.370  0.8750  0.0314 -0.6253
  161SAPE  H20R18080   5.001   6.277   8.432 -2.4052  1.0133 -1.7973
  161SAPE  H20S18081   5.063   6.203   8.281  1.7452  1.7422  0.2987
  161SAPE  H20T18082   5.035   6.092   8.421 -1.1322 -0.4871 -0.0660
  161SAPE   C3318083   5.114   6.674   7.239 -0.4254  0.5967 -0.1143
  161SAPE   H3X18084   5.195   6.599   7.226 -0.5080  0.0118  2.2296
  161SAPE   H3Y18085   5.014   6.624   7.240  0.0745 -0.4440 -0.6739
  161SAPE   C3418086   5.132   6.734   7.379 -0.8354 -0.0549  0.4928
  161SAPE   H4X18087   5.068   6.823   7.399  3.6697  3.2368  1.8063
  161SAPE   H4Y18088   5.228   6.789   7.386 -0.5954 -0.5421  1.1523
  161SAPE   C3518089   5.136   6.634   7.492 -0.0934 -0.3709 -0.2130
  161SAPE   H5X18090   5.210   6.556   7.464  0.2682 -0.7060  1.5259
  161SAPE   H5Y18091   5.042   6.577   7.502 -0.9995  1.1395  0.2819
  161SAPE   C3618092   5.165   6.690   7.629 -0.3346  0.2249  0.1130
  161SAPE   H6X18093   5.075   6.750   7.653 -1.2667 -0.5287 -1.3434
  161SAPE   H6Y18094   5.257   6.754   7.627 -0.4643  0.4028 -0.4826
  161SAPE   C3718095   5.183   6.568   7.719 -0.8728  0.0952  0.1260
  161SAPE   H7X18096   5.270   6.507   7.689 -2.1749 -1.0656 -1.4474
  161SAPE   H7Y18097   5.093   6.503   7.724 -0.2677 -0.7763 -0.0982
  161SAPE   C3818098   5.231   6.607   7.858 -0.2029 -0.8869 -0.0554
  161SAPE   H8X18099   5.153   6.661   7.916  0.1885  1.4561 -1.5772
  161SAPE   H8Y18100   5.311   6.683   7.846 -1.7739  1.6541  3.8367
  161SAPE   C3918101   5.285   6.488   7.945 -0.7185  1.0786  0.4882
  161SAPE   H9X18102   5.373   6.436   7.901  0.9664  2.4776  1.9862
  161SAPE   H9Y18103   5.201   6.416   7.956  0.1891 -0.0515  0.2196
  161SAPE  C31018104   5.337   6.535   8.081 -0.3670  0.0525 -0.3637
  161SAPE  H10X18105   5.252   6.587   8.132  0.9957  0.1139  1.9534
  161SAPE  H10Y18106   5.418   6.608   8.059 -0.5032  0.3357  0.0642
  161SAPE  C31118107   5.384   6.424   8.170  0.3667 -0.4559  0.0527
  161SAPE  H11X18108   5.479   6.376   8.136  0.2206 -1.4254  0.9508
  161SAPE  H11Y18109   5.314   6.339   8.180  2.2842 -2.4648 -2.3225
  161SAPE  C31218110   5.410   6.469   8.314  0.8343  0.0505  0.5264
  161SAPE  H12X18111   5.315   6.504   8.360  1.7145  1.5825  1.2546
  161SAPE  H12Y18112   5.466   6.565   8.304 -0.9368  1.0639 -0.1918
  161SAPE  C31318113   5.486   6.373   8.404 -0.0610  0.4348  0.3999
  161SAPE  H13X18114   5.524   6.432   8.491  0.9534 -0.5793  0.6669
  161SAPE  H13Y18115   5.580   6.333   8.361  0.8484  0.9897  1.8067
  161SAPE  C31418116   5.402   6.250   8.439  0.0683 -0.4458 -0.2100
  161SAPE  H14X18117   5.395   6.195   8.343  2.6732 -0.3888 -0.5131
  161SAPE  H14Y18118   5.308   6.282   8.489  1.7954 -1.0818  3.7778
  161SAPE  C31518119   5.462   6.156   8.555  0.2574  0.3750  0.6657
  161SAPE  H15X18120   5.478   6.224   8.642  0.0730  0.0643  0.9429
  161SAPE  H15Y18121   5.552   6.113   8.505 -0.8936  2.0071 -3.2348
  161SAPE  C31618122   5.360   6.048   8.600 -0.1710 -0.3285  0.2554
  161SAPE  H16X18123   5.362   5.976   8.516  1.6736 -0.9462  0.7944
  161SAPE  H16Y18124   5.263   6.101   8.615  0.8593  1.6898  0.1684
  161SAPE  C31718125   5.396   5.980   8.738 -0.6574 -0.7711  0.4520
  161SAPE  H17X18126   5.401   6.053   8.821  2.4995  0.5973 -0.7632
  161SAPE  H17Y18127   5.494   5.931   8.717 -0.9690 -0.9302 -0.7330
  161SAPE  C31818128   5.289   5.872   8.758  0.3092 -0.9237 -0.2492
  161SAPE  H18X18129   5.285   5.803   8.671  2.1276  0.4815 -1.5322
  161SAPE  H18Y18130   5.186   5.912   8.770 -1.0242 -3.5302 -2.0142
  161SAPE  H18Z18131   5.325   5.807   8.841  3.7187  0.8466 -0.1393
  162SAPE     N18132   3.004   6.460   6.027  0.3792  0.5918  0.3986
  162SAPE   HN118133   2.973   6.451   5.928 -0.8701  1.9159  0.6412
  162SAPE   HN218134   2.931   6.400   6.070 -1.4587  2.5370  0.1389
  162SAPE   HN318135   2.986   6.558   6.055  3.1681  1.7694 -1.4603
  162SAPE   C1218136   3.148   6.426   6.060  0.0094 -0.2884  1.1077
  162SAPE  H12A18137   3.209   6.493   5.996 -0.1712 -0.0920  1.1393
  162SAPE  H12B18138   3.178   6.326   6.021 -1.1132  0.4718 -1.9937
  162SAPE   C1118139   3.186   6.460   6.210  0.6470  0.4067  0.9260
  162SAPE  H11A18140   3.119   6.393   6.268  1.9436 -0.4923  1.4509
  162SAPE  H11B18141   3.154   6.560   6.246  0.2179 -0.0719  1.9325
  162SAPE     P18142   3.360   6.284   6.296  0.2778  0.4754  0.6323
  162SAPE   O1318143   3.253   6.185   6.263  0.2712  0.2683  0.1380
  162SAPE   O1418144   3.504   6.249   6.265  0.0139  0.2514  0.0357
  162SAPE   O1218145   3.321   6.423   6.239  0.7033 -0.4480  0.1047
  162SAPE   O1118146   3.350   6.301   6.450  0.1983  0.0887 -0.0759
  162SAPE    C118147   3.349   6.435   6.504 -0.4905 -0.0847  0.1059
  162SAPE    HA18148   3.438   6.491   6.469 -0.2387  0.1193  1.0307
  162SAPE    HB18149   3.263   6.497   6.470 -0.3184  0.6344  0.9265
  162SAPE    C218150   3.356   6.447   6.658  0.0001 -0.4034  0.0193
  162SAPE    HS18151   3.394   6.550   6.679  0.5288  0.0851 -2.9274
  162SAPE   O2118152   3.434   6.354   6.732  0.1174  0.4433  0.1347
  162SAPE   C2118153   3.563   6.371   6.707  0.0270 -0.2339 -0.0117
  162SAPE   O2218154   3.607   6.448   6.622  0.3653  0.5333 -0.1109
  162SAPE   C2218155   3.653   6.279   6.796  0.4574 -0.4716 -0.2583
  162SAPE   H2R18156   3.601   6.203   6.858  2.3238 -1.4955  0.1348
  162SAPE   H2S18157   3.713   6.214   6.729  1.9535  0.2454  0.3429
  162SAPE    C318158   3.215   6.427   6.719 -0.1878 -0.4401  0.3193
  162SAPE    HX18159   3.185   6.320   6.711 -1.6409 -0.1848  1.7893
  162SAPE    HY18160   3.139   6.487   6.665 -0.5487 -0.8258  0.3960
  162SAPE   O3118161   3.214   6.470   6.857  0.0099  0.2058  0.0616
  162SAPE   C3118162   3.118   6.427   6.926 -0.5505  0.1917 -0.1401
  162SAPE   O3218163   3.021   6.372   6.876 -0.2053 -0.2019 -0.1183
  162SAPE   C3218164   3.143   6.449   7.068 -0.3921 -0.2404 -0.5386
  162SAPE   H2X18165   3.165   6.554   7.097 -1.5838 -0.3940  1.0965
  162SAPE   H2Y18166   3.233   6.387   7.093  1.5723  3.0723  1.2620
  162SAPE   C2318167   3.743   6.372   6.884  0.2027  0.4817 -0.5390
  162SAPE   H3R18168   3.821   6.425   6.826  0.0169  1.5692  0.1885
  162SAPE   H3S18169   3.793   6.289   6.938  0.1443  0.0705 -1.0964
  162SAPE   C2418170   3.676   6.472   6.979  0.7823 -0.4412 -0.3432
  162SAPE   H4R18171   3.635   6.550   6.911  2.5718  1.3816  0.5609
  162SAPE   H4S18172   3.749   6.530   7.039  0.7095  0.6361 -1.2744
  162SAPE   C2518173   3.565   6.414   7.061 -0.9896  0.5095 -0.9847
  162SAPE   H5R18174   3.470   6.407   7.007 -0.4725 -0.3660 -1.8077
  162SAPE   C2618175   3.572   6.364   7.188  0.0119  0.4648  0.0229
  162SAPE   H6R18176   3.485   6.312   7.232  0.4175 -0.2181  0.0279
  162SAPE   C2718177   3.691   6.357   7.279  0.3116 -0.1753  0.3229
  162SAPE   H7R18178   3.657   6.389   7.380  1.1892  0.9581  0.2844
  162SAPE   H7S18179   3.759   6.441   7.254  0.5956  0.2932  2.4610
  162SAPE   C2818180   3.766   6.226   7.279 -0.4346 -0.4877 -0.4337
  162SAPE   H8R18181   3.785   6.189   7.176 -0.3886 -0.7334 -0.3392
  162SAPE   C2918182   3.822   6.171   7.389  0.5678  0.5394  0.0226
  162SAPE   H9R18183   3.869   6.074   7.371  0.9884  1.1555 -2.6130
  162SAPE  C21018184   3.810   6.211   7.535 -0.1878  0.0329 -0.6124
  162SAPE  H10R18185   3.760   6.129   7.592 -1.5600  1.4063  0.2394
  162SAPE  H10S18186   3.746   6.301   7.544  1.4810  1.1462  0.9742
  162SAPE  C21118187   3.940   6.257   7.596  0.0730 -0.4444 -0.2617
  162SAPE  H11R18188   4.036   6.239   7.547  1.2056  1.5576  1.0839
  162SAPE  C21218189   3.955   6.319   7.716 -0.0514 -0.0259  0.2962
  162SAPE  H12R18190   4.059   6.336   7.747 -0.4413  0.0881  1.6111
  162SAPE  C21318191   3.835   6.347   7.805 -0.0921 -0.4728  0.5944
  162SAPE  H13R18192   3.744   6.295   7.767 -0.2977 -0.2712  0.8095
  162SAPE  H13S18193   3.803   6.452   7.784  0.8811  0.1379  2.0477
  162SAPE  C21418194   3.855   6.329   7.954 -1.0476 -0.3793  0.6282
  162SAPE  H14R18195   3.959   6.311   7.985 -1.3841 -0.5329  1.7053
  162SAPE  C21518196   3.755   6.328   8.045 -1.1113 -0.0316 -0.1011
  162SAPE  H15R18197   3.779   6.298   8.148 -1.9704 -0.7140 -0.0937
  162SAPE  C21618198   3.609   6.361   8.028  0.2551  0.7802 -0.0462
  162SAPE  H16R18199   3.582   6.406   7.930  1.1773 -1.4806 -1.4095
  162SAPE  H16S18200   3.588   6.432   8.110  2.0593 -3.1875  4.2955
  162SAPE  C21718201   3.512   6.245   8.069  0.7454  0.3262 -0.4946
  162SAPE  H17R18202   3.405   6.268   8.091  0.6377 -2.6434  3.0599
  162SAPE  H17S18203   3.547   6.202   8.165  0.8656  2.8446  0.6703
  162SAPE  C21818204   3.512   6.139   7.959 -0.8122 -0.5329 -0.4700
  162SAPE  H18R18205   3.616   6.100   7.958 -0.4157  0.4571  0.1806
  162SAPE  H18S18206   3.502   6.188   7.860  4.0911 -0.7517 -1.3129
  162SAPE  C21918207   3.410   6.025   7.974  0.7363 -0.6444  0.6207
  162SAPE  H19R18208   3.307   6.063   7.961  1.1022 -0.2571 -1.4735
  162SAPE  H19S18209   3.423   5.995   8.081 -0.3945  0.4943  1.1019
  162SAPE  C22018210   3.430   5.911   7.880 -0.1981 -0.5939  0.0818
  162SAPE  H20R18211   3.443   5.942   7.774  0.7379 -0.0353  0.3435
  162SAPE  H20S18212   3.352   5.834   7.892 -0.7372  0.0200  0.5648
  162SAPE  H20T18213   3.528   5.867   7.910 -0.1668  0.2116  1.2481
  162SAPE   C3318214   3.035   6.390   7.159 -1.2874  0.3135 -0.7055
  162SAPE   H3X18215   2.992   6.303   7.107 -0.6282  0.6125 -1.7755
  162SAPE   H3Y18216   2.952   6.465   7.166 -0.8394  0.7151  0.7147
  162SAPE   C3418217   3.080   6.342   7.299  0.3622 -0.9226 -0.4021
  162SAPE   H4X18218   3.150   6.256   7.303  0.9263 -0.4536  0.1324
  162SAPE   H4Y18219   2.998   6.288   7.351  0.7287 -1.0879  0.0198
  162SAPE   C3518220   3.143   6.449   7.401 -0.6969  0.6671 -0.3824
  162SAPE   H5X18221   3.064   6.527   7.415 -0.4858  1.0361 -1.2095
  162SAPE   H5Y18222   3.227   6.495   7.344 -0.1066  0.4418  0.2959
  162SAPE   C3618223   3.187   6.398   7.541 -0.1827 -0.2246 -0.2494
  162SAPE   H6X18224   3.285   6.348   7.528  0.1262  0.5666 -1.0917
  162SAPE   H6Y18225   3.116   6.323   7.582 -0.1645  0.5996  1.3316
  162SAPE   C3718226   3.187   6.512   7.649 -0.0830 -0.2291  0.2956
  162SAPE   H7X18227   3.083   6.549   7.657 -0.0119 -0.1112  0.6774
  162SAPE   H7Y18228   3.250   6.598   7.620 -0.0693  0.5579  2.4990
  162SAPE   C3818229   3.239   6.484   7.781  0.2550  0.7310  0.3916
  162SAPE   H8X18230   3.331   6.429   7.753  1.1524  2.8306 -1.0100
  162SAPE   H8Y18231   3.168   6.415   7.832 -1.6271  2.6632  0.5494
  162SAPE   C3918232   3.275   6.605   7.866 -0.1570 -0.9749  0.0186
  162SAPE   H9X18233   3.299   6.695   7.805 -0.7230  0.9288  2.4220
  162SAPE   H9Y18234   3.355   6.591   7.942  0.4248  0.0788 -0.3772
  162SAPE  C31018235   3.154   6.645   7.949  0.7331  0.0294 -0.5546
  162SAPE  H10X18236   3.104   6.553   7.985  1.0580  0.1716  0.2696
  162SAPE  H10Y18237   3.077   6.695   7.886  1.0743 -0.9824 -1.8150
  162SAPE  C31118238   3.186   6.750   8.064  0.0811  0.1650  0.4420
  162SAPE  H11X18239   3.226   6.833   8.002 -2.6337  1.2175 -0.0732
  162SAPE  H11Y18240   3.271   6.714   8.125  1.6906  1.2871 -1.0538
  162SAPE  C31218241   3.072   6.804   8.149 -0.1966  0.0104 -0.4767
  162SAPE  H12X18242   3.022   6.708   8.175 -0.3868 -0.0024 -0.8789
  162SAPE  H12Y18243   2.997   6.856   8.086  0.5914  0.7945 -0.7855
  162SAPE  C31318244   3.113   6.877   8.276  0.1382 -0.2848  0.1042
  162SAPE  H13X18245   3.027   6.908   8.340  0.3675 -0.4918  0.5158
  162SAPE  H13Y18246   3.156   6.971   8.235  2.9747 -0.9582  1.3298
  162SAPE  C31418247   3.217   6.807   8.367 -0.0249  0.2144 -0.5847
  162SAPE  H14X18248   3.312   6.814   8.309  0.2194 -0.3005 -0.2566
  162SAPE  H14Y18249   3.186   6.700   8.373 -1.1816  0.5414 -0.5244
  162SAPE  C31518250   3.244   6.875   8.503  0.5848  1.0050 -0.4083
  162SAPE  H15X18251   3.151   6.894   8.560  1.7090  3.6213  0.7169
  162SAPE  H15Y18252   3.293   6.972   8.480 -0.7865  1.9295  0.4119
  162SAPE  C31618253   3.345   6.793   8.587 -0.1645 -0.1371 -0.6243
  162SAPE  H16X18254   3.364   6.846   8.682 -1.9261  2.0591 -1.4139
  162SAPE  H16Y18255   3.437   6.788   8.524  1.0721  0.6085  1.0586
  162SAPE  C31718256   3.302   6.652   8.625 -0.1259 -0.2141 -0.1789
  162SAPE  H17X18257   3.275   6.601   8.530 -2.5923 -1.0647  0.9094
  162SAPE  H17Y18258   3.215   6.676   8.689 -0.3443 -2.1198  0.3045
  162SAPE  C31818259   3.406   6.570   8.694 -0.3569  0.5199  0.4215
  162SAPE  H18X18260   3.434   6.612   8.793 -0.2408  0.2617  0.5003
  162SAPE  H18Y18261   3.490   6.555   8.622 -0.0682 -0.1905  0.8889
  162SAPE  H18Z18262   3.365   6.467   8.707 -2.0553  1.1092 -0.0134
  163SAPE     N18263   0.364   0.314   6.517 -0.2585  0.9159 -0.2230
  163SAPE   HN118264   0.270   0.273   6.534  1.6536 -3.6525  0.8018
  163SAPE   HN218265   0.361   0.365   6.426  2.4146 -1.8486 -2.0458
  163SAPE   HN318266   0.429   0.237   6.495 -1.5967 -0.2584 -0.1928
  163SAPE   C1218267   0.411   0.399   6.634 -0.7136 -0.2360  0.8929
  163SAPE  H12A18268   0.431   0.333   6.720  3.9516 -0.5992 -0.2031
  163SAPE  H12B18269   0.333   0.476   6.655  0.4330  0.9068  1.0636
  163SAPE   C1118270   0.542   0.477   6.598 -0.2482  0.2493 -0.2054
  163SAPE  H11A18271   0.563   0.541   6.686  0.1342  3.1665 -2.2750
  163SAPE  H11B18272   0.514   0.547   6.517 -0.2758  1.1052  0.5329
  163SAPE     P18273   0.735   0.293   6.650  0.2868 -0.2887  0.2260
  163SAPE   O1318274   0.663   0.169   6.643 -0.6221 -0.0165 -0.2089
  163SAPE   O1418275   0.880   0.309   6.632  0.8056  0.3902 -0.0355
  163SAPE   O1218276   0.658   0.398   6.560 -0.0316 -0.4907 -0.6759
  163SAPE   O1118277   0.690   0.336   6.792 -0.6135  0.1672 -0.3425
  163SAPE    C118278   0.768   0.437   6.864  0.2609  0.5017  0.4670
  163SAPE    HA18279   0.861   0.388   6.899 -0.3364  0.3604  1.9301
  163SAPE    HB18280   0.792   0.517   6.791 -0.3107 -0.7572 -1.1703
  163SAPE    C218281   0.707   0.502   6.989  0.5481  0.1008 -0.0015
  163SAPE    HS18282   0.764   0.451   7.069 -2.0070 -2.4598  0.3472
  163SAPE   O2118283   0.561   0.476   7.007 -0.7174 -0.7104 -0.3891
  163SAPE   C2118284   0.543   0.355   7.070 -0.0985  0.1886  0.2824
  163SAPE   O2218285   0.630   0.302   7.138  0.0725  0.0588  0.1661
  163SAPE   C2218286   0.403   0.300   7.063 -1.1107  0.9346 -0.2006
  163SAPE   H2R18287   0.329   0.384   7.058 -1.9229  0.3098  0.9568
  163SAPE   H2S18288   0.383   0.259   6.962 -0.5186 -0.3427  0.1883
  163SAPE    C318289   0.730   0.649   6.995 -0.5278  0.0874 -0.2102
  163SAPE    HX18290   0.652   0.698   6.932  1.3451  2.4442 -0.8224
  163SAPE    HY18291   0.826   0.674   6.946 -0.7540 -0.8581 -1.1465
  163SAPE   O3118292   0.730   0.693   7.133 -0.5160  0.6596 -0.1164
  163SAPE   C3118293   0.622   0.752   7.175 -0.8116 -0.1356  0.0872
  163SAPE   O3218294   0.529   0.796   7.102 -0.7021  0.2533  0.3754
  163SAPE   C3218295   0.608   0.733   7.326 -0.2345  0.4777 -0.0562
  163SAPE   H2X18296   0.713   0.748   7.357 -0.1230  1.0828 -0.6785
  163SAPE   H2Y18297   0.557   0.635   7.333 -0.0324  0.1212 -2.4902
  163SAPE   C2318298   0.368   0.210   7.180 -0.4741  1.0644  0.3035
  163SAPE   H3R18299   0.404   0.256   7.275  0.7540  0.6240  0.0686
  163SAPE   H3S18300   0.440   0.126   7.167  0.4515  1.8158  0.4135
  163SAPE   C2418301   0.225   0.169   7.186  0.4180  0.3087  0.0585
  163SAPE   H4R18302   0.206   0.096   7.104 -2.1336  0.5144  0.3726
  163SAPE   H4S18303   0.160   0.258   7.169  0.1889  0.2396  0.5645
  163SAPE   C2518304   0.203   0.099   7.320 -0.3560 -0.3203 -0.4214
  163SAPE   H5R18305   0.288   0.093   7.389 -0.5297  1.2182 -0.0469
  163SAPE   C2618306   0.087   0.049   7.367  0.2381  0.3837 -0.5507
  163SAPE   H6R18307   0.084   0.012   7.470 -2.6446  3.7506  0.7583
  163SAPE   C2718308  -0.044   0.067   7.300 -0.0967 -0.0930 -0.0692
  163SAPE   H7R18309  -0.076  -0.033   7.265  0.7973 -0.2001 -0.6064
  163SAPE   H7S18310  -0.032   0.136   7.214 -0.0437  1.2394  0.9679
  163SAPE   C2818311  -0.157   0.117   7.388  0.2112  0.0289 -0.0094
  163SAPE   H8R18312  -0.212   0.210   7.368 -0.7293 -0.6417 -0.6680
  163SAPE   C2918313  -0.197   0.061   7.505 -0.7779 -0.3001 -0.1506
  163SAPE   H9R18314  -0.286   0.106   7.552 -0.0958 -0.7611  1.7054
  163SAPE  C21018315  -0.143  -0.071   7.570 -0.0078 -0.2262 -0.1517
  163SAPE  H10R18316  -0.059  -0.036   7.634 -0.8809 -0.4234  1.1458
  163SAPE  H10S18317  -0.120  -0.147   7.492 -1.3409 -0.7544 -0.0603
  163SAPE  C21118318  -0.242  -0.145   7.662 -0.1636  0.0999  0.6989
  163SAPE  H11R18319  -0.288  -0.225   7.602 -0.2952  2.2829 -2.3754
  163SAPE  C21218320  -0.273  -0.121   7.794 -0.2480 -0.0971  0.3403
  163SAPE  H12R18321  -0.357  -0.169   7.847 -0.2867  0.6293  0.9438
  163SAPE  C21318322  -0.218  -0.017   7.884 -0.6681 -0.3745 -0.1707
  163SAPE  H13R18323  -0.296   0.040   7.939 -1.6976  1.1019 -2.9731
  163SAPE  H13S18324  -0.168   0.067   7.831 -0.8340 -1.2568 -1.7789
  163SAPE  C21418325  -0.134  -0.082   7.993  0.0837 -0.1010  0.0283
  163SAPE  H14R18326  -0.183  -0.152   8.063  0.9650 -0.1317  0.6363
  163SAPE  C21518327  -0.001  -0.065   8.003  0.1436  0.4191 -0.2438
  163SAPE  H15R18328   0.065  -0.115   8.075 -0.7643 -0.3922  0.0506
  163SAPE  C21618329   0.083   0.027   7.918 -0.1871 -0.0313 -0.4365
  163SAPE  H16R18330   0.056   0.135   7.930 -0.1465  0.3117 -2.8380
  163SAPE  H16S18331   0.071  -0.003   7.812 -1.3939 -2.1102  0.2311
  163SAPE  C21718332   0.238   0.005   7.939  0.3534  0.3946 -0.0946
  163SAPE  H17R18333   0.262  -0.100   7.914  2.3656  0.3898  1.5960
  163SAPE  H17S18334   0.255   0.018   8.048  0.5253  1.8677 -0.2797
  163SAPE  C21818335   0.321   0.112   7.863  0.1344 -0.1399 -0.1806
  163SAPE  H18R18336   0.398   0.157   7.930 -0.5481  0.9218 -0.0923
  163SAPE  H18S18337   0.257   0.192   7.823 -0.6695 -0.5962  0.1766
  163SAPE  C21918338   0.390   0.063   7.737  0.0459 -0.5699  0.3700
  163SAPE  H19R18339   0.325   0.021   7.656  0.2330 -0.3309  0.0965
  163SAPE  H19S18340   0.444  -0.026   7.775  1.9643  0.7345  0.8121
  163SAPE  C22018341   0.500   0.152   7.669  0.1607 -0.6276 -0.0736
  163SAPE  H20R18342   0.544   0.221   7.743 -0.6023 -0.4886  0.2592
  163SAPE  H20S18343   0.448   0.212   7.591 -1.3502 -1.4546  0.2422
  163SAPE  H20T18344   0.586   0.098   7.624 -0.3002 -1.1791 -0.3083
  163SAPE   C3318345   0.522   0.844   7.381 -0.0786 -0.3985  0.1846
  163SAPE   H3X18346   0.416   0.837   7.347 -0.0690  0.9362 -0.1761
  163SAPE   H3Y18347   0.559   0.940   7.338  2.8539 -0.6035  1.9791
  163SAPE   C3418348   0.528   0.859   7.535 -0.6647  0.4068 -0.2278
  163SAPE   H4X18349   0.630   0.899   7.550 -0.0256 -1.6830  1.4511
  163SAPE   H4Y18350   0.521   0.756   7.575 -1.5488 -1.1248 -3.9318
  163SAPE   C3518351   0.426   0.963   7.584  0.1063  0.5907 -0.8364
  163SAPE   H5X18352   0.332   0.932   7.532 -0.5313 -0.5886  0.9055
  163SAPE   H5Y18353   0.458   1.065   7.555  2.5457 -0.0878 -0.7594
  163SAPE   C3618354   0.412   0.972   7.737 -0.1610 -0.0205 -0.6323
  163SAPE   H6X18355   0.347   1.058   7.766  0.8874  0.9598 -1.1169
  163SAPE   H6Y18356   0.514   0.990   7.775 -0.0012 -0.3820 -0.8862
  163SAPE   C3718357   0.359   0.840   7.796  0.1930 -0.1557  0.0170
  163SAPE   H7X18358   0.444   0.773   7.824 -0.2007 -0.5398  0.3192
  163SAPE   H7Y18359   0.295   0.787   7.723 -3.4602  1.6625  1.6724
  163SAPE   C3818360   0.282   0.860   7.931  1.6707  1.2040 -0.6489
  163SAPE   H8X18361   0.245   0.965   7.935 -0.0192  0.6056  0.0518
  163SAPE   H8Y18362   0.338   0.839   8.024 -1.0009 -1.1086  0.5688
  163SAPE   C3918363   0.165   0.765   7.940 -0.2803 -0.0997 -0.6889
  163SAPE   H9X18364   0.087   0.775   7.862 -0.2942  0.7218 -0.5742
  163SAPE   H9Y18365   0.101   0.791   8.027  2.7970  2.8471  0.9352
  163SAPE  C31018366   0.189   0.615   7.967 -0.2151  1.1642  0.3453
  163SAPE  H10X18367   0.227   0.567   7.874 -1.6681 -0.1714  0.3980
  163SAPE  H10Y18368   0.089   0.568   7.969  0.2427  0.0747 -0.8376
  163SAPE  C31118369   0.279   0.564   8.083 -0.5295 -0.0080 -1.2372
  163SAPE  H11X18370   0.277   0.640   8.165 -0.1639 -0.2868 -0.9727
  163SAPE  H11Y18371   0.386   0.561   8.056  0.0098 -0.6791  0.7732
  163SAPE  C31218372   0.235   0.432   8.149  0.0763  0.1562  0.2159
  163SAPE  H12X18373   0.314   0.417   8.226  0.3870  1.4398  0.1701
  163SAPE  H12Y18374   0.240   0.346   8.079 -1.3029  1.0836 -1.0772
  163SAPE  C31318375   0.101   0.428   8.221  0.2733 -0.3702 -0.1146
  163SAPE  H13X18376   0.026   0.457   8.144 -0.5858 -0.1463  0.7859
  163SAPE  H13Y18377   0.096   0.500   8.305 -1.9578 -1.5198  0.8017
  163SAPE  C31418378   0.064   0.282   8.257 -0.6330 -0.7138 -0.4934
  163SAPE  H14X18379   0.078   0.223   8.164  0.2543 -2.1195  0.5054
  163SAPE  H14Y18380  -0.045   0.279   8.279 -0.7544 -1.3860 -1.1380
  163SAPE  C31518381   0.140   0.236   8.381 -1.0588 -0.4457 -0.1294
  163SAPE  H15X18382   0.231   0.187   8.341 -1.5514 -1.0550 -0.5178
  163SAPE  H15Y18383   0.075   0.161   8.431 -1.2236  0.3699  0.9113
  163SAPE  C31618384   0.179   0.335   8.493  0.1216 -0.3466 -0.0481
  163SAPE  H16X18385   0.083   0.376   8.532  0.0543 -1.7374  1.3536
  163SAPE  H16Y18386   0.247   0.411   8.450 -2.4094  1.5839 -0.8821
  163SAPE  C31718387   0.246   0.264   8.610  0.2970  0.5462 -0.5487
  163SAPE  H17X18388   0.283   0.340   8.682  1.8196  0.4103 -1.1477
  163SAPE  H17Y18389   0.328   0.203   8.567  1.1919  1.8246 -0.7096
  163SAPE  C31818390   0.160   0.157   8.682  0.2585 -0.3615  0.2086
  163SAPE  H18X18391   0.091   0.198   8.758 -1.6315 -1.6040 -0.7722
  163SAPE  H18Y18392   0.237   0.090   8.725  1.1303 -0.5644 -1.5606
  163SAPE  H18Z18393   0.102   0.096   8.610  0.3989 -0.3039  0.0447
  164SAPE     N18394   5.697   5.795   6.068 -0.0739  0.4038 -0.3633
  164SAPE   HN118395   5.663   5.893   6.077  3.9784  1.9522  0.3129
  164SAPE   HN218396   5.739   5.787   5.973 -0.4744 -0.5671 -0.4733
  164SAPE   HN318397   5.625   5.720   6.067  0.8501 -0.5908  1.6981
  164SAPE   C1218398   5.807   5.768   6.175 -0.2822  0.2579  0.0428
  164SAPE  H12A18399   5.869   5.681   6.143  3.2178  1.5757  2.6339
  164SAPE  H12B18400   5.769   5.765   6.279  0.4251 -1.8986  0.2937
  164SAPE   C1118401   5.909   5.877   6.159 -0.9958  0.6581  0.0228
  164SAPE  H11A18402   5.932   5.886   6.051 -0.3395 -1.4587 -0.0676
  164SAPE  H11B18403   6.008   5.856   6.206 -0.9154  2.7300  0.8796
  164SAPE     P18404   5.933   6.129   6.184  0.1891  0.4877  0.1392
  164SAPE   O1318405   5.975   6.125   6.037  1.0298 -0.0899 -0.4740
  164SAPE   O1418406   5.851   6.243   6.226 -0.5444 -0.2600 -0.2852
  164SAPE   O1218407   5.866   5.990   6.226  1.0504 -0.0429  0.2812
  164SAPE   O1118408   6.067   6.131   6.270 -0.1201 -0.1372  0.0365
  164SAPE    C118409   6.053   6.168   6.406 -0.9809 -0.6255 -0.4595
  164SAPE    HA18410   6.151   6.210   6.438 -1.6402  1.8450 -1.4303
  164SAPE    HB18411   5.975   6.244   6.426 -0.1219  0.1236  0.1302
  164SAPE    C218412   6.029   6.057   6.514  0.8866 -0.0679 -0.0684
  164SAPE    HS18413   5.928   6.014   6.497  1.4851 -1.7496  0.4229
  164SAPE   O2118414   6.046   6.108   6.648 -0.0910  0.5582  0.1090
  164SAPE   C2118415   5.952   6.186   6.690  0.3040 -0.5529 -0.6196
  164SAPE   O2218416   5.845   6.198   6.626 -0.6486  0.0598 -0.0239
  164SAPE   C2218417   5.982   6.242   6.825 -0.3028 -0.7412  0.2980
  164SAPE   H2R18418   6.010   6.155   6.888  3.4943 -1.2683 -1.8454
  164SAPE   H2S18419   6.055   6.325   6.821 -3.5350  2.3264  0.2694
  164SAPE    C318420   6.116   5.926   6.494 -0.1293 -0.1798 -0.2435
  164SAPE    HX18421   6.221   5.959   6.514 -0.1364  0.9657 -1.8647
  164SAPE    HY18422   6.110   5.882   6.392 -1.2023 -0.6081 -0.0050
  164SAPE   O3118423   6.068   5.828   6.585 -0.9943 -0.3279 -0.1196
  164SAPE   C3118424   6.134   5.788   6.693 -0.6878  0.3238 -0.0984
  164SAPE   O3218425   6.249   5.826   6.723 -0.0065  0.2048  0.1132
  164SAPE   C3218426   6.055   5.674   6.768 -0.0065 -0.4032 -0.6015
  164SAPE   H2X18427   6.097   5.577   6.734  2.0308  1.8730 -5.6182
  164SAPE   H2Y18428   5.948   5.684   6.739 -0.2367  0.1079  0.3871
  164SAPE   C2318429   5.850   6.308   6.884  0.4500  0.2002  0.0001
  164SAPE   H3R18430   5.773   6.327   6.806  0.7854 -2.3626 -1.0300
  164SAPE   H3S18431   5.881   6.408   6.921  0.6202  0.1359  0.0329
  164SAPE   C2418432   5.792   6.228   7.003 -0.0885  0.4174  0.0442
  164SAPE   H4R18433   5.697   6.274   7.038  0.0142  0.8943 -0.3070
  164SAPE   H4S18434   5.871   6.233   7.082  0.2669  0.2538 -0.2939
  164SAPE   C2518435   5.755   6.084   6.969 -0.1896  0.3115 -0.4117
  164SAPE   H5R18436   5.742   6.080   6.860 -0.4019  0.6884 -0.4001
  164SAPE   C2618437   5.742   5.977   7.051  0.7991  0.1736  0.4423
  164SAPE   H6R18438   5.719   5.881   7.004 -1.9598  0.8524  0.2471
  164SAPE   C2718439   5.765   5.973   7.201  0.2107  0.6727  0.4481
  164SAPE   H7R18440   5.668   5.961   7.252 -1.0639  0.3473 -1.8911
  164SAPE   H7S18441   5.813   6.071   7.226  2.1474 -0.5074  1.6353
  164SAPE   C2818442   5.851   5.856   7.249  0.0817  0.2014 -0.4622
  164SAPE   H8R18443   5.867   5.767   7.186 -1.2328 -2.2174  2.3310
  164SAPE   C2918444   5.900   5.846   7.373  0.2434  0.5781  0.2603
  164SAPE   H9R18445   5.962   5.761   7.408 -1.2912  1.1701  5.1853
  164SAPE  C21018446   5.880   5.952   7.487 -0.4237  0.5417 -0.1124
  164SAPE  H10R18447   5.873   5.893   7.580 -1.4475 -1.3318 -1.3057
  164SAPE  H10S18448   5.777   5.993   7.475 -0.4453  0.0485 -2.0692
  164SAPE  C21118449   5.977   6.064   7.492 -0.1061 -0.8213 -0.2579
  164SAPE  H11R18450   5.940   6.152   7.438  1.3035  0.5926  0.9879
  164SAPE  C21218451   6.090   6.071   7.570 -0.0318  0.3584  0.0504
  164SAPE  H12R18452   6.143   6.166   7.584  0.9610  0.2356 -2.3411
  164SAPE  C21318453   6.128   5.958   7.658  0.2430  0.0353 -0.0423
  164SAPE  H13R18454   6.234   5.932   7.634  0.6899  2.1091 -0.4699
  164SAPE  H13S18455   6.076   5.862   7.639 -2.0007  1.2988 -0.5417
  164SAPE  C21418456   6.105   5.998   7.802  0.4596  0.2350  0.9981
  164SAPE  H14R18457   6.012   6.055   7.819  0.8714  0.3071  3.4642
  164SAPE  C21518458   6.179   5.976   7.908 -1.0955  0.0153  0.7177
  164SAPE  H15R18459   6.141   6.014   8.004  2.5354 -0.7170  2.6497
  164SAPE  C21618460   6.311   5.902   7.931 -0.0028 -0.1218  0.1965
  164SAPE  H16R18461   6.371   5.980   7.983  0.5336 -1.7033  2.0707
  164SAPE  H16S18462   6.354   5.873   7.833 -0.8802  2.9316 -1.2286
  164SAPE  C21718463   6.289   5.775   8.029 -0.4494 -0.0787 -0.0936
  164SAPE  H17R18464   6.368   5.699   8.017  0.3691  0.8653 -0.9008
  164SAPE  H17S18465   6.192   5.729   8.002 -1.0428  0.0657  1.6724
  164SAPE  C21818466   6.303   5.806   8.177  0.3204 -0.3444 -0.0210
  164SAPE  H18R18467   6.226   5.881   8.202  0.0442 -1.4421  2.7450
  164SAPE  H18S18468   6.399   5.857   8.201  0.8772 -1.1650 -0.4347
  164SAPE  C21918469   6.279   5.673   8.260 -0.2068  0.2916  1.1770
  164SAPE  H19R18470   6.359   5.606   8.222 -1.1112  0.4808 -1.2897
  164SAPE  H19S18471   6.182   5.629   8.228  0.3972 -3.1757  3.5580
  164SAPE  C22018472   6.292   5.704   8.407 -0.1383  0.5238 -0.0285
  164SAPE  H20R18473   6.227   5.790   8.433  1.8818  3.0403 -2.7471
  164SAPE  H20S18474   6.393   5.737   8.438 -0.7543  0.3265  2.4661
  164SAPE  H20T18475   6.262   5.615   8.467 -1.5647 -0.3771 -1.9526
  164SAPE   C3318476   6.068   5.697   6.926  0.7900  0.2215  0.4310
  164SAPE   H3X18477   6.004   5.784   6.954 -1.4536 -0.6403 -1.6620
  164SAPE   H3Y18478   6.171   5.717   6.964  1.2017 -0.2009 -0.4491
  164SAPE   C3418479   5.991   5.585   6.993  0.2130 -0.1916 -0.4230
  164SAPE   H4X18480   5.899   5.574   6.932  0.3336  1.2663 -0.9109
  164SAPE   H4Y18481   5.967   5.597   7.101 -0.9385 -0.9918 -0.5719
  164SAPE   C3518482   6.067   5.452   6.997 -0.8742  0.1173 -0.1385
  164SAPE   H5X18483   6.146   5.446   6.918  0.9403  0.2077  1.5899
  164SAPE   H5Y18484   5.991   5.371   6.994 -2.1611  1.2326  1.0990
  164SAPE   C3618485   6.153   5.431   7.122 -0.5200  0.2466 -0.9344
  164SAPE   H6X18486   6.086   5.427   7.210  0.7274 -0.5500 -0.0058
  164SAPE   H6Y18487   6.217   5.520   7.141  0.1198 -0.2987 -0.5331
  164SAPE   C3718488   6.234   5.296   7.110 -0.3176 -0.5777  0.2820
  164SAPE   H7X18489   6.280   5.288   7.009 -0.0909 -1.2555  0.4396
  164SAPE   H7Y18490   6.155   5.219   7.113  0.9096 -1.8390  2.0977
  164SAPE   C3818491   6.330   5.279   7.227  0.3730  0.3113 -0.2037
  164SAPE   H8X18492   6.286   5.290   7.328  0.2653 -1.6374 -0.0004
  164SAPE   H8Y18493   6.409   5.356   7.223  2.3033 -1.6115 -1.4688
  164SAPE   C3918494   6.408   5.146   7.221 -0.4780 -0.4573 -0.4658
  164SAPE   H9X18495   6.492   5.175   7.154 -1.2250  4.5968  0.4038
  164SAPE   H9Y18496   6.361   5.058   7.173  0.5914  0.0055 -2.4717
  164SAPE  C31018497   6.470   5.104   7.359 -0.3105 -0.6887 -0.0808
  164SAPE  H10X18498   6.530   5.188   7.401 -1.4611  0.1680 -0.1170
  164SAPE  H10Y18499   6.541   5.019   7.352 -1.4727 -1.6086 -0.9800
  164SAPE  C31118500   6.362   5.059   7.456 -0.2435  0.1841  0.0628
  164SAPE  H11X18501   6.295   5.005   7.387  1.7858 -0.2679 -1.6665
  164SAPE  H11Y18502   6.320   5.153   7.499  1.4400  0.7273  0.6140
  164SAPE  C31218503   6.399   4.968   7.574  0.1700 -0.2958 -0.3595
  164SAPE  H12X18504   6.437   4.874   7.529 -0.6490 -0.8078  0.0016
  164SAPE  H12Y18505   6.313   4.956   7.643  0.2150  0.9116 -0.0637
  164SAPE  C31318506   6.506   5.048   7.659 -0.6503 -0.3051  0.1170
  164SAPE  H13X18507   6.457   5.133   7.711 -1.3830  0.0119 -1.0695
  164SAPE  H13Y18508   6.594   5.063   7.593 -0.2743 -2.6580 -0.0180
  164SAPE  C31418509   6.569   4.959   7.769 -0.0930 -0.4447 -0.1758
  164SAPE  H14X18510   6.643   5.018   7.827 -0.1005 -0.6979  0.0953
  164SAPE  H14Y18511   6.629   4.872   7.732  1.2740  0.0564  0.7997
  164SAPE  C31518512   6.476   4.916   7.880 -0.1308 -0.3144 -0.0928
  164SAPE  H15X18513   6.401   4.848   7.834 -0.0792  0.0797 -0.7819
  164SAPE  H15Y18514   6.426   5.004   7.926 -0.7469 -0.8972  0.3762
  164SAPE  C31618515   6.530   4.825   7.993  0.5392 -0.4030  0.3848
  164SAPE  H16X18516   6.623   4.870   8.037  1.7499 -1.7548 -0.7061
  164SAPE  H16Y18517   6.557   4.733   7.938 -2.7430 -0.7826 -0.8111
  164SAPE  C31718518   6.431   4.796   8.104  0.0972  0.2007  0.0781
  164SAPE  H17X18519   6.348   4.731   8.070  0.8571 -0.5306 -0.3954
  164SAPE  H17Y18520   6.381   4.888   8.142 -0.2443 -0.5820  1.5981
  164SAPE  C31818521   6.500   4.732   8.229 -0.1200  0.9478  0.0705
  164SAPE  H18X18522   6.436   4.727   8.319  1.4688 -0.3472  1.2014
  164SAPE  H18Y18523   6.588   4.794   8.256  2.3790 -1.9355 -0.8217
  164SAPE  H18Z18524   6.539   4.630   8.205  0.9578  1.4500 -0.3611
  165SAPE     N18525   2.872   0.401   6.300 -0.2357  0.5380 -0.1977
  165SAPE   HN118526   2.930   0.419   6.216  0.3018  0.1959  0.0962
  165SAPE   HN218527   2.787   0.456   6.274 -2.0788 -1.2176  1.6997
  165SAPE   HN318528   2.914   0.446   6.383 -1.6796  0.0432  0.8372
  165SAPE   C1218529   2.819   0.268   6.319  0.1053  0.0932 -0.1160
  165SAPE  H12A18530   2.725   0.280   6.377  0.4507  1.8273  0.1459
  165SAPE  H12B18531   2.898   0.219   6.380  1.3392  1.2835 -0.6993
  165SAPE   C1118532   2.799   0.179   6.191 -0.1366  0.8896 -0.2806
  165SAPE  H11A18533   2.707   0.214   6.140 -0.6635  1.0642  0.7498
  165SAPE  H11B18534   2.772   0.076   6.222  2.6435 -0.0663 -0.7506
  165SAPE     P18535   3.022   0.071   6.110  0.1708  0.1949 -0.6344
  165SAPE   O1318536   2.947  -0.059   6.097 -0.2484 -0.6982 -0.3046
  165SAPE   O1418537   3.123   0.102   6.012 -0.0589  0.2704  0.4884
  165SAPE   O1218538   2.910   0.180   6.096 -0.0836  0.4783 -0.7139
  165SAPE   O1118539   3.075   0.077   6.261 -0.2362 -0.0368  0.2002
  165SAPE    C118540   3.172   0.172   6.299 -0.3283 -0.9444 -0.0351
  165SAPE    HA18541   3.223   0.208   6.207 -1.0469  0.7415  0.1906
  165SAPE    HB18542   3.124   0.261   6.345 -0.1454 -1.5069  1.2912
  165SAPE    C218543   3.263   0.116   6.410 -1.3458 -0.8212  0.7226
  165SAPE    HS18544   3.286   0.009   6.390  0.9947 -0.0592 -1.1004
  165SAPE   O2118545   3.201   0.141   6.539 -0.4980  0.0444  0.2557
  165SAPE   C2118546   3.118   0.042   6.575 -0.1147  0.6198 -1.3522
  165SAPE   O2218547   3.099  -0.064   6.517 -0.3525  0.5296  0.1324
  165SAPE   C2218548   3.072   0.058   6.715 -0.5423 -0.6942  0.6529
  165SAPE   H2R18549   3.008  -0.028   6.743  0.6387 -1.8442  0.0003
  165SAPE   H2S18550   3.163   0.076   6.776  0.6057 -0.4192 -1.0369
  165SAPE    C318551   3.400   0.188   6.401  0.4371  0.7468  0.7542
  165SAPE    HX18552   3.379   0.296   6.389  1.8023  0.9751  0.1970
  165SAPE    HY18553   3.458   0.166   6.309 -2.0414  1.7961 -1.1629
  165SAPE   O3118554   3.479   0.174   6.521 -0.2320  0.0634 -0.4485
  165SAPE   C3118555   3.532   0.055   6.528  0.4935  0.6200  0.0957
  165SAPE   O3218556   3.516  -0.036   6.438 -0.1163 -0.5362 -0.0775
  165SAPE   C3218557   3.607   0.038   6.663  0.1875  0.4183 -0.3198
  165SAPE   H2X18558   3.671   0.128   6.678 -0.4379  0.8938 -0.4773
  165SAPE   H2Y18559   3.664  -0.057   6.657 -2.1221 -1.0412 -0.1637
  165SAPE   C2318560   2.978   0.178   6.719 -0.0013 -0.6017 -0.4864
  165SAPE   H3R18561   2.877   0.159   6.679 -0.5020 -0.0384  0.4659
  165SAPE   H3S18562   3.026   0.264   6.668 -0.4972  1.2819  2.0355
  165SAPE   C2418563   2.964   0.230   6.863  0.7370 -0.5030 -0.0938
  165SAPE   H4R18564   2.926   0.151   6.931  2.9493 -0.6656  1.0665
  165SAPE   H4S18565   2.885   0.306   6.845 -0.4343 -1.2521  1.6288
  165SAPE   C2518566   3.081   0.303   6.915 -0.8512  0.5190  0.0043
  165SAPE   H5R18567   3.147   0.348   6.840 -0.0392 -0.6031  0.0132
  165SAPE   C2618568   3.128   0.311   7.039  0.6565  0.6343 -0.7294
  165SAPE   H6R18569   3.216   0.378   7.037 -1.3693  3.4496 -1.2096
  165SAPE   C2718570   3.077   0.254   7.172  0.3686 -0.9676  0.2167
  165SAPE   H7R18571   2.967   0.273   7.174  0.6701  1.0264  0.4314
  165SAPE   H7S18572   3.112   0.322   7.252 -1.2570 -0.4113  0.5041
  165SAPE   C2818573   3.093   0.115   7.211  0.5571 -0.2560 -0.3589
  165SAPE   H8R18574   3.087   0.034   7.137 -0.6227 -1.2874  0.8210
  165SAPE   C2918575   3.104   0.069   7.339 -0.9915 -0.5581 -0.2133
  165SAPE   H9R18576   3.129  -0.038   7.341  1.6470  0.0014 -0.2145
  165SAPE  C21018577   3.104   0.167   7.457 -0.0508  0.8036 -1.1012
  165SAPE  H10R18578   3.021   0.241   7.445 -0.0127  0.6853 -2.1608
  165SAPE  H10S18579   3.206   0.211   7.456 -0.0023  0.6827 -1.8049
  165SAPE  C21118580   3.086   0.099   7.593  0.7829 -0.4091 -0.3382
  165SAPE  H11R18581   3.150   0.012   7.615 -2.1220 -2.2150  1.7309
  165SAPE  C21218582   2.996   0.135   7.690 -0.2579  0.5202  0.3834
  165SAPE  H12R18583   3.008   0.087   7.788 -1.0544 -0.1723  0.1548
  165SAPE  C21318584   2.909   0.259   7.692 -0.5427 -0.2292 -0.5584
  165SAPE  H13R18585   2.873   0.287   7.591 -3.3880  3.0132  1.1417
  165SAPE  H13S18586   2.957   0.350   7.734  0.5217 -1.6211  1.3980
  165SAPE  C21418587   2.784   0.214   7.773  0.2662 -0.3862  0.0991
  165SAPE  H14R18588   2.749   0.116   7.737 -0.4038 -0.5393  1.1288
  165SAPE  C21518589   2.705   0.285   7.854  0.7592 -0.3718  0.9525
  165SAPE  H15R18590   2.625   0.231   7.906  0.1669 -0.9199 -0.4838
  165SAPE  C21618591   2.729   0.431   7.900  0.1349  1.3072  0.4308
  165SAPE  H16R18592   2.636   0.492   7.897  0.5780  1.9712  0.1632
  165SAPE  H16S18593   2.798   0.488   7.834 -0.2553  2.5275  1.0535
  165SAPE  C21718594   2.774   0.435   8.042  0.1277  0.2216 -0.0769
  165SAPE  H17R18595   2.712   0.376   8.114 -1.4318 -0.2758 -1.7401
  165SAPE  H17S18596   2.756   0.541   8.070 -0.6210  0.4054 -1.1834
  165SAPE  C21818597   2.932   0.408   8.048  0.3750 -0.6620  0.9512
  165SAPE  H18R18598   2.977   0.447   7.954 -2.6933  0.1870 -0.3258
  165SAPE  H18S18599   2.952   0.300   8.062 -0.6991 -0.9983  0.1208
  165SAPE  C21918600   2.998   0.481   8.166  0.3759  0.4358  0.7189
  165SAPE  H19R18601   2.994   0.591   8.152 -1.0402  0.1515 -1.5642
  165SAPE  H19S18602   3.107   0.456   8.164  0.3529  0.3416  0.6109
  165SAPE  C22018603   2.940   0.440   8.303 -0.0075 -0.7652  0.3041
  165SAPE  H20R18604   2.853   0.504   8.328 -0.3787 -0.4991 -1.5727
  165SAPE  H20S18605   3.022   0.466   8.373  2.0093 -1.4911 -1.6893
  165SAPE  H20T18606   2.906   0.334   8.308 -2.9420  0.1043  0.5587
  165SAPE   C3318607   3.497   0.035   6.778  0.0526  0.8100 -0.1021
  165SAPE   H3X18608   3.428  -0.052   6.781 -1.4359  1.9601  1.9782
  165SAPE   H3Y18609   3.426   0.117   6.752 -1.1250 -0.3172 -0.5964
  165SAPE   C3418610   3.570   0.046   6.907 -0.6444 -0.4387  0.1505
  165SAPE   H4X18611   3.618   0.146   6.914 -0.2345 -0.6689  0.6608
  165SAPE   H4Y18612   3.653  -0.025   6.930 -0.4519 -0.1035  0.5013
  165SAPE   C3518613   3.473   0.028   7.036  0.0193  0.9931  0.0449
  165SAPE   H5X18614   3.438  -0.076   7.016  3.3453 -0.5727  1.6530
  165SAPE   H5Y18615   3.400   0.112   7.043 -0.0968  0.9758 -0.8173
  165SAPE   C3618616   3.547   0.030   7.169 -0.0602 -0.2265  0.2475
  165SAPE   H6X18617   3.612   0.120   7.169  1.8690 -1.5043  2.0562
  165SAPE   H6Y18618   3.607  -0.064   7.176  1.5624  0.7298 -0.1252
  165SAPE   C3718619   3.453   0.038   7.297  0.5386 -0.4849 -0.4212
  165SAPE   H7X18620   3.377  -0.042   7.282  1.1525 -1.1755  0.0296
  165SAPE   H7Y18621   3.411   0.140   7.291  2.7798  0.4603 -1.0518
  165SAPE   C3818622   3.523   0.026   7.434  0.2989 -0.4462 -0.3013
  165SAPE   H8X18623   3.455   0.078   7.505 -0.2661 -0.7145 -0.6456
  165SAPE   H8Y18624   3.618   0.082   7.443  0.2223 -0.3448 -0.1203
  165SAPE   C3918625   3.527  -0.119   7.501  0.7679 -0.5789 -0.1510
  165SAPE   H9X18626   3.600  -0.184   7.449  1.3750 -2.0933  2.4255
  165SAPE   H9Y18627   3.428  -0.169   7.497  0.6518 -0.3029 -1.2787
  165SAPE  C31018628   3.551  -0.112   7.656 -0.4393  0.2906 -0.2088
  165SAPE  H10X18629   3.548  -0.216   7.694 -0.7523  1.5259  3.5022
  165SAPE  H10Y18630   3.456  -0.066   7.692 -1.2212 -0.8089 -0.8016
  165SAPE  C31118631   3.683  -0.049   7.706 -0.0176 -1.0132 -0.0923
  165SAPE  H11X18632   3.728   0.017   7.629 -1.7121  1.4852  0.9475
  165SAPE  H11Y18633   3.753  -0.127   7.740  1.6823  0.5138  0.0408
  165SAPE  C31218634   3.666   0.036   7.828 -0.1036 -0.8431  0.3189
  165SAPE  H12X18635   3.580   0.106   7.819 -0.8809 -1.6999  0.9829
  165SAPE  H12Y18636   3.754   0.104   7.834 -1.6135  1.1904  0.8792
  165SAPE  C31318637   3.656  -0.052   7.952  1.0782  0.4752  0.0660
  165SAPE  H13X18638   3.741  -0.123   7.959  1.1305  0.6980  2.2707
  165SAPE  H13Y18639   3.567  -0.117   7.959  2.0335 -0.8403  0.3724
  165SAPE  C31418640   3.658   0.032   8.086  0.0556  0.0577  0.1028
  165SAPE  H14X18641   3.580   0.109   8.065  0.7453  0.8515  0.3973
  165SAPE  H14Y18642   3.755   0.085   8.088  0.0991  0.1777 -2.3704
  165SAPE  C31518643   3.635  -0.052   8.208  0.2009 -0.3092 -0.6294
  165SAPE  H15X18644   3.672  -0.156   8.197 -0.3499 -0.8386  1.9244
  165SAPE  H15Y18645   3.525  -0.061   8.222  0.0071  1.2582 -0.9314
  165SAPE  C31618646   3.690   0.019   8.336  0.1405  0.4334  0.9152
  165SAPE  H16X18647   3.800   0.007   8.348  0.3989  1.7995  0.2135
  165SAPE  H16Y18648   3.656  -0.045   8.420  0.8589 -0.2272  0.7077
  165SAPE  C31718649   3.651   0.165   8.354 -0.8149  0.2875  0.1721
  165SAPE  H17X18650   3.540   0.172   8.346 -0.8755 -1.8010 -1.8840
  165SAPE  H17Y18651   3.697   0.238   8.285  1.2873  1.0331  2.2232
  165SAPE  C31818652   3.695   0.210   8.485  0.6347  0.2693 -0.9065
  165SAPE  H18X18653   3.650   0.153   8.569 -2.2266  0.2377 -2.3516
  165SAPE  H18Y18654   3.664   0.316   8.497  2.8582  0.9961 -1.1240
  165SAPE  H18Z18655   3.805   0.192   8.482  0.6143 -0.1337  0.1816
  166SAPE     N18656   5.586   3.183   6.101 -0.4553  0.3591 -0.5475
  166SAPE   HN118657   5.686   3.154   6.106 -0.8995 -1.0837  1.2048
  166SAPE   HN218658   5.529   3.098   6.082 -2.3251  1.0543  1.5054
  166SAPE   HN318659   5.567   3.255   6.029  0.4914  1.1653 -0.0201
  166SAPE   C1218660   5.547   3.246   6.240 -0.3178 -0.6597  0.1278
  166SAPE  H12A18661   5.590   3.349   6.241 -1.7436 -0.0369  1.6682
  166SAPE  H12B18662   5.580   3.189   6.329 -0.9539  0.4270  1.0893
  166SAPE   C1118663   5.394   3.266   6.226  0.1233  0.8573  0.6782
  166SAPE  H11A18664   5.342   3.311   6.313 -1.7192  1.0064 -0.4398
  166SAPE  H11B18665   5.356   3.162   6.211  0.7298  0.5824  1.0294
  166SAPE     P18666   5.233   3.430   6.082  0.0337 -0.2109 -0.0586
  166SAPE   O1318667   5.242   3.491   5.947 -0.0789  0.8467 -0.0894
  166SAPE   O1418668   5.124   3.334   6.100  0.0514  0.6451  0.1670
  166SAPE   O1218669   5.361   3.346   6.107 -0.4211  0.4577  0.3199
  166SAPE   O1118670   5.230   3.533   6.199 -0.3120 -0.2915  0.2954
  166SAPE    C118671   5.318   3.642   6.225  0.2838  0.0862  0.2811
  166SAPE    HA18672   5.410   3.626   6.166  0.8727  3.0826  0.2375
  166SAPE    HB18673   5.265   3.737   6.206 -0.9475 -0.6777 -0.2358
  166SAPE    C218674   5.360   3.633   6.376 -0.0482 -0.1533  0.7918
  166SAPE    HS18675   5.428   3.545   6.378  1.4153  0.6641 -3.3121
  166SAPE   O2118676   5.242   3.631   6.455  0.1013 -0.5863  0.6374
  166SAPE   C2118677   5.229   3.527   6.537 -0.0134  0.0715  0.1885
  166SAPE   O2218678   5.317   3.449   6.553  0.2570  0.4260 -0.8761
  166SAPE   C2218679   5.090   3.524   6.588 -0.3223  0.5423 -0.0345
  166SAPE   H2R18680   5.026   3.588   6.524 -1.7361 -0.2333  0.5529
  166SAPE   H2S18681   5.049   3.421   6.573  0.9443 -0.3697  2.3372
  166SAPE    C318682   5.436   3.759   6.403 -0.2743 -0.3812 -0.1727
  166SAPE    HX18683   5.377   3.853   6.391 -0.1050 -0.0335  1.3971
  166SAPE    HY18684   5.518   3.768   6.329 -1.0927  1.6733 -0.9158
  166SAPE   O3118685   5.486   3.767   6.539  0.4416 -0.0674 -0.8704
  166SAPE   C3118686   5.583   3.688   6.570  0.1535  0.3775  0.4890
  166SAPE   O3218687   5.646   3.614   6.491 -0.0856  0.4235 -0.5108
  166SAPE   C3218688   5.633   3.713   6.713 -0.5398 -0.6431 -0.1385
  166SAPE   H2X18689   5.557   3.770   6.770  1.0530  0.8825  0.5355
  166SAPE   H2Y18690   5.729   3.766   6.694 -1.4382  1.2103  0.2694
  166SAPE   C2318691   5.075   3.586   6.728 -0.4867 -0.1994 -0.6436
  166SAPE   H3R18692   5.175   3.600   6.776 -0.6769  0.9440 -0.5502
  166SAPE   H3S18693   5.028   3.514   6.799  2.3651  0.6623  2.4311
  166SAPE   C2418694   4.995   3.716   6.729 -0.9303  0.2930 -0.2595
  166SAPE   H4R18695   5.047   3.782   6.656  0.4814 -0.8124 -0.2928
  166SAPE   H4S18696   5.007   3.754   6.833  1.8127 -1.5334  0.2110
  166SAPE   C2518697   4.854   3.698   6.684  0.7149 -0.0353 -0.2979
  166SAPE   H5R18698   4.843   3.691   6.575  0.9837  1.4645 -0.4529
  166SAPE   C2618699   4.744   3.685   6.761  0.1724 -0.7881 -0.1433
  166SAPE   H6R18700   4.655   3.672   6.697  0.9659  1.6820 -1.9190
  166SAPE   C2718701   4.731   3.683   6.914  0.8388 -0.6729  0.5453
  166SAPE   H7R18702   4.791   3.601   6.959  1.2521 -0.3542  0.5799
  166SAPE   H7S18703   4.624   3.656   6.922  0.6666 -1.4976 -2.8952
  166SAPE   C2818704   4.765   3.807   6.987  1.6539  0.1451 -0.3934
  166SAPE   H8R18705   4.800   3.895   6.931 -0.6983  0.3984 -1.5796
  166SAPE   C2918706   4.757   3.828   7.118  0.7177  0.5278  0.5230
  166SAPE   H9R18707   4.775   3.929   7.158  1.6356  1.8945 -2.9819
  166SAPE  C21018708   4.714   3.732   7.225  0.3498  0.3345  0.3555
  166SAPE  H10R18709   4.805   3.720   7.288 -0.1793  2.6155  1.6750
  166SAPE  H10S18710   4.676   3.635   7.185 -1.0314  0.5124  1.1661
  166SAPE  C21118711   4.607   3.796   7.308  0.0165  0.2624 -0.3680
  166SAPE  H11R18712   4.530   3.852   7.253  0.6027  1.3309 -0.1223
  166SAPE  C21218713   4.603   3.794   7.451 -0.9608  0.6510  0.9621
  166SAPE  H12R18714   4.523   3.842   7.509 -0.2782  0.0214  2.4883
  166SAPE  C21318715   4.710   3.732   7.539 -0.3713  0.1801  0.5818
  166SAPE  H13R18716   4.795   3.704   7.472 -1.7893  1.0436 -1.6870
  166SAPE  H13S18717   4.673   3.647   7.601  0.4328 -1.2693 -0.8598
  166SAPE  C21418718   4.764   3.845   7.632  0.4883 -0.5284  0.6581
  166SAPE  H14R18719   4.708   3.847   7.727 -0.0024  1.9244  0.3860
  166SAPE  C21518720   4.854   3.940   7.606 -0.1897  0.4592 -0.5427
  166SAPE  H15R18721   4.879   4.012   7.685  0.8827 -1.0171  0.5098
  166SAPE  C21618722   4.941   3.954   7.478  0.1662 -0.5369  0.3759
  166SAPE  H16R18723   4.934   3.866   7.411  3.4381 -0.4821 -0.1656
  166SAPE  H16S18724   5.048   3.962   7.507  0.4127  1.0980 -0.8277
  166SAPE  C21718725   4.903   4.084   7.404 -0.7702  0.4323 -0.0047
  166SAPE  H17R18726   4.902   4.174   7.469 -2.8758 -0.1737  0.8857
  166SAPE  H17S18727   4.797   4.070   7.375 -0.6080 -0.1095 -0.3463
  166SAPE  C21818728   4.984   4.116   7.274 -0.2335 -1.1526 -0.2045
  166SAPE  H18R18729   4.994   4.028   7.207 -1.6470 -1.2237 -0.3472
  166SAPE  H18S18730   5.086   4.141   7.309 -0.1744 -1.0675 -0.4434
  166SAPE  C21918731   4.919   4.230   7.197  0.3036  0.8948  0.2050
  166SAPE  H19R18732   4.910   4.306   7.277 -1.9770 -0.3911  1.2708
  166SAPE  H19S18733   4.816   4.207   7.161  1.3291  1.3734 -3.5172
  166SAPE  C22018734   5.004   4.275   7.080 -0.3131 -0.2636 -0.2767
  166SAPE  H20R18735   4.953   4.345   7.010 -1.2144 -0.7679 -0.1423
  166SAPE  H20S18736   5.045   4.191   7.020  0.7848 -0.7314  1.0736
  166SAPE  H20T18737   5.093   4.322   7.126 -1.2857 -0.9140  2.4192
  166SAPE   C3318738   5.653   3.575   6.791 -0.2077 -0.3708 -0.0925
  166SAPE   H3X18739   5.700   3.596   6.890  1.3483 -0.4659 -0.7891
  166SAPE   H3Y18740   5.725   3.518   6.730 -0.4777 -0.0476 -0.7282
  166SAPE   C3418741   5.527   3.491   6.822 -0.5325  0.0649  0.4750
  166SAPE   H4X18742   5.511   3.451   6.719 -0.4874  1.7900 -0.2399
  166SAPE   H4Y18743   5.446   3.559   6.852  0.9986  1.2961  1.9982
  166SAPE   C3518744   5.543   3.387   6.934 -0.4600  0.3507  0.5616
  166SAPE   H5X18745   5.636   3.329   6.918 -1.6239 -1.4059 -0.1812
  166SAPE   H5Y18746   5.455   3.321   6.916 -0.7791  1.0240 -0.4297
  166SAPE   C3618747   5.554   3.450   7.063  0.3871 -0.4178 -0.0033
  166SAPE   H6X18748   5.484   3.536   7.071  1.1814  0.0865  2.3463
  166SAPE   H6Y18749   5.653   3.495   7.084  0.0620 -0.4503  1.8027
  166SAPE   C3718750   5.516   3.363   7.183  0.2515  0.5846 -0.0649
  166SAPE   H7X18751   5.596   3.286   7.191 -0.1340 -0.2023 -2.7622
  166SAPE   H7Y18752   5.422   3.305   7.170  0.7031  0.0665 -1.1668
  166SAPE   C3818753   5.516   3.444   7.317  0.1796  0.0641  0.9836
  166SAPE   H8X18754   5.439   3.524   7.317 -1.2275 -1.2089 -1.1971
  166SAPE   H8Y18755   5.621   3.481   7.317  0.7194 -1.2273 -1.7570
  166SAPE   C3918756   5.497   3.364   7.443 -0.8097 -0.1992 -0.2038
  166SAPE   H9X18757   5.562   3.274   7.443 -0.5241 -0.0633  2.6184
  166SAPE   H9Y18758   5.395   3.325   7.458  0.2724 -2.9301  0.6334
  166SAPE  C31018759   5.538   3.449   7.565  0.1621  0.0799  0.8295
  166SAPE  H10X18760   5.493   3.551   7.556 -0.7608 -0.4124 -0.3933
  166SAPE  H10Y18761   5.647   3.466   7.558  0.1887 -0.4979 -0.4913
  166SAPE  C31118762   5.481   3.394   7.697 -0.1878 -0.9546 -0.1617
  166SAPE  H11X18763   5.511   3.287   7.699 -0.9376 -1.1624  0.2099
  166SAPE  H11Y18764   5.371   3.411   7.695 -0.0647  0.4968  1.9841
  166SAPE  C31218765   5.525   3.466   7.827  0.9524  0.4871  0.7901
  166SAPE  H12X18766   5.485   3.568   7.807 -1.6892 -0.4729  0.7566
  166SAPE  H12Y18767   5.636   3.461   7.831  0.8775 -1.1020  2.0801
  166SAPE  C31318768   5.455   3.421   7.954 -0.5297 -0.3662 -0.3021
  166SAPE  H13X18769   5.467   3.314   7.979 -1.1467 -0.2499  0.5133
  166SAPE  H13Y18770   5.346   3.434   7.940 -0.6689  3.1963  2.4628
  166SAPE  C31418771   5.488   3.513   8.075 -0.5640 -0.0396 -0.5008
  166SAPE  H14X18772   5.523   3.616   8.056  0.3666  0.4985  3.2249
  166SAPE  H14Y18773   5.577   3.468   8.124  0.6184  1.7049 -0.9869
  166SAPE  C31518774   5.368   3.516   8.179 -0.5376 -1.0747  0.6691
  166SAPE  H15X18775   5.338   3.410   8.193 -0.9697 -0.9110  1.0042
  166SAPE  H15Y18776   5.282   3.572   8.135 -2.0359 -1.3473  3.0681
  166SAPE  C31618777   5.409   3.589   8.302  0.5647  0.2308 -0.2018
  166SAPE  H16X18778   5.450   3.688   8.273  0.7392  0.4709  0.8190
  166SAPE  H16Y18779   5.485   3.536   8.362  2.6960  3.4564  0.1835
  166SAPE  C31718780   5.294   3.613   8.404 -0.3188  0.3658 -0.6128
  166SAPE  H17X18781   5.252   3.511   8.421  0.3397  0.4311  1.8184
  166SAPE  H17Y18782   5.216   3.683   8.367 -0.4115 -1.1447 -3.5586
  166SAPE  C31818783   5.343   3.674   8.538 -0.4497  0.2185 -0.0564
  166SAPE  H18X18784   5.450   3.658   8.559 -0.3888  0.9886  0.2379
  166SAPE  H18Y18785   5.279   3.632   8.618  0.4576 -2.3930 -0.6151
  166SAPE  H18Z18786   5.339   3.784   8.519  0.4629  0.4800  1.1909
  167SAPE     N18787   4.313   2.188   6.081 -0.3523 -0.3188 -0.1182
  167SAPE   HN118788   4.261   2.232   6.002  1.4025  0.6199 -0.7914
  167SAPE   HN218789   4.413   2.198   6.056  0.7722 -0.2446  3.7249
  167SAPE   HN318790   4.282   2.090   6.097 -0.9196 -0.1197  0.0461
  167SAPE   C1218791   4.281   2.249   6.217  0.7674 -0.5102  0.9226
  167SAPE  H12A18792   4.172   2.227   6.223  0.3859  0.8928 -0.2985
  167SAPE  H12B18793   4.297   2.359   6.224  1.4212 -0.6112  1.0614
  167SAPE   C1118794   4.355   2.184   6.333 -0.0901  0.3576 -1.0049
  167SAPE  H11A18795   4.329   2.076   6.325 -3.0380  1.0200 -1.6714
  167SAPE  H11B18796   4.315   2.210   6.434  1.6317  0.2896 -0.2679
  167SAPE     P18797   4.583   2.318   6.388 -0.1689  0.0683  0.0375
  167SAPE   O1318798   4.709   2.257   6.435  0.1820 -0.0941 -0.4961
  167SAPE   O1418799   4.587   2.423   6.285  0.0364 -0.0886  0.0041
  167SAPE   O1218800   4.492   2.198   6.327  0.3363  0.0671 -0.1417
  167SAPE   O1118801   4.501   2.376   6.513  0.1743 -0.5022 -0.6945
  167SAPE    C118802   4.508   2.308   6.639  0.1966 -0.3682  0.4109
  167SAPE    HA18803   4.461   2.209   6.622  1.5846 -0.7185 -1.8646
  167SAPE    HB18804   4.615   2.299   6.665  0.9531  4.1541 -0.2991
  167SAPE    C218805   4.429   2.386   6.747  0.4355 -0.4383  0.6959
  167SAPE    HS18806   4.326   2.404   6.710  1.4934 -1.2767 -3.1792
  167SAPE   O2118807   4.513   2.502   6.769  0.5772  0.0802  0.2972
  167SAPE   C2118808   4.459   2.624   6.746 -0.2036 -1.1819  0.2975
  167SAPE   O2218809   4.350   2.648   6.697  0.4763 -0.4286  0.1863
  167SAPE   C2218810   4.566   2.729   6.777  0.5108  0.0002 -0.0576
  167SAPE   H2R18811   4.665   2.678   6.782  0.9662  0.6774 -1.7247
  167SAPE   H2S18812   4.577   2.803   6.695 -1.0566  0.0799 -0.2102
  167SAPE    C318813   4.415   2.304   6.883 -0.1217 -0.0985 -0.4378
  167SAPE    HX18814   4.370   2.378   6.953  3.0095  0.5340  1.0911
  167SAPE    HY18815   4.521   2.292   6.914 -0.1670  2.3542  0.9123
  167SAPE   O3118816   4.342   2.177   6.869 -0.1815  0.2661 -0.1196
  167SAPE   C3118817   4.410   2.061   6.865  0.5186 -0.0443  0.1369
  167SAPE   O3218818   4.534   2.051   6.860  0.5536  0.7989  0.2450
  167SAPE   C3218819   4.313   1.940   6.873  0.8092 -0.3309  0.0023
  167SAPE   H2X18820   4.327   1.882   6.779 -1.5678  0.1274 -0.6881
  167SAPE   H2Y18821   4.213   1.986   6.859  1.6275  0.8240 -2.6659
  167SAPE   C2318822   4.530   2.808   6.907  1.1188  0.0491  0.5363
  167SAPE   H3R18823   4.422   2.835   6.902  1.6269  2.1356  0.2148
  167SAPE   H3S18824   4.588   2.902   6.902 -1.8832  2.0464  0.4565
  167SAPE   C2418825   4.575   2.728   7.039  0.3670  0.3609  0.1348
  167SAPE   H4R18826   4.684   2.712   7.024 -0.0156 -0.7483 -1.9216
  167SAPE   H4S18827   4.524   2.629   7.033  0.1589  0.5474 -1.5595
  167SAPE   C2518828   4.554   2.795   7.171  1.0945  0.4318  0.5173
  167SAPE   H5R18829   4.653   2.826   7.207  1.4614 -0.3224  0.1657
  167SAPE   C2618830   4.433   2.800   7.235 -0.2694 -0.4777 -0.5641
  167SAPE   H6R18831   4.429   2.855   7.330 -1.2219 -0.9440 -0.3160
  167SAPE   C2718832   4.303   2.745   7.179 -0.1799 -0.5278  0.3152
  167SAPE   H7R18833   4.268   2.668   7.251 -1.2878  0.0802  0.4354
  167SAPE   H7S18834   4.324   2.693   7.083 -0.7513  2.0703 -1.3349
  167SAPE   C2818835   4.196   2.843   7.139  1.0390 -0.5268  0.4579
  167SAPE   H8R18836   4.198   2.941   7.189 -0.1306  0.0386 -0.5318
  167SAPE   C2918837   4.102   2.806   7.052  0.4925 -0.3699 -0.0662
  167SAPE   H9R18838   4.017   2.875   7.034  1.0604  0.1732 -0.7693
  167SAPE  C21018839   4.085   2.675   6.979 -0.4150 -0.2580 -0.1486
  167SAPE  H10R18840   4.076   2.594   7.055  0.9239  1.8002  2.3349
  167SAPE  H10S18841   4.177   2.655   6.920  0.0675 -0.0786  0.5329
  167SAPE  C21118842   3.971   2.662   6.883  0.2151 -0.0291 -0.0185
  167SAPE  H11R18843   3.972   2.707   6.783 -0.6110 -0.0750 -0.0554
  167SAPE  C21218844   3.847   2.609   6.914 -0.4636  0.3214 -0.0228
  167SAPE  H12R18845   3.769   2.607   6.836  0.4140 -2.3123 -0.9121
  167SAPE  C21318846   3.804   2.552   7.041 -0.0800  0.1784  0.0154
  167SAPE  H13R18847   3.779   2.634   7.112  0.5602  1.3129 -1.0194
  167SAPE  H13S18848   3.885   2.492   7.089 -0.2684  0.6250  0.9252
  167SAPE  C21418849   3.692   2.452   7.020 -0.4942 -0.0467 -0.5417
  167SAPE  H14R18850   3.677   2.407   6.920  1.2805 -0.1395 -0.8035
  167SAPE  C21518851   3.618   2.397   7.118  0.1477 -0.1272  0.3242
  167SAPE  H15R18852   3.536   2.326   7.096 -0.6782  0.7415  0.5255
  167SAPE  C21618853   3.623   2.444   7.264  0.1467  0.5446 -0.7218
  167SAPE  H16R18854   3.706   2.516   7.283 -0.7938  1.5170 -0.1780
  167SAPE  H16S18855   3.646   2.357   7.329 -1.4936 -0.1814 -1.0668
  167SAPE  C21718856   3.488   2.505   7.307 -1.1178  0.2188  0.0463
  167SAPE  H17R18857   3.411   2.427   7.291 -1.7681  1.0023 -0.7765
  167SAPE  H17S18858   3.466   2.605   7.263  0.0205  1.4055  2.0187
  167SAPE  C21818859   3.476   2.537   7.458 -0.7890  0.3718 -0.4660
  167SAPE  H18R18860   3.437   2.639   7.477  1.2583  0.8912  1.2855
  167SAPE  H18S18861   3.578   2.532   7.501 -0.1451 -2.0522 -2.0514
  167SAPE  C21918862   3.396   2.439   7.537  0.1840 -0.2002 -0.1123
  167SAPE  H19R18863   3.304   2.412   7.481 -0.2973 -3.0040  1.8576
  167SAPE  H19S18864   3.368   2.486   7.634 -0.6149  0.3817 -0.6064
  167SAPE  C22018865   3.471   2.310   7.563 -0.3183  0.6924  0.4809
  167SAPE  H20R18866   3.576   2.327   7.593  0.2468 -1.7456  0.0577
  167SAPE  H20S18867   3.477   2.244   7.474 -1.8334  2.0752 -0.7322
  167SAPE  H20T18868   3.417   2.257   7.644  2.6274 -3.2879  0.1382
  167SAPE   C3318869   4.338   1.852   6.998 -0.6477  0.3820 -0.3875
  167SAPE   H3X18870   4.445   1.828   7.010 -0.8892 -0.3757  0.2876
  167SAPE   H3Y18871   4.281   1.759   6.977  0.0944 -0.1443 -0.0863
  167SAPE   C3418872   4.275   1.916   7.127  0.1586  0.1005 -0.0658
  167SAPE   H4X18873   4.170   1.949   7.109 -0.9976 -0.6971  4.1077
  167SAPE   H4Y18874   4.333   2.006   7.155  0.5763 -0.3632  0.5927
  167SAPE   C3518875   4.272   1.825   7.248  0.1950  0.5464  0.6193
  167SAPE   H5X18876   4.368   1.768   7.247 -0.8148 -1.2127  1.1391
  167SAPE   H5Y18877   4.189   1.752   7.249 -0.8418  1.6801  2.3889
  167SAPE   C3618878   4.261   1.906   7.380 -0.1802 -0.0494 -0.6223
  167SAPE   H6X18879   4.157   1.947   7.380 -0.8670 -1.5401  1.8158
  167SAPE   H6Y18880   4.326   1.995   7.368 -0.3063  0.2485  0.7273
  167SAPE   C3718881   4.285   1.813   7.502  0.1294  0.2552 -0.3217
  167SAPE   H7X18882   4.388   1.774   7.489 -0.6506 -1.1876 -2.5781
  167SAPE   H7Y18883   4.213   1.729   7.500  1.3953 -0.8369 -1.5365
  167SAPE   C3818884   4.270   1.886   7.637  0.2632  0.1841 -0.3496
  167SAPE   H8X18885   4.160   1.878   7.652  0.3728 -1.7167 -0.3115
  167SAPE   H8Y18886   4.314   1.987   7.625 -1.4284  0.6537 -3.4910
  167SAPE   C3918887   4.345   1.816   7.747 -0.3673  0.3773 -0.3292
  167SAPE   H9X18888   4.350   1.870   7.844 -1.4291 -0.8650  0.4579
  167SAPE   H9Y18889   4.449   1.795   7.717 -0.1674 -2.8018  2.1016
  167SAPE  C31018890   4.280   1.676   7.791 -0.0459 -0.0173  0.5738
  167SAPE  H10X18891   4.360   1.600   7.778  0.9901  1.1194  0.0645
  167SAPE  H10Y18892   4.199   1.658   7.717  1.0743  0.0103 -0.6909
  167SAPE  C31118893   4.198   1.680   7.929 -0.1875 -0.2895 -0.0543
  167SAPE  H11X18894   4.132   1.593   7.951 -2.1744  0.9948 -0.6126
  167SAPE  H11Y18895   4.129   1.767   7.920  0.1431  0.0204  0.3406
  167SAPE  C31218896   4.293   1.688   8.048  0.0605  0.6306  0.1911
  167SAPE  H12X18897   4.387   1.744   8.028  0.3039  0.2037  0.1301
  167SAPE  H12Y18898   4.327   1.583   8.059  0.6234  0.8170  0.2655
  167SAPE  C31318899   4.219   1.726   8.176 -0.3418 -0.6649  0.1951
  167SAPE  H13X18900   4.277   1.688   8.263  2.3763  1.8074 -0.3924
  167SAPE  H13Y18901   4.123   1.669   8.177  0.8781 -2.8150  0.2328
  167SAPE  C31418902   4.179   1.874   8.199  0.4144 -0.4544  0.2284
  167SAPE  H14X18903   4.158   1.912   8.097 -1.4863 -2.7635 -0.3362
  167SAPE  H14Y18904   4.258   1.942   8.238 -1.9068  1.2522  2.3007
  167SAPE  C31518905   4.039   1.882   8.264 -0.0890 -0.5735  0.4296
  167SAPE  H15X18906   3.969   1.812   8.214  1.6961 -1.1511 -1.3806
  167SAPE  H15Y18907   3.996   1.985   8.257 -1.0040 -0.9933 -0.4383
  167SAPE  C31618908   4.052   1.860   8.413  0.5739 -0.0137  0.3038
  167SAPE  H16X18909   4.126   1.937   8.443 -1.0504  1.5144  0.5638
  167SAPE  H16Y18910   4.081   1.756   8.440 -0.8714 -0.6743 -0.5799
  167SAPE  C31718911   3.915   1.895   8.481 -0.3104  0.3854 -0.0275
  167SAPE  H17X18912   3.837   1.827   8.440  1.1449 -2.6030  1.7990
  167SAPE  H17Y18913   3.885   1.999   8.457 -0.3325 -0.2240 -3.0836
  167SAPE  C31818914   3.923   1.873   8.637  0.0236 -0.2939  0.0579
  167SAPE  H18X18915   3.835   1.917   8.688 -0.0222 -0.4635  0.1232
  167SAPE  H18Y18916   4.013   1.920   8.682 -0.4683  1.2136 -0.4499
  167SAPE  H18Z18917   3.923   1.767   8.667  0.5278  0.2212  1.9883
  168SAPE     N18918   1.239   3.806   6.181  0.0995 -0.0173 -0.0753
  168SAPE   HN118919   1.186   3.736   6.124  0.3775 -0.3788  0.1096
  168SAPE   HN218920   1.179   3.891   6.175  2.2173  1.5526  0.0819
  168SAPE   HN318921   1.332   3.827   6.141  0.1877 -0.2196  0.0186
  168SAPE   C1218922   1.257   3.762   6.326  0.0540 -0.0893 -0.2774
  168SAPE  H12A18923   1.255   3.651   6.333  0.7207 -0.2151 -1.7694
  168SAPE  H12B18924   1.172   3.809   6.381 -0.3296 -0.5903 -0.4380
  168SAPE   C1118925   1.387   3.816   6.385  0.0615  0.1570  0.1559
  168SAPE  H11A18926   1.399   3.756   6.478  0.1578 -0.0400  0.0160
  168SAPE  H11B18927   1.375   3.924   6.405 -2.6344 -0.2166  0.9469
  168SAPE     P18928   1.604   3.875   6.236 -0.1440 -0.0115  0.1663
  168SAPE   O1318929   1.662   3.817   6.107 -0.1578  0.6348  0.1693
  168SAPE   O1418930   1.535   4.009   6.220  0.3700 -0.0870  0.2378
  168SAPE   O1218931   1.503   3.770   6.307 -0.1457  1.2197  0.2446
  168SAPE   O1118932   1.721   3.897   6.338 -0.2568  0.3052 -0.0458
  168SAPE    C118933   1.711   3.970   6.456  0.4723  0.0721 -1.0071
  168SAPE    HA18934   1.790   4.048   6.464  0.0030  0.4105  1.3628
  168SAPE    HB18935   1.608   4.008   6.473  0.6030 -0.2858  0.7974
  168SAPE    C218936   1.736   3.874   6.584  0.4925  0.2650  0.5139
  168SAPE    HS18937   1.845   3.850   6.586  0.7049  1.1343 -0.0182
  168SAPE   O2118938   1.646   3.763   6.569 -0.9038 -0.4623 -0.1025
  168SAPE   C2118939   1.691   3.645   6.620  0.4379 -0.4367  0.1517
  168SAPE   O2218940   1.789   3.632   6.688 -0.7874  0.3899  0.3772
  168SAPE   C2218941   1.592   3.533   6.591  0.3438  0.1136  0.1621
  168SAPE   H2R18942   1.525   3.562   6.508 -2.2589 -0.3016  1.9957
  168SAPE   H2S18943   1.641   3.441   6.553  1.1238  1.1467 -1.4693
  168SAPE    C318944   1.696   3.947   6.713 -0.4096  0.0877 -0.0796
  168SAPE    HX18945   1.597   3.995   6.705 -0.4876 -0.3492 -2.9229
  168SAPE    HY18946   1.769   4.030   6.725 -0.0427 -0.4302  1.6106
  168SAPE   O3118947   1.696   3.863   6.834 -0.1220  0.3752  0.5441
  168SAPE   C3118948   1.806   3.859   6.898 -0.3464  0.7035 -0.5571
  168SAPE   O3218949   1.911   3.912   6.865 -0.4700 -0.2659 -0.2182
  168SAPE   C3218950   1.769   3.792   7.032 -0.4955 -0.1109 -0.0200
  168SAPE   H2X18951   1.710   3.699   7.012 -0.4479 -0.3586  0.9188
  168SAPE   H2Y18952   1.706   3.863   7.090  1.1831  1.3734  0.0663
  168SAPE   C2318953   1.511   3.500   6.713  0.4006 -0.2929  0.0473
  168SAPE   H3R18954   1.572   3.479   6.803 -2.0515  0.7899  2.1106
  168SAPE   H3S18955   1.447   3.410   6.699 -1.0065  0.2078  2.5313
  168SAPE   C2418956   1.417   3.620   6.760  0.5669  0.2455  0.3959
  168SAPE   H4R18957   1.378   3.685   6.679  0.1804  0.4147  0.7119
  168SAPE   H4S18958   1.484   3.689   6.816 -0.4234  0.4849  1.3279
  168SAPE   C2518959   1.298   3.567   6.846 -0.0792 -0.5759  0.3124
  168SAPE   H5R18960   1.213   3.531   6.786  0.4233  1.0340 -1.4872
  168SAPE   C2618961   1.290   3.548   6.975  0.2149 -0.5651 -0.2747
  168SAPE   H6R18962   1.197   3.502   7.015 -0.5637  1.3382  0.2189
  168SAPE   C2718963   1.402   3.565   7.078 -0.2196 -0.1067 -0.0538
  168SAPE   H7R18964   1.365   3.634   7.157 -2.0500 -0.8872 -0.1992
  168SAPE   H7S18965   1.482   3.622   7.025 -2.8005  1.7337 -2.2156
  168SAPE   C2818966   1.460   3.436   7.135  0.3749  0.7529 -0.4817
  168SAPE   H8R18967   1.500   3.366   7.060 -0.1263 -0.5518  0.4260
  168SAPE   C2918968   1.472   3.400   7.265 -0.4510  0.0211 -0.0395
  168SAPE   H9R18969   1.518   3.304   7.291  0.5558  1.1245  2.6548
  168SAPE  C21018970   1.431   3.476   7.393 -0.1972  0.7791 -0.0321
  168SAPE  H10R18971   1.350   3.415   7.439  1.4989 -1.8489 -0.3162
  168SAPE  H10S18972   1.383   3.573   7.367 -3.0230 -0.6219 -0.4160
  168SAPE  C21118973   1.545   3.508   7.482 -0.4588 -0.0066 -0.2905
  168SAPE  H11R18974   1.632   3.552   7.430 -0.7220  1.1425  0.1989
  168SAPE  C21218975   1.546   3.496   7.620  0.1327  0.2673  0.0318
  168SAPE  H12R18976   1.640   3.513   7.675  1.8703 -1.4126 -2.1697
  168SAPE  C21318977   1.425   3.449   7.708  0.0648 -0.2574 -0.3880
  168SAPE  H13R18978   1.455   3.350   7.748 -2.7238 -0.3624  1.7243
  168SAPE  H13S18979   1.331   3.439   7.650  0.4194  0.9807 -1.2270
  168SAPE  C21418980   1.394   3.532   7.832  0.3230 -0.1317  0.0722
  168SAPE  H14R18981   1.328   3.619   7.817  0.7264 -0.1308 -2.0937
  168SAPE  C21518982   1.434   3.501   7.957  0.0689  0.4863  1.2511
  168SAPE  H15R18983   1.396   3.559   8.042 -1.5934 -0.3453  1.1209
  168SAPE  C21618984   1.511   3.379   8.005 -0.4700 -0.3853  0.5602
  168SAPE  H16R18985   1.561   3.329   7.919 -1.1365  1.2787 -0.8736
  168SAPE  H16S18986   1.443   3.297   8.035 -0.8202 -1.4559 -2.7104
  168SAPE  C21718987   1.600   3.404   8.121 -0.1521 -0.1643 -0.6550
  168SAPE  H17R18988   1.639   3.508   8.125 -2.3543  0.6932  0.0990
  168SAPE  H17S18989   1.689   3.337   8.120  1.3923  1.8200 -0.8971
  168SAPE  C21818990   1.525   3.407   8.261  1.3724  0.2361 -0.3712
  168SAPE  H18R18991   1.509   3.298   8.279 -0.6281  0.6346  0.5029
  168SAPE  H18S18992   1.433   3.467   8.248  1.0442 -0.5197 -1.7955
  168SAPE  C21918993   1.607   3.477   8.376  0.4140  0.1230  0.1402
  168SAPE  H19R18994   1.617   3.587   8.364  3.2352 -0.2212 -1.7500
  168SAPE  H19S18995   1.711   3.438   8.371  0.2055 -0.6287  1.3698
  168SAPE  C22018996   1.542   3.459   8.514  0.0918  0.3776  0.7626
  168SAPE  H20R18997   1.438   3.428   8.491  1.0992 -0.1699 -4.0162
  168SAPE  H20S18998   1.525   3.562   8.552 -3.9146  0.6061 -1.0878
  168SAPE  H20T18999   1.587   3.390   8.588 -1.0196 -0.3730  0.7595
  168SAPE   C3319000   1.884   3.769   7.119 -0.6997  0.6932 -0.4354
  168SAPE   H3X19001   1.944   3.859   7.141  1.1290 -0.8952  1.5392
  168SAPE   H3Y19002   1.958   3.697   7.076 -0.5336  1.4499 -1.4566
  168SAPE   C3419003   1.844   3.727   7.261  0.2268  0.3192  0.0403
  168SAPE   H4X19004   1.779   3.640   7.239  0.3166 -0.1822  1.6248
  168SAPE   H4Y19005   1.786   3.806   7.311  1.1334  2.8226 -2.5752
  168SAPE   C3519006   1.960   3.683   7.347  0.3275 -0.2699 -0.2897
  168SAPE   H5X19007   2.020   3.774   7.370 -2.5137  2.2237 -2.0984
  168SAPE   H5Y19008   2.023   3.604   7.301  2.8911  0.6641  1.4082
  168SAPE   C3619009   1.914   3.631   7.486 -0.1138  0.0675 -0.2906
  168SAPE   H6X19010   1.876   3.527   7.472 -2.4089  0.4275  2.5419
  168SAPE   H6Y19011   1.824   3.684   7.523  0.6050  1.7869 -0.8950
  168SAPE   C3719012   2.029   3.624   7.587  0.5270 -0.4099 -0.0425
  168SAPE   H7X19013   2.073   3.723   7.608  0.5414 -0.4691  0.2192
  168SAPE   H7Y19014   2.115   3.565   7.550  0.1086 -0.6308 -0.6803
  168SAPE   C3819015   1.987   3.563   7.724  0.3701 -0.1205 -0.2705
  168SAPE   H8X19016   2.064   3.504   7.778 -0.3495 -1.9584 -1.1409
  168SAPE   H8Y19017   1.887   3.518   7.707 -0.3303  0.4891  1.9410
  168SAPE   C3919018   1.952   3.677   7.822  0.3736  0.3430 -0.1275
  168SAPE   H9X19019   1.870   3.742   7.786  0.3588  2.0207  2.6319
  168SAPE   H9Y19020   2.033   3.750   7.844  1.1747 -0.0115 -1.7214
  168SAPE  C31019021   1.899   3.614   7.956  0.2124 -0.1757  0.1893
  168SAPE  H10X19022   1.834   3.532   7.922 -0.9400  1.3913 -1.6032
  168SAPE  H10Y19023   1.836   3.696   7.996  1.6852  1.4187 -0.6065
  168SAPE  C31119024   2.006   3.571   8.046 -0.0147  0.5668  0.0494
  168SAPE  H11X19025   2.076   3.655   8.065 -1.1133  0.9430  2.9650
  168SAPE  H11Y19026   2.068   3.487   8.007 -0.4470 -0.1036  0.7790
  168SAPE  C31219027   1.944   3.536   8.182 -0.7218 -0.1083 -0.2753
  168SAPE  H12X19028   1.872   3.455   8.158 -0.7992  0.5975 -2.6615
  168SAPE  H12Y19029   1.892   3.622   8.229  0.1694  0.2816  0.0393
  168SAPE  C31319030   2.055   3.490   8.277 -0.9380 -0.6540  0.9519
  168SAPE  H13X19031   2.148   3.550   8.269 -0.8599 -0.6266  1.9759
  168SAPE  H13Y19032   2.089   3.391   8.238 -1.0614  0.5017 -2.4310
  168SAPE  C31419033   2.019   3.492   8.425 -0.0470  0.1352 -0.8804
  168SAPE  H14X19034   1.925   3.434   8.441  0.6922 -0.4312  1.9982
  168SAPE  H14Y19035   1.990   3.596   8.452  2.7990  1.1304 -1.3488
  168SAPE  C31519036   2.128   3.443   8.523  0.0907  0.0223  0.6365
  168SAPE  H15X19037   2.078   3.434   8.622 -0.6750  0.4641  0.2987
  168SAPE  H15Y19038   2.202   3.523   8.546 -0.0255  0.4790 -0.5236
  168SAPE  C31619039   2.195   3.304   8.490  0.3646 -0.9092 -0.0897
  168SAPE  H16X19040   2.226   3.322   8.385 -0.3421  1.7284  0.0773
  168SAPE  H16Y19041   2.111   3.232   8.488 -1.8749  1.4766  1.4553
  168SAPE  C31719042   2.313   3.266   8.578 -0.1302 -0.4738 -0.6087
  168SAPE  H17X19043   2.284   3.263   8.685  1.4822  2.6066  0.0231
  168SAPE  H17Y19044   2.388   3.346   8.597 -1.3629  0.7012 -0.5293
  168SAPE  C31819045   2.377   3.141   8.530 -0.2288  0.2601  0.2878
  168SAPE  H18X19046   2.467   3.118   8.592  0.7335  2.9982  0.0305
  168SAPE  H18Y19047   2.405   3.134   8.423  0.1072 -4.2701  0.4868
  168SAPE  H18Z19048   2.295   3.069   8.554  0.3123 -0.0038  1.4499
  169SAPE     N19049   6.708   6.740   5.982  0.2642 -0.2863 -0.2291
  169SAPE   HN119050   6.789   6.718   5.920  1.0474  1.1821  0.2212
  169SAPE   HN219051   6.632   6.761   5.915  0.9589  0.5049 -0.8052
  169SAPE   HN319052   6.734   6.828   6.031  2.6787 -0.1655 -1.5531
  169SAPE   C1219053   6.665   6.633   6.070 -0.2588 -0.7367  0.4732
  169SAPE  H12A19054   6.626   6.553   6.003 -2.2075  0.8475 -0.4066
  169SAPE  H12B19055   6.584   6.673   6.135 -0.0176  0.8281 -0.1346
  169SAPE   C1119056   6.777   6.572   6.152  0.8273  0.3062 -0.0477
  169SAPE  H11A19057   6.846   6.506   6.094  2.5700  0.7921  1.3830
  169SAPE  H11B19058   6.725   6.504   6.222 -2.4399  0.1246 -2.4077
  169SAPE     P19059   6.950   6.637   6.338  0.2128  0.2108 -0.7014
  169SAPE   O1319060   7.042   6.541   6.273  0.2018 -0.4131 -0.1129
  169SAPE   O1419061   6.998   6.760   6.405 -0.5695  0.2806 -0.3716
  169SAPE   O1219062   6.840   6.680   6.229 -0.8005 -0.9043  0.5010
  169SAPE   O1119063   6.867   6.558   6.443 -0.1473  0.5870 -0.1371
  169SAPE    C119064   6.758   6.629   6.506  0.0767  0.0439  0.7825
  169SAPE    HA19065   6.752   6.738   6.487 -2.8164 -0.1496  0.1435
  169SAPE    HB19066   6.659   6.586   6.480 -0.7560  1.6410  1.1438
  169SAPE    C219067   6.766   6.620   6.665 -0.6689  0.0319  0.0191
  169SAPE    HS19068   6.704   6.535   6.701 -0.3839 -0.7191 -1.1932
  169SAPE   O2119069   6.718   6.745   6.711  0.3910  0.3398 -0.1078
  169SAPE   C2119070   6.649   6.732   6.822  0.4143  0.9408  0.4891
  169SAPE   O2219071   6.592   6.631   6.864 -0.3146  0.1815  0.1120
  169SAPE   C2219072   6.612   6.865   6.882 -0.2113 -0.5805 -0.0840
  169SAPE   H2R19073   6.654   6.870   6.984 -1.0926 -2.1270  0.4001
  169SAPE   H2S19074   6.666   6.939   6.819 -0.3119 -0.8111 -0.4498
  169SAPE    C319075   6.917   6.616   6.712 -0.2569  0.0917  1.4520
  169SAPE    HX19076   6.953   6.717   6.684 -0.7514 -0.3672 -1.0109
  169SAPE    HY19077   6.969   6.533   6.660  1.4743  1.4581  0.9409
  169SAPE   O3119078   6.921   6.599   6.856  0.0349  0.4053  0.8612
  169SAPE   C3119079   6.976   6.488   6.904 -0.0519  0.7035 -0.0066
  169SAPE   O3219080   6.987   6.384   6.840  0.7802  0.2920 -0.3278
  169SAPE   C3219081   7.004   6.498   7.052 -0.4357  0.5655 -0.0422
  169SAPE   H2X19082   7.082   6.575   7.069 -0.9098  0.7328  1.5022
  169SAPE   H2Y19083   7.042   6.398   7.082 -0.3690  0.5199 -0.2710
  169SAPE   C2319084   6.464   6.905   6.886  0.1983 -0.2117 -0.1906
  169SAPE   H3R19085   6.392   6.823   6.907 -0.0873  0.1543  0.2936
  169SAPE   H3S19086   6.431   6.953   6.792 -1.8590 -2.0566 -0.4843
  169SAPE   C2419087   6.459   7.022   6.994  0.1405  0.1225 -0.4805
  169SAPE   H4R19088   6.521   7.110   6.965 -0.3594  0.8241  0.5114
  169SAPE   H4S19089   6.492   6.976   7.089 -2.4401 -1.3440 -0.1989
  169SAPE   C2519090   6.316   7.071   7.014  0.1220  0.1250  0.4369
  169SAPE   H5R19091   6.258   7.094   6.924 -0.8633 -1.3587  0.6597
  169SAPE   C2619092   6.244   7.068   7.126 -0.3593 -0.7426  0.3423
  169SAPE   H6R19093   6.136   7.085   7.117 -0.2555 -0.9619 -1.7461
  169SAPE   C2719094   6.276   7.031   7.264 -0.2473  0.5455  0.3770
  169SAPE   H7R19095   6.218   7.099   7.330 -1.0799  1.7783 -1.5235
  169SAPE   H7S19096   6.383   7.047   7.287 -0.4689  1.6044  0.7407
  169SAPE   C2819097   6.253   6.883   7.290 -0.3266 -1.2482 -0.4522
  169SAPE   H8R19098   6.258   6.809   7.209  0.5679 -1.8726  0.1581
  169SAPE   C2919099   6.225   6.829   7.405  0.0520 -0.3748 -0.7452
  169SAPE   H9R19100   6.202   6.722   7.415  0.8380 -0.4007  1.1657
  169SAPE  C21019101   6.222   6.900   7.543  0.3246  0.5661 -0.1987
  169SAPE  H10R19102   6.296   6.983   7.544 -0.6521  1.5189 -1.6687
  169SAPE  H10S19103   6.261   6.835   7.624 -0.1997  2.7995  1.9583
  169SAPE  C21119104   6.086   6.952   7.595 -0.5160 -0.2572  0.1409
  169SAPE  H11R19105   6.017   6.980   7.514  0.8428 -0.3842 -1.1001
  169SAPE  C21219106   6.053   6.982   7.724 -0.0244  0.2278 -0.2385
  169SAPE  H12R19107   5.960   7.035   7.750  1.5469  2.0364  2.1650
  169SAPE  C21319108   6.143   6.962   7.851 -0.2005 -0.2242 -0.0891
  169SAPE  H13R19109   6.241   6.943   7.804  0.3970 -0.2761  1.1274
  169SAPE  H13S19110   6.117   6.868   7.905  0.2622 -0.1634  0.2447
  169SAPE  C21419111   6.149   7.074   7.954  0.2251 -0.2018 -0.3270
  169SAPE  H14R19112   6.137   7.173   7.908 -1.9485  0.5448  1.6290
  169SAPE  C21519113   6.172   7.065   8.086 -0.7217  0.5169 -0.4870
  169SAPE  H15R19114   6.161   7.159   8.142  1.3073 -0.2762  1.3890
  169SAPE  C21619115   6.211   6.947   8.180  0.3804 -0.2608  0.2202
  169SAPE  H16R19116   6.218   6.850   8.126  1.3164 -0.8338  1.3437
  169SAPE  H16S19117   6.133   6.927   8.256 -0.8447 -0.7386 -1.1110
  169SAPE  C21719118   6.342   6.965   8.250  0.0034 -0.1084  0.2051
  169SAPE  H17R19119   6.354   7.073   8.272  0.6693  0.3750 -2.2348
  169SAPE  H17S19120   6.418   6.951   8.170  0.4303 -1.2801  0.7797
  169SAPE  C21819121   6.358   6.872   8.367  0.3358  0.0985  0.5607
  169SAPE  H18R19122   6.299   6.779   8.350 -1.2437  1.1721 -0.1127
  169SAPE  H18S19123   6.294   6.919   8.446 -0.3678 -1.4090  0.9346
  169SAPE  C21919124   6.496   6.859   8.433  0.0607  0.0213 -0.5686
  169SAPE  H19R19125   6.468   6.802   8.525 -2.4344  3.5658  1.0884
  169SAPE  H19S19126   6.530   6.962   8.458 -0.9133 -0.2420  2.2124
  169SAPE  C22019127   6.602   6.780   8.355 -0.0369  0.1082 -0.1365
  169SAPE  H20R19128   6.610   6.844   8.264 -0.7653  1.1373  0.5024
  169SAPE  H20S19129   6.564   6.678   8.332 -0.5154  0.1087  0.6132
  169SAPE  H20T19130   6.700   6.778   8.408  0.1899 -1.1615 -0.5627
  169SAPE   C3319131   6.879   6.544   7.126  0.3162  0.2603 -0.1187
  169SAPE   H3X19132   6.818   6.624   7.078  0.2511  2.1616  2.9085
  169SAPE   H3Y19133   6.905   6.585   7.226 -1.2832  0.7746  0.1025
  169SAPE   C3419134   6.786   6.424   7.152 -0.1272 -0.0920 -0.0939
  169SAPE   H4X19135   6.837   6.353   7.220  0.6862 -0.6242 -1.2246
  169SAPE   H4Y19136   6.775   6.372   7.054 -0.9911 -1.0638  0.4913
  169SAPE   C3519137   6.665   6.476   7.220 -0.0846 -0.2998  0.9627
  169SAPE   H5X19138   6.617   6.557   7.161  0.0675 -1.8981 -1.4954
  169SAPE   H5Y19139   6.712   6.525   7.308  1.1896 -2.4277  1.5302
  169SAPE   C3619140   6.558   6.383   7.264  0.0714 -0.1474  0.4850
  169SAPE   H6X19141   6.536   6.295   7.199  0.6494 -1.3033  1.7935
  169SAPE   H6Y19142   6.464   6.442   7.271 -0.2845 -0.5816 -0.5063
  169SAPE   C3719143   6.584   6.320   7.400 -0.5257 -0.5720  0.2551
  169SAPE   H7X19144   6.592   6.403   7.475  1.8796 -0.3112 -0.2047
  169SAPE   H7Y19145   6.676   6.259   7.395 -1.2986 -1.9343  1.8306
  169SAPE   C3819146   6.473   6.233   7.448 -0.3836  0.6289 -0.6281
  169SAPE   H8X19147   6.454   6.151   7.376 -0.0265 -0.5062  0.5410
  169SAPE   H8Y19148   6.381   6.293   7.463  0.5747  2.4727 -1.7063
  169SAPE   C3919149   6.516   6.169   7.584  0.1204  0.0488 -0.5485
  169SAPE   H9X19150   6.622   6.135   7.587  0.3990  0.9251 -0.2589
  169SAPE   H9Y19151   6.449   6.082   7.605 -0.3468  0.3516 -0.7588
  169SAPE  C31019152   6.493   6.267   7.700 -0.1955  0.0258 -0.1099
  169SAPE  H10X19153   6.395   6.317   7.685  0.6636  2.0464  0.6374
  169SAPE  H10Y19154   6.564   6.351   7.679 -0.9255  0.4388 -0.9876
  169SAPE  C31119155   6.517   6.213   7.837 -0.2948  0.2512  0.4209
  169SAPE  H11X19156   6.605   6.145   7.839 -0.7792 -0.4159  2.7981
  169SAPE  H11Y19157   6.433   6.143   7.856  1.2150 -1.6326  0.4847
  169SAPE  C31219158   6.539   6.324   7.942 -0.3187 -0.3879 -0.0507
  169SAPE  H12X19159   6.447   6.386   7.945  1.1116  1.9345 -0.8372
  169SAPE  H12Y19160   6.620   6.393   7.908 -0.6688 -0.7754 -1.7968
  169SAPE  C31319161   6.558   6.266   8.081  0.1002 -0.0161 -0.7475
  169SAPE  H13X19162   6.647   6.199   8.085 -0.3471 -0.8524 -3.0827
  169SAPE  H13Y19163   6.471   6.205   8.111 -0.5760  1.4783  0.4524
  169SAPE  C31419164   6.585   6.372   8.191  0.0086 -0.1081 -0.2612
  169SAPE  H14X19165   6.495   6.437   8.182 -0.0115  0.1090  1.3271
  169SAPE  H14Y19166   6.672   6.438   8.172 -0.2652  0.8298  1.5154
  169SAPE  C31519167   6.597   6.321   8.336 -0.2161  0.3414  0.1102
  169SAPE  H15X19168   6.693   6.266   8.345  0.4306  1.2695 -0.8798
  169SAPE  H15Y19169   6.525   6.237   8.349  0.5780 -0.4516 -0.5176
  169SAPE  C31619170   6.584   6.436   8.439 -0.1681 -0.3906 -0.0908
  169SAPE  H16X19171   6.481   6.474   8.422 -0.4990 -0.7928  0.9110
  169SAPE  H16Y19172   6.654   6.518   8.411 -1.0039  2.1638  4.3457
  169SAPE  C31719173   6.602   6.402   8.583  0.6366 -0.5716 -0.3096
  169SAPE  H17X19174   6.710   6.378   8.588  0.5793 -0.6565  0.5878
  169SAPE  H17Y19175   6.530   6.321   8.610 -0.0611 -0.1781 -0.9510
  169SAPE  C31819176   6.577   6.513   8.687 -0.1071  0.1970  0.2274
  169SAPE  H18X19177   6.573   6.478   8.792 -0.7913 -0.0486  0.1255
  169SAPE  H18Y19178   6.481   6.563   8.663 -1.2717 -2.2583 -0.5927
  169SAPE  H18Z19179   6.652   6.592   8.664 -0.9972  1.0650  0.2143
  170SAPE     N19180   1.008   3.114   6.163 -0.1335  0.0894  0.3216
  170SAPE   HN119181   0.991   3.216   6.173 -0.8182  0.4353 -2.9726
  170SAPE   HN219182   1.106   3.095   6.134 -0.1258 -1.0471  1.0475
  170SAPE   HN319183   0.942   3.084   6.088  1.6595 -0.5079 -1.0799
  170SAPE   C1219184   0.968   3.055   6.287  0.1208  0.0077  0.1461
  170SAPE  H12A19185   1.037   3.082   6.371  0.4986 -1.5489  0.3664
  170SAPE  H12B19186   0.982   2.945   6.279 -0.9980 -0.1517  0.2584
  170SAPE   C1119187   0.821   3.090   6.323  0.0787 -0.3371  0.0316
  170SAPE  H11A19188   0.810   3.201   6.323  4.3729  0.3149 -2.1155
  170SAPE  H11B19189   0.809   3.062   6.430  1.2044 -1.0047  0.0021
  170SAPE     P19190   0.665   2.883   6.236 -0.3239 -0.0651 -0.0514
  170SAPE   O1319191   0.535   2.889   6.166 -0.0989  0.2729  0.0966
  170SAPE   O1419192   0.771   2.795   6.183 -0.0178  0.2680 -0.3825
  170SAPE   O1219193   0.724   3.029   6.239  0.4540 -0.2168 -0.2552
  170SAPE   O1119194   0.639   2.848   6.391 -0.3949 -0.0002 -0.0805
  170SAPE    C119195   0.540   2.926   6.460 -0.3667 -0.0284  0.6006
  170SAPE    HA19196   0.550   3.032   6.428  1.2103 -0.5993 -0.9281
  170SAPE    HB19197   0.446   2.879   6.424  1.4630 -1.9683 -2.0724
  170SAPE    C219198   0.556   2.929   6.612  0.3801  0.2575 -0.6039
  170SAPE    HS19199   0.662   2.959   6.621 -0.1421  2.2980 -0.6113
  170SAPE   O2119200   0.516   2.800   6.662  0.0103 -0.5505  0.1639
  170SAPE   C2119201   0.589   2.755   6.761 -0.8047 -0.4750  0.2859
  170SAPE   O2219202   0.686   2.808   6.811 -0.0759 -0.3500  0.2253
  170SAPE   C2219203   0.539   2.619   6.804 -1.0601  0.0604  0.1669
  170SAPE   H2R19204   0.476   2.575   6.723  0.7412 -0.3908 -1.0395
  170SAPE   H2S19205   0.624   2.555   6.834 -0.3924  0.4773 -0.7762
  170SAPE    C319206   0.463   3.041   6.664  0.7858 -0.5999 -0.3612
  170SAPE    HX19207   0.360   3.016   6.631 -0.4057  0.4828  2.2432
  170SAPE    HY19208   0.489   3.142   6.627 -1.0261 -0.4053 -1.1650
  170SAPE   O3119209   0.462   3.049   6.809  0.6455 -0.0084 -0.1862
  170SAPE   C3119210   0.568   3.103   6.867 -0.1302  0.1654 -0.1588
  170SAPE   O3219211   0.668   3.137   6.812  1.1130 -0.0577 -0.2043
  170SAPE   C3219212   0.547   3.110   7.019 -0.0785 -0.7592  0.1212
  170SAPE   H2X19213   0.626   3.054   7.073  0.2611  0.7209  1.2362
  170SAPE   H2Y19214   0.448   3.065   7.040 -0.0278 -0.0214  2.1812
  170SAPE   C2319215   0.445   2.641   6.929  0.2310  0.2110  0.4822
  170SAPE   H3R19216   0.401   2.539   6.934 -0.3612  0.3420 -1.3754
  170SAPE   H3S19217   0.360   2.709   6.908 -0.0312 -0.2665 -0.0331
  170SAPE   C2419218   0.518   2.682   7.058 -0.2344 -0.1683  0.5998
  170SAPE   H4R19219   0.588   2.768   7.044  0.5138 -0.7604  0.6175
  170SAPE   H4S19220   0.588   2.601   7.086  0.6443 -0.2526 -1.6075
  170SAPE   C2519221   0.430   2.720   7.177  0.1963  0.2172 -0.2451
  170SAPE   H5R19222   0.345   2.784   7.148  0.3359  0.2472 -0.5980
  170SAPE   C2619223   0.471   2.710   7.303 -0.1055  0.3027  0.2933
  170SAPE   H6R19224   0.390   2.744   7.369 -0.6718 -0.4754  0.0087
  170SAPE   C2719225   0.597   2.653   7.361  0.1581  0.3854 -0.2578
  170SAPE   H7R19226   0.653   2.582   7.297 -0.0177 -1.2470  1.2993
  170SAPE   H7S19227   0.572   2.584   7.445 -0.0994 -2.3770 -2.4687
  170SAPE   C2819228   0.687   2.762   7.415  0.3287 -0.6216 -0.3367
  170SAPE   H8R19229   0.721   2.817   7.326 -0.7531  0.3568 -0.1797
  170SAPE   C2919230   0.723   2.794   7.543 -0.8867  0.0968  0.6449
  170SAPE   H9R19231   0.781   2.886   7.558 -0.2288  0.2827 -2.3884
  170SAPE  C21019232   0.674   2.724   7.668  0.0858 -0.6367  0.6703
  170SAPE  H10R19233   0.768   2.698   7.721  1.2555  1.0980 -0.4430
  170SAPE  H10S19234   0.639   2.622   7.639  0.7561  0.0977 -3.3116
  170SAPE  C21119235   0.580   2.787   7.767  0.1041 -0.0590 -0.4481
  170SAPE  H11R19236   0.503   2.848   7.717  0.9321  1.2023 -0.2157
  170SAPE  C21219237   0.591   2.806   7.902 -0.0693  0.3242  0.8068
  170SAPE  H12R19238   0.499   2.839   7.953  0.6559  0.8395  1.8158
  170SAPE  C21319239   0.703   2.752   7.994 -0.1367 -0.5092  0.3020
  170SAPE  H13R19240   0.721   2.642   7.982 -2.0303 -0.9436  1.1387
  170SAPE  H13S19241   0.648   2.767   8.089 -0.3785  0.2252  0.0562
  170SAPE  C21419242   0.831   2.837   7.966 -0.1895  0.0454 -0.1645
  170SAPE  H14R19243   0.815   2.943   7.942 -0.0736  0.5968  2.0387
  170SAPE  C21519244   0.961   2.785   7.970 -0.2465  0.9556  1.0581
  170SAPE  H15R19245   1.045   2.851   7.946  1.3822 -1.3258  0.1523
  170SAPE  C21619246   1.006   2.648   8.012 -0.8671 -0.2021  0.0898
  170SAPE  H16R19247   1.100   2.614   7.963 -0.6466  0.8666 -0.2452
  170SAPE  H16S19248   0.930   2.567   8.006 -2.3981  1.1395  0.5470
  170SAPE  C21719249   1.033   2.656   8.160 -0.9438  0.2196  0.0959
  170SAPE  H17R19250   0.938   2.674   8.216 -0.8555  0.1586  0.2669
  170SAPE  H17S19251   1.094   2.747   8.178  0.5942 -0.8412  0.4148
  170SAPE  C21819252   1.100   2.535   8.224 -0.3245  0.1842  0.6621
  170SAPE  H18R19253   1.116   2.551   8.333  1.0383 -0.0761  0.5119
  170SAPE  H18S19254   1.203   2.537   8.184 -0.6331  0.1862 -0.1631
  170SAPE  C21919255   1.036   2.396   8.196 -0.3967  0.0899  0.1937
  170SAPE  H19R19256   1.103   2.317   8.235 -0.2249  0.4391  0.6112
  170SAPE  H19S19257   1.028   2.373   8.087 -2.2177 -2.1322  0.7214
  170SAPE  C22019258   0.889   2.379   8.248 -0.6233 -0.9328  0.2666
  170SAPE  H20R19259   0.827   2.462   8.209 -0.9877 -0.0454  2.5718
  170SAPE  H20S19260   0.885   2.384   8.359 -0.8705  0.3750  0.2201
  170SAPE  H20T19261   0.856   2.278   8.217  1.1920 -1.2793 -0.6853
  170SAPE   C3319262   0.536   3.257   7.080 -0.0418 -0.7011 -0.0407
  170SAPE   H3X19263   0.467   3.320   7.021  2.3600  2.7012  0.4302
  170SAPE   H3Y19264   0.637   3.305   7.079  1.4151 -3.5551  0.3474
  170SAPE   C3419265   0.499   3.263   7.231  0.2810  0.0519  0.7762
  170SAPE   H4X19266   0.392   3.235   7.236  0.8281 -2.2429  0.5322
  170SAPE   H4Y19267   0.507   3.367   7.271  2.3728  0.0599  0.4559
  170SAPE   C3519268   0.583   3.175   7.325  0.0433 -0.2641  0.2299
  170SAPE   H5X19269   0.691   3.203   7.331  1.4047 -4.8148  0.8415
  170SAPE   H5Y19270   0.571   3.069   7.292  0.0169 -0.9579  2.3157
  170SAPE   C3619271   0.525   3.174   7.471 -0.2409 -0.5414  0.1879
  170SAPE   H6X19272   0.568   3.089   7.528  0.0438 -0.1440  0.5769
  170SAPE   H6Y19273   0.415   3.166   7.463 -0.5139  0.9647  1.7033
  170SAPE   C3719274   0.544   3.309   7.541  0.0073  0.8920  0.1763
  170SAPE   H7X19275   0.478   3.378   7.485  1.3657  2.8624  0.8650
  170SAPE   H7Y19276   0.649   3.339   7.520  0.2451 -1.1264 -1.8519
  170SAPE   C3819277   0.529   3.303   7.694  0.0900  0.4739  0.0319
  170SAPE   H8X19278   0.597   3.233   7.746 -1.6909 -0.4550  1.2431
  170SAPE   H8Y19279   0.426   3.268   7.716 -0.7211  1.7444 -1.4948
  170SAPE   C3919280   0.538   3.444   7.759 -0.5523  0.4189  0.5666
  170SAPE   H9X19281   0.457   3.503   7.711 -0.7303  0.3920  0.8288
  170SAPE   H9Y19282   0.633   3.494   7.730 -0.7944  1.1397  0.9875
  170SAPE  C31019283   0.528   3.448   7.911 -0.1927  0.2554  0.7266
  170SAPE  H10X19284   0.605   3.380   7.954 -0.4174 -1.6298 -1.6879
  170SAPE  H10Y19285   0.430   3.407   7.941  0.2052 -1.0119  0.3289
  170SAPE  C31119286   0.554   3.596   7.958  0.0718  0.5605  1.0697
  170SAPE  H11X19287   0.504   3.654   7.877 -0.8382 -3.1982 -1.2981
  170SAPE  H11Y19288   0.663   3.610   7.941 -0.1295  0.4300 -0.4405
  170SAPE  C31219289   0.495   3.626   8.093 -0.4037  0.0470 -0.5436
  170SAPE  H12X19290   0.387   3.604   8.077 -0.3498 -0.3147 -0.4048
  170SAPE  H12Y19291   0.502   3.736   8.111 -0.6664 -0.0805  0.4218
  170SAPE  C31319292   0.560   3.541   8.199  0.2125  0.4915 -0.1210
  170SAPE  H13X19293   0.542   3.432   8.192  2.1519 -0.2813  3.7730
  170SAPE  H13Y19294   0.516   3.568   8.298  1.8384 -0.1420  0.8239
  170SAPE  C31419295   0.712   3.561   8.211 -0.0073 -0.6491  0.5701
  170SAPE  H14X19296   0.733   3.670   8.209 -0.9765 -0.3805 -3.4701
  170SAPE  H14Y19297   0.764   3.537   8.116  3.5693 -0.5678  2.3561
  170SAPE  C31519298   0.783   3.510   8.334 -0.2535 -0.0786 -0.4628
  170SAPE  H15X19299   0.877   3.570   8.326 -1.6203  2.3724  0.6362
  170SAPE  H15Y19300   0.813   3.403   8.329  1.1639  0.3185 -0.9221
  170SAPE  C31619301   0.730   3.553   8.469 -0.1813  0.0504  0.2285
  170SAPE  H16X19302   0.711   3.464   8.534 -0.8562  0.8873  1.2084
  170SAPE  H16Y19303   0.640   3.617   8.456 -0.7886 -0.6597  0.8056
  170SAPE  C31719304   0.826   3.642   8.559 -0.3429  0.2095  0.4423
  170SAPE  H17X19305   0.925   3.598   8.534 -0.1700  0.5719  0.4908
  170SAPE  H17Y19306   0.789   3.627   8.662 -0.5286 -1.3266  0.1728
  170SAPE  C31819307   0.835   3.795   8.518 -0.5624  0.0979 -0.5572
  170SAPE  H18X19308   0.876   3.819   8.418 -1.2235  1.4996 -0.5150
  170SAPE  H18Y19309   0.884   3.841   8.606 -1.6388 -0.0454  0.1372
  170SAPE  H18Z19310   0.732   3.835   8.505 -1.1633 -1.3686 -0.5796
  171SAPE     N19311   2.147   3.390   6.555 -0.1117 -0.2009 -0.1109
  171SAPE   HN119312   2.240   3.424   6.525 -0.4672 -0.4059 -1.5091
  171SAPE   HN219313   2.100   3.458   6.618 -1.1694 -1.4076  0.4502
  171SAPE   HN319314   2.174   3.302   6.603  1.0743  0.4263  0.4130
  171SAPE   C1219315   2.065   3.372   6.442 -0.0592 -0.1752  0.4822
  171SAPE  H12A19316   2.134   3.338   6.361 -1.0074  0.6014 -0.6840
  171SAPE  H12B19317   2.028   3.475   6.421  0.7455  0.2023  0.8724
  171SAPE   C1119318   1.940   3.281   6.460  0.7054  0.0838 -1.0469
  171SAPE  H11A19319   1.883   3.269   6.365 -0.1386 -0.1929 -0.5214
  171SAPE  H11B19320   1.882   3.342   6.532  1.4203  1.9580 -2.0115
  171SAPE     P19321   1.887   3.046   6.588  0.0397 -0.3849 -0.0803
  171SAPE   O1319322   1.790   2.984   6.495  0.3329 -0.5876  0.4860
  171SAPE   O1419323   1.985   2.956   6.658  0.1061  0.0049 -0.3952
  171SAPE   O1219324   1.974   3.153   6.509  0.1592 -0.5332 -0.2877
  171SAPE   O1119325   1.813   3.139   6.693 -0.6903  0.2965 -0.5006
  171SAPE    C119326   1.885   3.238   6.774  0.0140  0.0402 -0.4143
  171SAPE    HA19327   1.992   3.249   6.744  0.2402 -3.2646 -1.2192
  171SAPE    HB19328   1.832   3.336   6.772  1.8680  1.1043 -0.1844
  171SAPE    C219329   1.886   3.206   6.924 -0.2670  0.9181  0.8641
  171SAPE    HS19330   1.949   3.118   6.949  0.6159  1.2901  0.0184
  171SAPE   O2119331   1.750   3.178   6.958  0.2643 -0.5552 -0.2499
  171SAPE   C2119332   1.709   3.051   6.955 -0.9000 -0.0656 -0.2789
  171SAPE   O2219333   1.785   2.960   6.938  0.5862  0.0610  0.3303
  171SAPE   C2219334   1.564   3.045   6.984 -0.0840  0.1640 -0.0145
  171SAPE   H2R19335   1.561   3.071   7.092  3.0438  1.2197 -0.0780
  171SAPE   H2S19336   1.514   3.123   6.923  1.9626 -0.5950 -2.8219
  171SAPE    C319337   1.931   3.328   6.996  0.1938  0.0017  0.0436
  171SAPE    HX19338   1.847   3.401   6.992  0.0982 -0.1631 -2.6136
  171SAPE    HY19339   2.022   3.369   6.948  1.0321 -0.9123  0.8199
  171SAPE   O3119340   1.967   3.296   7.135 -0.4229 -0.4084  0.2274
  171SAPE   C3119341   1.869   3.304   7.224 -0.0679  0.4906 -0.4841
  171SAPE   O3219342   1.763   3.352   7.208 -1.0357  0.0752 -0.3388
  171SAPE   C3219343   1.922   3.255   7.354  0.1303 -0.2601  0.5011
  171SAPE   H2X19344   1.999   3.327   7.389  0.6752 -1.2502  1.3903
  171SAPE   H2Y19345   1.988   3.168   7.336 -0.9674 -1.3147  1.4520
  171SAPE   C2319346   1.503   2.902   6.962 -0.2639  0.4971  0.2440
  171SAPE   H3R19347   1.554   2.851   6.877  1.1907  0.8992  0.8470
  171SAPE   H3S19348   1.401   2.919   6.920 -0.1307  1.6613  0.3690
  171SAPE   C2419349   1.492   2.820   7.090  0.1796 -0.4697 -0.0756
  171SAPE   H4R19350   1.437   2.727   7.065  0.2061 -0.2695 -0.8961
  171SAPE   H4S19351   1.429   2.861   7.172 -0.0724 -0.2470 -0.3755
  171SAPE   C2519352   1.621   2.781   7.152  0.2382 -0.1197  0.0076
  171SAPE   H5R19353   1.698   2.758   7.076  0.4819 -0.3338  0.3145
  171SAPE   C2619354   1.654   2.759   7.279  0.2718  0.0561  0.1656
  171SAPE   H6R19355   1.744   2.699   7.298 -1.4399 -2.5184  0.7381
  171SAPE   C2719356   1.579   2.781   7.407  0.5658  0.4220  0.9703
  171SAPE   H7R19357   1.533   2.684   7.436  1.0655 -0.8265 -2.0881
  171SAPE   H7S19358   1.506   2.865   7.404  0.4892  0.3351 -0.8922
  171SAPE   C2819359   1.673   2.812   7.520 -0.0367  0.1496  0.0212
  171SAPE   H8R19360   1.769   2.856   7.491  0.6807 -1.2950  0.0739
  171SAPE   C2919361   1.652   2.813   7.657 -0.6046 -0.0354  0.0278
  171SAPE   H9R19362   1.732   2.855   7.721 -1.8336 -0.7609  2.1339
  171SAPE  C21019363   1.525   2.785   7.727 -0.1609 -0.0222 -0.2575
  171SAPE  H10R19364   1.484   2.705   7.662 -0.7710 -1.3657  1.6661
  171SAPE  H10S19365   1.463   2.877   7.726  1.6533  1.2702 -1.1854
  171SAPE  C21119366   1.568   2.722   7.864 -0.5200  0.0367  1.0417
  171SAPE  H11R19367   1.619   2.626   7.850 -0.4534  0.4869 -2.7991
  171SAPE  C21219368   1.554   2.774   7.988  0.0087 -0.6323  0.0494
  171SAPE  H12R19369   1.587   2.714   8.074 -0.2559 -0.1206  0.5110
  171SAPE  C21319370   1.494   2.915   8.017  0.2042  0.9190  0.0133
  171SAPE  H13R19371   1.387   2.914   7.986  0.4195 -1.5200 -0.8618
  171SAPE  H13S19372   1.535   2.995   7.952  1.5027  1.3983  1.3913
  171SAPE  C21419373   1.512   2.961   8.157 -0.4838  0.5420  0.2942
  171SAPE  H14R19374   1.582   3.045   8.173  1.9955 -1.5462  1.0820
  171SAPE  C21519375   1.461   2.915   8.267  0.7682  0.8232  0.5123
  171SAPE  H15R19376   1.505   2.958   8.358  0.9024  1.4849  0.1417
  171SAPE  C21619377   1.367   2.791   8.284 -0.2466  0.2797  0.0118
  171SAPE  H16R19378   1.334   2.744   8.189  0.2106 -0.4615  0.2121
  171SAPE  H16S19379   1.281   2.824   8.347  0.4186  0.7080  0.7132
  171SAPE  C21719380   1.439   2.680   8.357 -0.5385  0.1250 -0.7754
  171SAPE  H17R19381   1.547   2.670   8.331 -0.2611 -1.8650  0.8602
  171SAPE  H17S19382   1.400   2.585   8.314  0.7620  0.5515 -3.0644
  171SAPE  C21819383   1.430   2.678   8.507  0.0321 -0.3508  0.1227
  171SAPE  H18R19384   1.472   2.777   8.535 -0.4734  0.4252 -1.6809
  171SAPE  H18S19385   1.493   2.598   8.551 -0.8859 -0.1130  1.9795
  171SAPE  C21919386   1.289   2.645   8.549 -0.0932 -0.7303 -0.8071
  171SAPE  H19R19387   1.215   2.701   8.487 -0.2441 -1.6940 -1.5205
  171SAPE  H19S19388   1.282   2.685   8.652  2.2955  0.6533 -1.1208
  171SAPE  C22019389   1.238   2.506   8.570  0.5597 -0.1180 -0.3114
  171SAPE  H20R19390   1.261   2.453   8.475  1.2303  0.3286 -0.4111
  171SAPE  H20S19391   1.131   2.499   8.595  0.1134  0.1522 -2.0157
  171SAPE  H20T19392   1.300   2.454   8.647  1.1268  1.7171  0.5412
  171SAPE   C3319393   1.810   3.234   7.462  0.1364  0.1990  0.1986
  171SAPE   H3X19394   1.766   3.136   7.436 -1.0052  0.8770 -0.4753
  171SAPE   H3Y19395   1.732   3.313   7.458 -1.0519 -0.9102  0.8376
  171SAPE   C3419396   1.858   3.227   7.606 -0.0325 -0.3758  0.0459
  171SAPE   H4X19397   1.905   3.323   7.637 -0.8603  0.2387 -0.5530
  171SAPE   H4Y19398   1.935   3.148   7.597  0.7116  0.3843 -0.4180
  171SAPE   C3519399   1.752   3.181   7.712  0.2300 -0.1990  0.5225
  171SAPE   H5X19400   1.705   3.095   7.661  0.6249 -0.3691  0.4437
  171SAPE   H5Y19401   1.679   3.262   7.736 -0.8349 -1.0375  0.1856
  171SAPE   C3619402   1.806   3.111   7.831  0.1148 -0.3131 -0.4071
  171SAPE   H6X19403   1.862   3.019   7.804  0.8389  0.0401 -0.1406
  171SAPE   H6Y19404   1.731   3.080   7.907  0.4692 -0.1757  0.0036
  171SAPE   C3719405   1.901   3.206   7.904 -0.2221 -0.6375  0.4258
  171SAPE   H7X19406   1.837   3.287   7.945  0.0642 -0.6726  0.9513
  171SAPE   H7Y19407   1.978   3.242   7.834 -0.9618  0.7806  0.3131
  171SAPE   C3819408   1.979   3.138   8.025  0.0623  0.7670 -0.1631
  171SAPE   H8X19409   2.024   3.220   8.084  1.5209  0.1076 -0.3336
  171SAPE   H8Y19410   2.057   3.087   7.964  0.2491  0.0256  0.6732
  171SAPE   C3919411   1.892   3.050   8.113 -0.2454 -0.1648 -0.5050
  171SAPE   H9X19412   1.850   2.958   8.067  1.8699 -0.4826 -1.9270
  171SAPE   H9Y19413   1.815   3.127   8.139  0.7873  1.4563 -1.9761
  171SAPE  C31019414   1.977   2.995   8.225  0.4912 -0.0962 -0.3373
  171SAPE  H10X19415   1.989   3.058   8.316  1.3245  1.0207 -1.2137
  171SAPE  H10Y19416   2.074   2.956   8.186  1.3436  2.2926 -0.7253
  171SAPE  C31119417   1.900   2.872   8.281 -0.5298 -0.1813 -0.7100
  171SAPE  H11X19418   1.902   2.784   8.214  0.8054 -1.0522  0.4079
  171SAPE  H11Y19419   1.796   2.906   8.301 -0.1820  0.1950  0.5817
  171SAPE  C31219420   1.959   2.825   8.417 -0.5250 -0.0618  0.8591
  171SAPE  H12X19421   1.938   2.909   8.487  0.9580  0.5319  0.6313
  171SAPE  H12Y19422   2.070   2.830   8.406 -0.5052  3.2458  1.3978
  171SAPE  C31319423   1.914   2.684   8.455 -0.6230 -0.3232  0.2205
  171SAPE  H13X19424   1.901   2.615   8.368  1.0374 -1.9240  1.1627
  171SAPE  H13Y19425   1.814   2.679   8.503 -2.0009 -0.4904 -2.4887
  171SAPE  C31419426   2.021   2.597   8.538 -0.2892 -0.5592 -0.0935
  171SAPE  H14X19427   2.119   2.593   8.485  0.7375  2.6947  1.2748
  171SAPE  H14Y19428   1.985   2.495   8.562  2.2846 -1.9548 -1.6993
  171SAPE  C31519429   2.049   2.655   8.672 -0.2312 -0.3387  0.3885
  171SAPE  H15X19430   1.948   2.647   8.719 -0.4705 -1.9407 -0.3547
  171SAPE  H15Y19431   2.088   2.759   8.671 -1.0021 -0.0435 -0.4251
  171SAPE  C31619432   2.149   2.553   8.730  0.9339 -0.3620 -0.3466
  171SAPE  H16X19433   2.229   2.537   8.656  0.4498 -2.9644 -0.3969
  171SAPE  H16Y19434   2.099   2.457   8.756 -0.8288  1.3403  3.3499
  171SAPE  C31719435   2.214   2.605   8.860  0.7704  0.2254 -0.0944
  171SAPE  H17X19436   2.289   2.684   8.836 -1.0745  2.8724  2.2534
  171SAPE  H17Y19437   2.276   2.523   8.902  0.9074  0.0175 -0.6933
  171SAPE  C31819438   2.119   2.661   8.968 -0.6105 -0.3372  0.3463
  171SAPE  H18X19439   2.038   2.594   9.005 -1.4058  0.3647 -0.0933
  171SAPE  H18Y19440   2.058   2.739   8.917  0.0200  0.5136  0.8814
  171SAPE  H18Z19441   2.178   2.706   9.050  0.3321  0.7358 -0.8823
  172SAPE     N19442   3.173   1.410   6.165  0.1948  0.5375  0.4268
  172SAPE   HN119443   3.223   1.432   6.077 -0.3754  1.0110  0.2160
  172SAPE   HN219444   3.244   1.416   6.242 -0.9576  1.0727  1.4875
  172SAPE   HN319445   3.136   1.313   6.166 -1.2599  1.0692  1.1675
  172SAPE   C1219446   3.064   1.519   6.186 -0.1593  0.4414  0.3540
  172SAPE  H12A19447   3.077   1.559   6.289  1.7538 -0.1323  0.3668
  172SAPE  H12B19448   2.967   1.467   6.172 -0.7174  1.4492  0.3992
  172SAPE   C1119449   3.074   1.645   6.092  0.2989  0.9153 -0.5532
  172SAPE  H11A19450   3.002   1.718   6.136  0.6630  0.5740  0.6710
  172SAPE  H11B19451   3.037   1.616   5.992 -2.0774 -0.8396  0.7052
  172SAPE     P19452   3.230   1.826   6.009  0.5673 -0.1029 -0.5160
  172SAPE   O1319453   3.369   1.851   5.970 -0.2829 -0.3614 -0.3996
  172SAPE   O1419454   3.128   1.834   5.903 -0.6388  0.1976 -0.2608
  172SAPE   O1219455   3.209   1.690   6.090 -0.7606  0.3220  0.3751
  172SAPE   O1119456   3.198   1.931   6.124  0.1783 -0.2927  0.2673
  172SAPE    C119457   3.277   1.921   6.246 -0.2791  0.1116 -0.0935
  172SAPE    HA19458   3.365   1.857   6.223 -0.8425 -0.5517 -0.4245
  172SAPE    HB19459   3.312   2.020   6.283  0.0684 -0.3856  0.9594
  172SAPE    C219460   3.214   1.859   6.367  0.5535 -0.0811 -0.3158
  172SAPE    HS19461   3.162   1.764   6.344 -0.6429 -0.0506  1.9866
  172SAPE   O2119462   3.114   1.956   6.408  0.1566 -0.2687 -0.0585
  172SAPE   C2119463   3.016   1.916   6.492 -0.1224  0.0507  0.4430
  172SAPE   O2219464   2.988   1.795   6.509  0.3487 -0.0280  0.3969
  172SAPE   C2219465   2.954   2.024   6.564 -0.3077  0.6998 -0.2616
  172SAPE   H2R19466   3.025   2.076   6.632 -1.3507  1.4892  0.2510
  172SAPE   H2S19467   2.904   2.097   6.496  1.2142  2.2939  0.2621
  172SAPE    C319468   3.311   1.833   6.489 -0.0190 -0.0306  0.7383
  172SAPE    HX19469   3.362   1.931   6.503 -1.1672  0.7460 -0.3430
  172SAPE    HY19470   3.383   1.755   6.457 -0.6094  0.9973 -3.7921
  172SAPE   O3119471   3.258   1.808   6.614  0.2166 -0.7803 -0.2946
  172SAPE   C3119472   3.226   1.679   6.637  0.6533 -0.1532  0.3765
  172SAPE   O3219473   3.243   1.591   6.560  0.3069  0.3380 -0.5102
  172SAPE   C3219474   3.154   1.670   6.772 -0.6425  0.0804 -0.6516
  172SAPE   H2X19475   3.102   1.573   6.776 -2.0575  0.8442  0.1525
  172SAPE   H2Y19476   3.071   1.743   6.759 -1.0028 -0.1666  0.1894
  172SAPE   C2319477   2.839   1.956   6.643 -0.1522 -0.7166  0.2504
  172SAPE   H3R19478   2.880   1.870   6.701  1.1813 -0.6573 -0.5778
  172SAPE   H3S19479   2.754   1.920   6.580 -2.3182  2.2850  1.2296
  172SAPE   C2419480   2.778   2.051   6.742 -0.1291  0.0954  0.0808
  172SAPE   H4R19481   2.677   2.015   6.769 -1.6194  3.0386 -1.1116
  172SAPE   H4S19482   2.764   2.149   6.691 -0.1464  0.1800  0.2463
  172SAPE   C2519483   2.864   2.065   6.864 -0.1330  0.0481 -0.4195
  172SAPE   H5R19484   2.919   2.160   6.861 -0.7424  0.4831  1.0901
  172SAPE   C2619485   2.864   1.986   6.976  0.3363  0.4884 -0.0064
  172SAPE   H6R19486   2.929   2.011   7.061  0.6662  0.9085 -0.3792
  172SAPE   C2719487   2.788   1.855   6.984  0.6712  0.1455  0.5369
  172SAPE   H7R19488   2.837   1.783   7.054 -2.1311 -1.5208  0.9760
  172SAPE   H7S19489   2.794   1.803   6.886 -0.4192 -1.0971  1.0986
  172SAPE   C2819490   2.644   1.842   7.025  0.1285  0.4077 -0.2274
  172SAPE   H8R19491   2.573   1.816   6.945 -0.7082 -0.1993  0.6974
  172SAPE   C2919492   2.595   1.849   7.152  0.1639  0.1729  0.4175
  172SAPE   H9R19493   2.485   1.851   7.161  0.0086 -3.4258  1.1049
  172SAPE  C21019494   2.672   1.868   7.282  0.6238  0.1310  0.4393
  172SAPE  H10R19495   2.643   1.953   7.347 -0.8757 -1.6438  2.2174
  172SAPE  H10S19496   2.779   1.877   7.254  0.9959  1.0305  2.0220
  172SAPE  C21119497   2.667   1.730   7.358  0.0313  0.1075  0.5587
  172SAPE  H11R19498   2.621   1.642   7.310  1.0718 -0.1684  0.0463
  172SAPE  C21219499   2.734   1.699   7.475  0.2341 -0.9070  0.4688
  172SAPE  H12R19500   2.729   1.598   7.521  2.6410 -0.5509  1.6920
  172SAPE  C21319501   2.817   1.794   7.561 -0.5096  0.3685 -0.0416
  172SAPE  H13R19502   2.859   1.874   7.497 -2.5141  1.0130 -0.6282
  172SAPE  H13S19503   2.903   1.737   7.602 -1.4649 -0.5730  0.7325
  172SAPE  C21419504   2.740   1.852   7.677  1.3167  0.1274 -0.2167
  172SAPE  H14R19505   2.648   1.910   7.660  1.0156 -0.7810 -1.8648
  172SAPE  C21519506   2.786   1.846   7.804  1.2022  0.6453  0.2095
  172SAPE  H15R19507   2.728   1.898   7.882  0.9914  0.9336 -0.1330
  172SAPE  C21619508   2.909   1.786   7.858 -0.4196  0.0548 -0.7836
  172SAPE  H16R19509   2.988   1.865   7.852 -1.9202  1.6753 -0.0590
  172SAPE  H16S19510   2.928   1.697   7.795 -2.5479 -1.5197  0.6901
  172SAPE  C21719511   2.896   1.748   8.008  0.4072  1.3898  0.0964
  172SAPE  H17R19512   2.981   1.678   8.017  0.3133  1.1338 -0.8516
  172SAPE  H17S19513   2.817   1.672   8.030  0.4141  0.3084 -3.0590
  172SAPE  C21819514   2.885   1.871   8.099 -0.0523 -0.0443 -0.3790
  172SAPE  H18R19515   2.793   1.924   8.068  0.3399  0.9408  0.0882
  172SAPE  H18S19516   2.971   1.937   8.071 -2.4693  2.8734 -1.5115
  172SAPE  C21919517   2.892   1.841   8.253 -0.0117 -1.0207  0.0853
  172SAPE  H19R19518   2.980   1.774   8.263  1.9792  1.4894  0.5316
  172SAPE  H19S19519   2.811   1.777   8.295 -0.0378 -0.2275  1.2972
  172SAPE  C22019520   2.910   1.962   8.348 -0.3049 -0.2606 -0.3875
  172SAPE  H20R19521   3.001   2.021   8.325 -1.2163  1.2906 -0.1493
  172SAPE  H20S19522   2.923   1.937   8.456 -0.4871 -0.0568 -0.3162
  172SAPE  H20T19523   2.824   2.033   8.346 -0.4097 -0.3845 -3.2191
  172SAPE   C3319524   3.248   1.691   6.899 -0.7286  0.1920  0.8107
  172SAPE   H3X19525   3.294   1.791   6.887  0.0884 -0.1685  0.8805
  172SAPE   H3Y19526   3.326   1.613   6.905  0.1030  0.7894 -1.4402
  172SAPE   C3419527   3.169   1.698   7.032 -0.0333 -0.6253 -0.1856
  172SAPE   H4X19528   3.138   1.598   7.068  2.2322 -1.2086  0.3057
  172SAPE   H4Y19529   3.072   1.749   7.013 -0.8006 -2.5079 -1.6521
  172SAPE   C3519530   3.258   1.758   7.142  0.1938  0.8035 -0.2150
  172SAPE   H5X19531   3.286   1.861   7.112 -0.5705  0.4920 -2.1779
  172SAPE   H5Y19532   3.351   1.698   7.146 -0.6052 -0.4324  0.6396
  172SAPE   C3619533   3.183   1.768   7.275  0.2216  0.3883 -0.5508
  172SAPE   H6X19534   3.142   1.669   7.307 -1.5800  1.6950  1.5122
  172SAPE   H6Y19535   3.094   1.834   7.266 -1.9655 -2.3695 -0.6581
  172SAPE   C3719536   3.287   1.801   7.380  0.3117 -0.6545 -0.1527
  172SAPE   H7X19537   3.313   1.909   7.383 -0.4681 -0.4457 -0.6618
  172SAPE   H7Y19538   3.376   1.736   7.366 -0.5323 -1.6101 -1.2440
  172SAPE   C3819539   3.233   1.772   7.529 -0.8615 -0.3268  0.1942
  172SAPE   H8X19540   3.206   1.664   7.530 -0.4928 -0.4199  0.1858
  172SAPE   H8Y19541   3.145   1.834   7.556 -0.9453 -0.9413  1.3629
  172SAPE   C3919542   3.331   1.786   7.645  0.2229 -0.3563  0.4336
  172SAPE   H9X19543   3.394   1.877   7.654  0.5036 -0.5725  0.6955
  172SAPE   H9Y19544   3.405   1.704   7.629 -0.3969 -0.8257 -0.0714
  172SAPE  C31019545   3.271   1.761   7.786  0.2138 -0.0102 -0.1933
  172SAPE  H10X19546   3.184   1.693   7.780  0.6932 -0.9868  2.4686
  172SAPE  H10Y19547   3.232   1.856   7.829 -0.6367  0.1005 -1.1741
  172SAPE  C31119548   3.374   1.695   7.883  0.4237  0.3849  0.0710
  172SAPE  H11X19549   3.459   1.764   7.897  0.6565  0.4629 -1.4857
  172SAPE  H11Y19550   3.414   1.600   7.841 -0.1073  0.2696 -0.1879
  172SAPE  C31219551   3.313   1.654   8.014 -0.1558 -0.0340 -1.0817
  172SAPE  H12X19552   3.381   1.597   8.081 -3.2573 -0.2303  2.2479
  172SAPE  H12Y19553   3.230   1.583   7.995 -0.0975 -0.2715 -0.4958
  172SAPE  C31319554   3.268   1.774   8.106 -0.6650 -0.1369 -1.3172
  172SAPE  H13X19555   3.182   1.739   8.166 -1.3993  0.5349 -1.9537
  172SAPE  H13Y19556   3.236   1.864   8.049  2.4773  1.3351 -0.9848
  172SAPE  C31419557   3.385   1.828   8.198  0.4090  0.0574  0.9003
  172SAPE  H14X19558   3.435   1.903   8.133 -0.9614  1.0479  0.9606
  172SAPE  H14Y19559   3.446   1.740   8.228 -1.8894 -1.2275  2.1368
  172SAPE  C31519560   3.334   1.894   8.325  1.0024  0.5836  0.1629
  172SAPE  H15X19561   3.410   1.892   8.406 -0.6755  1.4388  1.8327
  172SAPE  H15Y19562   3.257   1.825   8.368  1.5062  1.0107  1.8144
  172SAPE  C31619563   3.285   2.036   8.318  0.2557  0.2672  0.4800
  172SAPE  H16X19564   3.186   2.032   8.268  0.8430 -1.4997 -0.6438
  172SAPE  H16Y19565   3.350   2.106   8.262 -0.2881 -0.2560 -0.8387
  172SAPE  C31719566   3.271   2.101   8.459 -0.3921 -0.6498 -0.3892
  172SAPE  H17X19567   3.367   2.082   8.511 -0.1946  1.5339  0.1431
  172SAPE  H17Y19568   3.194   2.046   8.517 -0.3911  0.1799  0.4090
  172SAPE  C31819569   3.223   2.252   8.453  1.5778  0.4464  0.3809
  172SAPE  H18X19570   3.300   2.315   8.403  0.7504  0.8420 -0.4195
  172SAPE  H18Y19571   3.197   2.281   8.557  0.8297  1.2221 -0.0115
  172SAPE  H18Z19572   3.133   2.248   8.388  1.1521 -0.5268  1.0145
  173SOPE     N19573   3.561   1.624  11.005 -0.5822 -0.2495  0.6866
  173SOPE   HN119574   3.533   1.538  11.058 -1.7164  0.1886  0.8187
  173SOPE   HN219575   3.635   1.677  11.056 -0.2798  0.5474 -0.5388
  173SOPE   HN319576   3.478   1.681  10.982  0.1334  1.3826  1.9297
  173SOPE   C1219577   3.614   1.579  10.872  0.4140 -0.1550  0.6272
  173SOPE  H12A19578   3.632   1.672  10.814  0.3904 -2.6013 -3.7401
  173SOPE  H12B19579   3.532   1.527  10.819  0.2077  1.7753 -1.0453
  173SOPE   C1119580   3.745   1.501  10.874  0.1355  0.4061  0.0857
  173SOPE  H11A19581   3.821   1.562  10.927  0.1155  0.5437 -0.0428
  173SOPE  H11B19582   3.772   1.488  10.767 -1.6849 -0.0321 -0.3674
  173SOPE     P19583   3.856   1.297  10.997  0.1917  0.1390  0.2292
  173SOPE   O1319584   3.823   1.163  11.059  0.5107 -0.3122 -0.4234
  173SOPE   O1419585   3.943   1.386  11.076  0.3211 -0.1908 -0.4114
  173SOPE   O1219586   3.726   1.375  10.947 -0.0971  0.1828  0.0223
  173SOPE   O1119587   3.938   1.275  10.866 -0.2963 -0.0693 -0.9217
  173SOPE    C119588   3.884   1.201  10.757 -0.0363 -0.1267  0.0143
  173SOPE    HA19589   3.779   1.237  10.741 -0.1646 -0.3479  0.3689
  173SOPE    HB19590   3.880   1.097  10.795 -2.9098 -0.2630 -0.4348
  173SOPE    C219591   3.969   1.222  10.637 -0.7714  0.2149  0.7439
  173SOPE    HS19592   4.064   1.184  10.681 -0.3786  1.2494  0.8157
  173SOPE   O2119593   3.967   1.368  10.616  0.3385 -0.4494  0.6209
  173SOPE   C2119594   4.085   1.424  10.634  0.0657 -0.3088  0.0225
  173SOPE   O2219595   4.192   1.368  10.659  0.4952  0.1607 -0.2229
  173SOPE   C2219596   4.070   1.572  10.596 -0.4055  0.4949 -0.1347
  173SOPE   H2R19597   4.087   1.641  10.681 -0.9184 -1.2241  1.4219
  173SOPE   H2S19598   3.964   1.585  10.566 -0.7934 -0.6712  0.6308
  173SOPE    C319599   3.922   1.149  10.509  0.2242 -0.6142  0.3554
  173SOPE    HX19600   3.997   1.157  10.427  0.5673  1.6599  0.8216
  173SOPE    HY19601   3.826   1.197  10.480  0.8329 -0.2637 -1.1654
  173SOPE   O3119602   3.917   1.005  10.534 -0.6277 -0.7706 -0.3128
  173SOPE   C3119603   3.800   0.942  10.538 -0.0336 -0.3869  0.7449
  173SOPE   O3219604   3.691   0.990  10.551  0.3351 -0.8674 -0.0336
  173SOPE   C3219605   3.825   0.801  10.528 -0.5883  0.4118  0.2725
  173SOPE   H2X19606   3.741   0.756  10.585 -1.4018 -0.0021 -1.2061
  173SOPE   H2Y19607   3.921   0.776  10.580  1.1039 -0.8745 -3.1522
  173SOPE   C2319608   4.150   1.606  10.470  0.6909  0.1731  0.0715
  173SOPE   H3R19609   4.256   1.576  10.474  0.7691  0.3353 -0.5330
  173SOPE   H3S19610   4.150   1.710  10.431 -0.8053 -0.2093 -1.0769
  173SOPE   C2419611   4.081   1.531  10.348  0.9228  0.2003  0.1895
  173SOPE   H4R19612   4.060   1.424  10.371 -0.8191  0.8326  1.8216
  173SOPE   H4S19613   3.986   1.583  10.321  1.2066  0.8824  0.5108
  173SOPE   C2519614   4.164   1.552  10.220  0.4948  0.1395  0.3300
  173SOPE   H5R19615   4.150   1.659  10.193 -2.5830 -0.1503  0.4575
  173SOPE   H5S19616   4.270   1.523  10.236  1.6648  3.6626 -0.2113
  173SOPE   C2619617   4.103   1.464  10.107 -0.1655  0.2361 -0.6959
  173SOPE   H6R19618   3.995   1.487  10.099 -0.8659 -3.1036 -2.3680
  173SOPE   H6S19619   4.150   1.496  10.011  0.8714 -0.8281 -0.5713
  173SOPE   C2719620   4.121   1.312  10.120 -1.5977  0.0253  0.5529
  173SOPE   H7R19621   4.229   1.285  10.117 -1.6163 -0.0765  0.8008
  173SOPE   H7S19622   4.095   1.269  10.219 -1.5331 -0.2994  0.4317
  173SOPE   C2819623   4.068   1.225  10.000  0.1839  0.0346  0.1836
  173SOPE   H8R19624   3.960   1.208  10.016  0.1231 -0.5722 -0.7833
  173SOPE   H8S19625   4.083   1.285   9.908  1.8402  0.9170  0.9755
  173SOPE   C2919626   4.137   1.095   9.980  0.3140  0.0018  0.1291
  173SOPE   H9119627   4.139   1.028  10.067  0.5202  2.7844  2.3945
  173SOPE  C21019628   4.198   1.052   9.867 -0.2264 -0.1108  0.7936
  173SOPE  H10119629   4.235   0.948   9.863  0.3069  0.0889  0.3973
  173SOPE  C21119630   4.212   1.127   9.740 -0.3239  0.2003  0.1933
  173SOPE  H11R19631   4.311   1.175   9.729 -1.0455  1.1769 -3.3614
  173SOPE  H11S19632   4.143   1.213   9.733 -3.9418 -2.0705  3.6923
  173SOPE  C21219633   4.190   1.025   9.621  0.1374 -1.1793 -0.1451
  173SOPE  H12R19634   4.108   0.955   9.647 -0.6242  0.3118  1.7209
  173SOPE  H12S19635   4.282   0.962   9.614  0.7290 -0.5922  1.7126
  173SOPE  C21319636   4.146   1.084   9.484 -0.1004  0.1884 -0.4918
  173SOPE  H13R19637   4.063   1.158   9.490  0.6305  0.8944  1.4446
  173SOPE  H13S19638   4.116   0.997   9.422  1.8335 -1.9250  1.3802
  173SOPE  C21419639   4.264   1.147   9.404 -0.1814 -0.2779 -0.4449
  173SOPE  H14R19640   4.347   1.073   9.412  1.0498  0.9865 -0.9216
  173SOPE  H14S19641   4.300   1.245   9.443  0.5978 -0.5894 -0.3697
  173SOPE  C21519642   4.251   1.156   9.253  0.9263 -0.4049  0.3427
  173SOPE  H15R19643   4.204   1.062   9.218 -3.0195 -0.3943  4.7539
  173SOPE  H15S19644   4.346   1.176   9.199  1.3148  1.6129  1.6461
  173SOPE  C21619645   4.156   1.272   9.213  0.1767  0.6830 -0.3379
  173SOPE  H16R19646   4.196   1.352   9.279  0.9748 -2.4020  3.2400
  173SOPE  H16S19647   4.054   1.243   9.245  0.9795 -1.7932  0.1944
  173SOPE  C21719648   4.153   1.311   9.063 -0.0217  0.2439  0.6134
  173SOPE  H17R19649   4.250   1.363   9.048  0.6228 -1.0072  0.3801
  173SOPE  H17S19650   4.064   1.377   9.053  0.7371  1.1880 -0.0854
  173SOPE  C21819651   4.133   1.196   8.975 -0.5259  0.0477  0.3890
  173SOPE  H18R19652   4.117   1.245   8.877  1.2571  2.7833  1.3782
  173SOPE  H18S19653   4.042   1.136   8.997 -0.3254 -0.3900  0.0470
  173SOPE  H18T19654   4.229   1.140   8.981  0.4512  1.6037 -0.2543
  173SOPE   C3319655   3.817   0.744  10.384 -0.5425  1.2483 -0.1718
  173SOPE   H3X19656   3.848   0.637  10.382  1.0085  1.6306 -3.7785
  173SOPE   H3Y19657   3.896   0.792  10.324  0.3070 -0.4752 -0.4928
  173SOPE   C3419658   3.679   0.753  10.318  0.1332 -0.1601  0.3297
  173SOPE   H4X19659   3.655   0.857  10.288  2.4582 -0.5105 -3.3928
  173SOPE   H4Y19660   3.609   0.719  10.396  1.5067 -1.2910  1.1167
  173SOPE   C3519661   3.652   0.676  10.193  0.0190  0.0702 -0.3710
  173SOPE   H5X19662   3.545   0.676  10.162 -0.2547  1.0307  0.5195
  173SOPE   H5Y19663   3.678   0.569  10.208  2.5576  0.3876 -1.9309
  173SOPE   C3619664   3.735   0.718  10.076 -0.2784 -0.5744  0.1992
  173SOPE   H6X19665   3.840   0.696  10.106  0.2402  2.1576  0.6356
  173SOPE   H6Y19666   3.731   0.829  10.079  1.5832 -0.4887  0.8292
  173SOPE   C3719667   3.698   0.678   9.941 -0.2934  0.1792  1.2212
  173SOPE   H7X19668   3.605   0.731   9.911 -0.3767 -1.2984 -1.4177
  173SOPE   H7Y19669   3.671   0.571   9.943 -2.3659  0.6195 -0.0254
  173SOPE   C3819670   3.802   0.720   9.833  0.4409 -0.2414 -0.2048
  173SOPE   H8X19671   3.899   0.665   9.844 -0.4110 -1.7375  0.1358
  173SOPE   H8Y19672   3.810   0.827   9.861 -1.1066 -0.0127 -0.5434
  173SOPE   C3919673   3.751   0.723   9.690  0.2699 -0.2934 -0.3771
  173SOPE   H9X19674   3.672   0.802   9.686  0.9225  0.4131  0.2381
  173SOPE   H9Y19675   3.723   0.620   9.659 -0.7312  0.4859 -2.2239
  173SOPE  C31019676   3.855   0.768   9.587  0.5376 -0.8631  0.2466
  173SOPE  H10X19677   3.936   0.694   9.600  1.1166  0.0479  2.2807
  173SOPE  H10Y19678   3.911   0.860   9.616  2.4822 -1.5304 -1.1711
  173SOPE  C31119679   3.807   0.767   9.438 -0.9369  0.6605 -0.2237
  173SOPE  H11X19680   3.711   0.817   9.413  0.2699  1.5551 -3.7582
  173SOPE  H11Y19681   3.782   0.664   9.405 -0.9718  1.2404 -2.1362
  173SOPE  C31219682   3.909   0.828   9.344 -0.5314 -0.4287  0.3198
  173SOPE  H12X19683   4.004   0.771   9.353 -0.0514  0.6589  2.6759
  173SOPE  H12Y19684   3.929   0.933   9.371 -0.1042  0.3423 -2.6360
  173SOPE  C31319685   3.868   0.817   9.190 -0.7907 -0.0704 -0.2148
  173SOPE  H13X19686   3.771   0.872   9.190 -2.4336 -2.6529  2.3315
  173SOPE  H13Y19687   3.864   0.707   9.173  2.7468 -0.7387  2.0511
  173SOPE  C31419688   3.971   0.868   9.092 -0.5620 -0.4116 -0.4923
  173SOPE  H14X19689   4.071   0.820   9.102  0.6445  2.0644  0.2330
  173SOPE  H14Y19690   3.990   0.977   9.107 -2.4489 -0.1695  0.4146
  173SOPE  C31519691   3.928   0.838   8.953  0.1046 -0.0219 -0.1742
  173SOPE  H15X19692   3.923   0.731   8.923 -1.2428  0.3838 -1.5521
  173SOPE  H15Y19693   4.003   0.892   8.891 -0.1904  0.6364  0.0312
  173SOPE  C31619694   3.785   0.878   8.922  1.1995  0.8294 -0.1589
  173SOPE  H16X19695   3.756   0.981   8.951  1.8633  0.7549  0.7794
  173SOPE  H16Y19696   3.715   0.804   8.965  2.3791 -0.8143 -0.9614
  173SOPE  C31719697   3.761   0.876   8.771 -0.7276  0.1689  0.6682
  173SOPE  H17X19698   3.839   0.942   8.728 -0.8923  0.2281  0.4557
  173SOPE  H17Y19699   3.663   0.922   8.743 -0.8923  0.1774  1.2503
  173SOPE  C31819700   3.774   0.737   8.701  0.4446 -0.3498 -0.3299
  173SOPE  H18X19701   3.770   0.745   8.590 -0.6541 -2.7832 -0.5351
  173SOPE  H18Y19702   3.693   0.669   8.735  0.5826  0.3036  1.4096
  173SOPE  H18Z19703   3.867   0.679   8.722  0.7729 -0.0942 -1.0506
  174SOPE     N19704   3.161   6.487  10.528  0.3719 -0.2122 -0.2230
  174SOPE   HN119705   3.251   6.505  10.481 -0.4311  0.3510 -1.6023
  174SOPE   HN219706   3.099   6.421  10.475 -0.5113 -0.3687  0.9526
  174SOPE   HN319707   3.111   6.576  10.546  0.6766 -0.3243  1.3184
  174SOPE   C1219708   3.161   6.411  10.663 -0.4307 -0.3641 -0.0224
  174SOPE  H12A19709   3.230   6.464  10.733 -2.8103  1.3625  1.1951
  174SOPE  H12B19710   3.209   6.313  10.643  1.8472  0.2139  2.0491
  174SOPE   C1119711   3.014   6.401  10.709  0.3719 -0.5028 -0.0461
  174SOPE  H11A19712   3.010   6.314  10.779  0.3026  0.8473  1.6887
  174SOPE  H11B19713   2.948   6.387  10.621  1.9386 -0.1653 -1.2948
  174SOPE     P19714   2.923   6.656  10.715 -0.5896 -0.0151  0.0408
  174SOPE   O1319715   3.013   6.690  10.603 -0.7418 -0.1215  0.2120
  174SOPE   O1419716   2.910   6.752  10.825  0.9376  0.3499  0.5055
  174SOPE   O1219717   2.988   6.525  10.779  0.0137  0.0424 -0.4464
  174SOPE   O1119718   2.791   6.593  10.663  0.0484  0.8723  0.8874
  174SOPE    C119719   2.671   6.668  10.638  0.0829 -0.2791 -0.4064
  174SOPE    HA19720   2.670   6.764  10.693 -2.2976  0.4738 -1.5964
  174SOPE    HB19721   2.590   6.611  10.688  1.8401 -3.2624 -0.7358
  174SOPE    C219722   2.634   6.683  10.488 -0.4399  0.0968 -0.5766
  174SOPE    HS19723   2.530   6.718  10.504  0.1325  0.7682  2.0045
  174SOPE   O2119724   2.640   6.558  10.419  0.0175 -0.0738 -0.1033
  174SOPE   C2119725   2.544   6.471  10.451 -0.0906 -0.1912  0.9206
  174SOPE   O2219726   2.450   6.487  10.523  0.3404 -0.6774  0.3819
  174SOPE   C2219727   2.571   6.345  10.372  0.2143 -0.4693  0.3799
  174SOPE   H2R19728   2.578   6.262  10.446  2.9771 -0.2295  0.4841
  174SOPE   H2S19729   2.674   6.350  10.331  0.3063 -1.1509  0.5161
  174SOPE    C319730   2.727   6.791  10.424 -0.4667 -0.2337 -0.2482
  174SOPE    HX19731   2.826   6.748  10.397 -0.6285 -0.8089  0.0702
  174SOPE    HY19732   2.758   6.869  10.498  3.6211  0.2097 -2.1240
  174SOPE   O3119733   2.657   6.856  10.319  0.0664  0.0774 -0.6992
  174SOPE   C3119734   2.690   6.806  10.200  0.0559 -0.7867  0.1134
  174SOPE   O3219735   2.760   6.716  10.171 -0.1719  0.3505 -0.5892
  174SOPE   C3219736   2.611   6.874  10.087  0.0252 -0.4445  0.9226
  174SOPE   H2X19737   2.591   6.973  10.133  0.6272  0.0409  0.1715
  174SOPE   H2Y19738   2.523   6.813  10.058 -0.8410  1.1525  0.0476
  174SOPE   C2319739   2.469   6.307  10.268  0.1698 -0.4798  0.1522
  174SOPE   H3R19740   2.364   6.318  10.301  0.2655  0.0575  0.2807
  174SOPE   H3S19741   2.471   6.196  10.263  0.7144 -0.4861  0.3837
  174SOPE   C2419742   2.489   6.364  10.124 -0.0496  0.1431 -0.4407
  174SOPE   H4R19743   2.595   6.348  10.097  0.7634  4.5279 -0.5808
  174SOPE   H4S19744   2.428   6.302  10.054 -1.3203 -0.4894  1.1590
  174SOPE   C2519745   2.461   6.507  10.106  0.3222 -0.3337 -0.0900
  174SOPE   H5R19746   2.359   6.537  10.136 -0.3864 -1.3504 -1.3725
  174SOPE   H5S19747   2.536   6.560  10.169  0.0884  0.6503 -0.6151
  174SOPE   C2619748   2.469   6.541   9.954 -0.5899  0.3419 -0.3057
  174SOPE   H6R19749   2.390   6.477   9.909  0.6407 -1.3937 -0.0856
  174SOPE   H6S19750   2.432   6.645   9.946 -2.8167 -0.2862  0.9079
  174SOPE   C2719751   2.601   6.524   9.881 -0.1275  0.0759 -0.3421
  174SOPE   H7R19752   2.677   6.587   9.932 -1.8158  0.0345  2.4001
  174SOPE   H7S19753   2.634   6.418   9.884  1.1714  0.4827  0.3343
  174SOPE   C2819754   2.580   6.554   9.732 -0.3281  0.0208 -0.7149
  174SOPE   H8R19755   2.553   6.662   9.734 -0.9717 -0.1440  0.3612
  174SOPE   H8S19756   2.678   6.548   9.680  0.4702  1.7924  0.4695
  174SOPE   C2919757   2.478   6.470   9.657  1.6930  0.1935 -0.1838
  174SOPE   H9119758   2.374   6.476   9.693  0.9478  0.6259 -2.2613
  174SOPE  C21019759   2.504   6.388   9.560 -0.1861  0.4912  0.9982
  174SOPE  H10119760   2.416   6.337   9.516  0.0567  0.7765  0.1753
  174SOPE  C21119761   2.634   6.340   9.497 -0.4400 -0.6623 -0.2593
  174SOPE  H11R19762   2.646   6.231   9.514 -0.4537 -0.7423 -0.7355
  174SOPE  H11S19763   2.724   6.390   9.539 -0.5344  0.4263 -1.2750
  174SOPE  C21219764   2.641   6.356   9.344 -0.0611 -0.0179 -0.5942
  174SOPE  H12R19765   2.552   6.301   9.307 -0.6865  1.1730 -0.8919
  174SOPE  H12S19766   2.732   6.302   9.307  0.2261 -0.9218  1.3247
  174SOPE  C21319767   2.644   6.499   9.287 -0.2041  0.4400  0.0127
  174SOPE  H13R19768   2.724   6.560   9.335  0.1662  1.9062 -2.2817
  174SOPE  H13S19769   2.542   6.535   9.312 -0.5793 -1.1639  0.9378
  174SOPE  C21419770   2.662   6.514   9.135 -0.4359  0.1096 -0.1448
  174SOPE  H14R19771   2.602   6.434   9.086 -1.1122  0.2576  0.4384
  174SOPE  H14S19772   2.767   6.488   9.109 -0.3960  0.4433 -0.3215
  174SOPE  C21519773   2.634   6.652   9.072 -0.7505  0.8519  0.2569
  174SOPE  H15R19774   2.663   6.629   8.967 -0.9686 -2.0004  0.7448
  174SOPE  H15S19775   2.697   6.729   9.123 -0.3631  0.4464  0.3934
  174SOPE  C21619776   2.486   6.690   9.059  0.5077  0.5025  0.9259
  174SOPE  H16R19777   2.449   6.705   9.162 -0.7797  0.0539  0.5387
  174SOPE  H16S19778   2.417   6.620   9.008 -1.7428  1.7310  2.1278
  174SOPE  C21719779   2.469   6.819   8.981  0.3327  0.5872 -0.4710
  174SOPE  H17R19780   2.363   6.850   8.981  0.2730  0.3820 -0.0989
  174SOPE  H17S19781   2.506   6.788   8.880 -2.6842  1.1383 -1.8469
  174SOPE  C21819782   2.544   6.942   9.029 -0.5041 -0.5390  0.0545
  174SOPE  H18R19783   2.514   6.985   9.126  0.8798 -0.0500  0.2961
  174SOPE  H18S19784   2.536   7.025   8.956  0.5048  0.1115  0.6617
  174SOPE  H18T19785   2.647   6.902   9.047  0.1584  1.2036  0.2981
  174SOPE   C3319786   2.693   6.889   9.955 -0.5275 -0.2865 -0.2391
  174SOPE   H3X19787   2.742   6.793   9.932 -2.7274 -1.3784 -0.6736
  174SOPE   H3Y19788   2.771   6.968   9.962  1.1223 -1.2357 -4.7318
  174SOPE   C3419789   2.606   6.918   9.833  0.2214 -0.4335  0.2707
  174SOPE   H4X19790   2.553   7.012   9.858  0.8634  0.1629 -0.5480
  174SOPE   H4Y19791   2.534   6.834   9.820 -0.1995  0.0963 -1.0172
  174SOPE   C3519792   2.685   6.949   9.702  0.2014  0.6551 -0.5096
  174SOPE   H5X19793   2.690   6.851   9.652 -0.2611  0.4265 -0.1139
  174SOPE   H5Y19794   2.781   6.987   9.742 -0.4474  1.2880  0.4962
  174SOPE   C3619795   2.626   7.066   9.617  0.4227  0.2231 -0.9755
  174SOPE   H6X19796   2.599   7.138   9.697  1.9077 -2.1329  1.8555
  174SOPE   H6Y19797   2.530   7.040   9.568  0.6376 -0.3094 -1.1192
  174SOPE   C3719798   2.730   7.123   9.528  0.4722 -0.7998  0.0118
  174SOPE   H7X19799   2.775   7.038   9.472  0.5734 -0.3902 -0.5378
  174SOPE   H7Y19800   2.819   7.151   9.588  1.8571 -2.1999 -1.2916
  174SOPE   C3819801   2.675   7.236   9.443 -0.8812 -0.3177  0.0851
  174SOPE   H8X19802   2.757   7.299   9.402 -3.0610  2.2719 -0.5727
  174SOPE   H8Y19803   2.621   7.321   9.490  0.1093  1.4891 -1.8313
  174SOPE   C3919804   2.582   7.195   9.328  0.0241 -0.0241 -0.5172
  174SOPE   H9X19805   2.486   7.160   9.372  0.7469 -0.4242  0.8117
  174SOPE   H9Y19806   2.630   7.114   9.268  0.9968  0.2839 -0.1755
  174SOPE  C31019807   2.565   7.306   9.227  0.9106  0.0995 -0.0160
  174SOPE  H10X19808   2.665   7.347   9.202  1.3407 -1.6142 -1.2773
  174SOPE  H10Y19809   2.501   7.382   9.279 -0.9858 -1.4626  0.0551
  174SOPE  C31119810   2.494   7.270   9.093 -0.6872 -0.1667 -0.8490
  174SOPE  H11X19811   2.409   7.204   9.121 -0.5335 -0.3918 -0.9026
  174SOPE  H11Y19812   2.560   7.201   9.035 -0.2640 -2.3618  2.0077
  174SOPE  C31219813   2.462   7.382   9.000  0.0189  0.0984  0.1206
  174SOPE  H12X19814   2.550   7.443   8.970  1.3574 -1.1387  1.3116
  174SOPE  H12Y19815   2.391   7.453   9.047 -0.3796 -0.6583  0.6837
  174SOPE  C31319816   2.394   7.324   8.876 -0.2457 -0.1287  0.0759
  174SOPE  H13X19817   2.336   7.235   8.911 -1.9651  0.8228 -0.2242
  174SOPE  H13Y19818   2.476   7.303   8.805  2.0780  2.3160  1.8538
  174SOPE  C31419819   2.295   7.421   8.820  0.1524 -1.1812 -0.0489
  174SOPE  H14X19820   2.338   7.520   8.794 -1.1538 -0.6457 -0.2585
  174SOPE  H14Y19821   2.213   7.446   8.890  1.6145  1.6892  0.7528
  174SOPE  C31519822   2.210   7.364   8.702 -0.1753 -0.4635  0.3118
  174SOPE  H15X19823   2.132   7.297   8.743 -0.7251 -0.7939 -1.2013
  174SOPE  H15Y19824   2.275   7.293   8.646  0.5723  1.4998 -1.4268
  174SOPE  C31619825   2.150   7.461   8.601  0.0741 -0.5186 -0.4642
  174SOPE  H16X19826   2.225   7.518   8.542  2.1443 -2.3030  0.3118
  174SOPE  H16Y19827   2.098   7.541   8.657 -1.3833 -1.9398  0.2943
  174SOPE  C31719828   2.050   7.390   8.507 -0.3160  0.3145 -0.4040
  174SOPE  H17X19829   1.964   7.371   8.575  0.8016 -1.5229  0.6100
  174SOPE  H17Y19830   2.091   7.293   8.470 -0.0018  1.0165 -1.9570
  174SOPE  C31819831   2.016   7.488   8.394  0.1680 -0.4399  0.1553
  174SOPE  H18X19832   2.103   7.508   8.327  0.3682  1.4202  0.9206
  174SOPE  H18Y19833   1.991   7.587   8.438 -4.0005 -1.5114  0.5615
  174SOPE  H18Z19834   1.937   7.445   8.329  1.7378 -0.6560 -1.7001
  175SOPE     N19835   6.025   2.395  10.839  0.0114 -0.4817  0.3537
  175SOPE   HN119836   6.001   2.490  10.872 -0.4334 -0.1970 -0.7492
  175SOPE   HN219837   6.000   2.337  10.922 -1.9135 -0.5081 -0.2005
  175SOPE   HN319838   6.128   2.389  10.827  0.0531 -1.3783  1.0454
  175SOPE   C1219839   5.930   2.361  10.724  0.4705  0.0752  0.1058
  175SOPE  H12A19840   5.826   2.353  10.765  0.0760 -2.4199 -1.1808
  175SOPE  H12B19841   5.962   2.260  10.690 -1.0981  0.2014 -1.9577
  175SOPE   C1119842   5.936   2.469  10.613 -0.6223 -0.7156  0.0827
  175SOPE  H11A19843   5.874   2.440  10.526 -0.7913  0.0361 -0.0547
  175SOPE  H11B19844   6.040   2.472  10.575 -1.0128  2.6325 -1.0449
  175SOPE     P19845   5.776   2.682  10.619 -0.0105 -0.1211  0.1252
  175SOPE   O1319846   5.804   2.826  10.651  0.9963 -0.3115 -0.5701
  175SOPE   O1419847   5.652   2.625  10.673 -0.1428  0.3235 -0.0928
  175SOPE   O1219848   5.897   2.594  10.661 -0.1017  1.1119  0.0381
  175SOPE   O1119849   5.767   2.676  10.469 -0.5106 -0.4763  0.4281
  175SOPE    C119850   5.865   2.687  10.373  0.1119 -0.3001 -0.2776
  175SOPE    HA19851   5.865   2.599  10.306  1.7098  0.6659 -1.6437
  175SOPE    HB19852   5.966   2.695  10.418 -0.0434 -0.2500  0.0634
  175SOPE    C219853   5.836   2.805  10.272 -0.2190  0.1166  0.9933
  175SOPE    HS19854   5.818   2.891  10.341 -0.0828  0.9753 -0.0219
  175SOPE   O2119855   5.711   2.779  10.206 -0.0898  0.6450  0.1800
  175SOPE   C2119856   5.644   2.883  10.165  0.1994 -0.2153  0.1379
  175SOPE   O2219857   5.652   2.999  10.208 -0.2641  0.3962  0.6192
  175SOPE   C2219858   5.548   2.837  10.064 -0.2805 -0.1047 -0.1653
  175SOPE   H2R19859   5.494   2.927  10.029  0.2425  1.0516  1.8056
  175SOPE   H2S19860   5.470   2.781  10.120 -0.8068  1.0337  0.2667
  175SOPE    C319861   5.959   2.847  10.183 -0.0833  0.1914  0.0243
  175SOPE    HX19862   5.997   2.760  10.124  1.4830  1.5540 -1.0556
  175SOPE    HY19863   6.046   2.880  10.245 -0.1623  0.7690 -0.1697
  175SOPE   O3119864   5.937   2.952  10.087 -0.3741  0.1397  0.1306
  175SOPE   C3119865   6.046   3.006  10.031 -0.2084 -0.3700  0.4257
  175SOPE   O3219866   6.160   2.998  10.079 -0.2626  0.7440  0.5022
  175SOPE   C3219867   6.006   3.099   9.913  0.5273  0.3928  0.6311
  175SOPE   H2X19868   5.901   3.135   9.916  0.7618  1.1738 -0.0883
  175SOPE   H2Y19869   6.023   3.036   9.823  3.1631  2.4017 -0.4057
  175SOPE   C2319870   5.610   2.754   9.946 -0.1619 -0.1546 -0.7326
  175SOPE   H3R19871   5.521   2.707   9.898  0.1233 -0.3165 -1.1045
  175SOPE   H3S19872   5.666   2.670   9.993 -0.1365 -0.0697 -0.6112
  175SOPE   C2419873   5.697   2.826   9.846 -0.0960 -0.4203 -0.0038
  175SOPE   H4R19874   5.654   2.928   9.846 -0.1091 -0.4247 -0.3332
  175SOPE   H4S19875   5.799   2.834   9.891  0.7565  0.1894 -1.9240
  175SOPE   C2519876   5.698   2.759   9.707  0.4315  0.3408 -0.3480
  175SOPE   H5R19877   5.721   2.650   9.714 -0.6406  0.2215  2.7882
  175SOPE   H5S19878   5.597   2.761   9.660  0.7885 -0.1140 -1.1570
  175SOPE   C2619879   5.788   2.831   9.597  0.1473 -0.7864 -0.3074
  175SOPE   H6R19880   5.764   2.940   9.589  0.0040 -0.6331  1.8007
  175SOPE   H6S19881   5.896   2.822   9.623  0.3035 -1.4630 -1.1342
  175SOPE   C2719882   5.761   2.768   9.458  0.0163  0.0554  0.1596
  175SOPE   H7R19883   5.773   2.658   9.472  1.4951  0.1233 -0.3795
  175SOPE   H7S19884   5.652   2.784   9.454  0.0540  2.8633  4.2885
  175SOPE   C2819885   5.846   2.827   9.348 -0.8351  0.1083 -0.3748
  175SOPE   H8R19886   5.951   2.822   9.383 -1.1313  0.4001  0.5753
  175SOPE   H8S19887   5.843   2.757   9.262  1.0092 -0.1085 -0.3091
  175SOPE   C2919888   5.825   2.972   9.307  0.0772 -0.1790  0.2168
  175SOPE   H9119889   5.845   3.054   9.378  0.8572  1.0399 -1.3402
  175SOPE  C21019890   5.771   3.003   9.186  0.6666  0.6414  0.3236
  175SOPE  H10119891   5.764   3.104   9.146  0.3858  0.7007  0.5140
  175SOPE  C21119892   5.742   2.900   9.074  0.4492  0.1112  0.2016
  175SOPE  H11R19893   5.641   2.862   9.101  0.1859  0.6431 -0.0104
  175SOPE  H11S19894   5.812   2.814   9.076  2.8396  1.8914 -1.6841
  175SOPE  C21219895   5.743   2.955   8.934 -0.0075 -0.8934 -0.2713
  175SOPE  H12R19896   5.849   2.979   8.911 -0.7981  3.9358  0.0926
  175SOPE  H12S19897   5.692   3.053   8.923  0.5393 -0.3346  1.7540
  175SOPE  C21319898   5.681   2.857   8.838  0.0580  0.1114  0.2225
  175SOPE  H13R19899   5.579   2.837   8.878 -0.2793 -1.1145 -1.1594
  175SOPE  H13S19900   5.734   2.760   8.844 -1.1911 -0.5349  1.1711
  175SOPE  C21419901   5.675   2.909   8.696  0.3280 -0.9720 -0.4420
  175SOPE  H14R19902   5.776   2.932   8.657 -0.1826 -0.3713 -1.4571
  175SOPE  H14S19903   5.622   3.007   8.700  1.7089 -0.2430  0.7567
  175SOPE  C21519904   5.604   2.817   8.591  0.1651 -1.1705 -0.0876
  175SOPE  H15R19905   5.613   2.871   8.494 -1.0545 -1.4494 -0.3722
  175SOPE  H15S19906   5.496   2.808   8.617 -0.1986  1.0746 -0.6046
  175SOPE  C21619907   5.667   2.679   8.585  0.5642 -0.5245  0.7310
  175SOPE  H16R19908   5.615   2.605   8.649  0.1098 -1.7060 -0.9225
  175SOPE  H16S19909   5.774   2.680   8.615  0.3730 -0.7746  1.4338
  175SOPE  C21719910   5.658   2.626   8.440  0.4226 -0.0279 -0.3675
  175SOPE  H17R19911   5.692   2.703   8.367  0.7005 -1.3531 -1.6871
  175SOPE  H17S19912   5.549   2.608   8.430  0.6015 -0.7439 -1.1035
  175SOPE  C21819913   5.722   2.492   8.402  0.2441  0.9393 -0.9927
  175SOPE  H18R19914   5.825   2.502   8.361 -0.5685  1.6543 -2.9916
  175SOPE  H18S19915   5.654   2.443   8.329 -0.9788 -0.4436  0.9450
  175SOPE  H18T19916   5.723   2.420   8.487  0.7994  0.8380 -1.0826
  175SOPE   C3319917   6.113   3.208   9.874 -0.0828 -0.3453 -0.0443
  175SOPE   H3X19918   6.177   3.220   9.964  0.9354  2.5980 -1.0365
  175SOPE   H3Y19919   6.053   3.299   9.850 -1.0825 -1.0733 -0.3818
  175SOPE   C3419920   6.203   3.161   9.750 -0.2083  0.1768 -0.5660
  175SOPE   H4X19921   6.245   3.063   9.782 -1.5729 -0.1186  0.3672
  175SOPE   H4Y19922   6.285   3.233   9.727  2.1873 -2.1986 -0.0091
  175SOPE   C3519923   6.116   3.139   9.624  0.6425 -0.1907  0.2413
  175SOPE   H5X19924   6.015   3.184   9.617 -0.3892 -2.5984 -1.6546
  175SOPE   H5Y19925   6.096   3.030   9.629 -3.2625  0.4176  1.0175
  175SOPE   C3619926   6.196   3.184   9.500  0.4055  0.3676 -0.6626
  175SOPE   H6X19927   6.285   3.118   9.510 -0.3956 -0.9065 -1.6489
  175SOPE   H6Y19928   6.222   3.289   9.527  1.8490 -0.3292  0.8433
  175SOPE   C3719929   6.111   3.173   9.377 -0.0876  0.1215  0.0938
  175SOPE   H7X19930   6.010   3.217   9.375 -0.1530 -0.0506 -0.9279
  175SOPE   H7Y19931   6.087   3.066   9.362  0.1854  0.0134  0.3907
  175SOPE   C3819932   6.195   3.215   9.262 -0.1055 -0.5313 -0.5448
  175SOPE   H8X19933   6.296   3.169   9.274 -0.0307  0.1446  2.0289
  175SOPE   H8Y19934   6.208   3.325   9.270 -0.1466 -0.6380  1.8103
  175SOPE   C3919935   6.147   3.191   9.124  0.0225  0.2970  0.4725
  175SOPE   H9X19936   6.217   3.247   9.058 -2.8760  2.5558 -0.8863
  175SOPE   H9Y19937   6.048   3.238   9.110  0.0418  0.0538 -0.5051
  175SOPE  C31019938   6.150   3.039   9.082  0.7284  0.0974 -0.3242
  175SOPE  H10X19939   6.088   2.970   9.142  0.3171  0.7867  0.0446
  175SOPE  H10Y19940   6.255   3.002   9.094  0.3776 -0.9097 -0.2883
  175SOPE  C31119941   6.119   3.028   8.928  0.4480  0.9043 -0.1844
  175SOPE  H11X19942   6.205   3.076   8.878  1.2231  0.2983  0.5351
  175SOPE  H11Y19943   6.035   3.087   8.886  1.2312  1.3633 -1.1242
  175SOPE  C31219944   6.117   2.878   8.892  0.2724 -0.1070 -0.1522
  175SOPE  H12X19945   6.023   2.829   8.923 -0.1200 -1.8263 -3.6290
  175SOPE  H12Y19946   6.203   2.829   8.943 -1.2305 -0.2234  2.4157
  175SOPE  C31319947   6.139   2.865   8.740  0.2241  0.1497 -0.2571
  175SOPE  H13X19948   6.242   2.896   8.714  0.3798 -0.2435 -0.1242
  175SOPE  H13Y19949   6.077   2.936   8.681 -0.2415 -0.4952 -0.5598
  175SOPE  C31419950   6.108   2.725   8.682 -0.3648 -0.5427  0.2969
  175SOPE  H14X19951   6.102   2.740   8.572 -0.4007 -1.7590  0.1204
  175SOPE  H14Y19952   6.012   2.677   8.712  0.0735 -0.2852  2.2975
  175SOPE  C31519953   6.212   2.620   8.723 -0.0744 -0.1073 -0.2452
  175SOPE  H15X19954   6.228   2.594   8.829 -1.2924 -0.7417 -0.1996
  175SOPE  H15Y19955   6.316   2.640   8.688  0.3562 -1.2768  0.3342
  175SOPE  C31619956   6.177   2.493   8.647 -0.2332 -0.7524  0.0920
  175SOPE  H16X19957   6.224   2.484   8.547 -0.4131  0.2651 -0.0991
  175SOPE  H16Y19958   6.067   2.485   8.631  0.0959 -0.6444 -2.5486
  175SOPE  C31719959   6.218   2.362   8.721 -0.0457  0.4145  0.2536
  175SOPE  H17X19960   6.191   2.278   8.653 -0.1212  2.2827 -2.1871
  175SOPE  H17Y19961   6.149   2.350   8.808 -0.9088 -0.5956 -0.5439
  175SOPE  C31819962   6.368   2.359   8.751  0.4053 -0.5840  0.2483
  175SOPE  H18X19963   6.420   2.381   8.655 -0.1519 -4.2616 -1.0762
  175SOPE  H18Y19964   6.386   2.257   8.793 -0.3677 -1.2959 -1.0765
  175SOPE  H18Z19965   6.393   2.440   8.822 -1.0187 -0.1692  0.3132
  176SOPE     N19966   4.903   0.823  10.804 -0.1082 -0.1752 -0.1630
  176SOPE   HN119967   5.002   0.853  10.809 -0.0306 -0.5105  0.4162
  176SOPE   HN219968   4.878   0.816  10.703  1.0800  2.1447 -0.6800
  176SOPE   HN319969   4.840   0.896  10.844 -0.4837  0.0662 -1.1647
  176SOPE   C1219970   4.893   0.693  10.864  0.4573 -0.7193 -0.4239
  176SOPE  H12A19971   4.783   0.678  10.871  0.1745  1.5267  1.0432
  176SOPE  H12B19972   4.920   0.701  10.971 -1.2719 -1.6154  0.1265
  176SOPE   C1119973   4.957   0.578  10.783  0.1935  0.4976 -0.2591
  176SOPE  H11A19974   4.916   0.574  10.679 -1.4609 -0.5484  0.3873
  176SOPE  H11B19975   4.925   0.489  10.842  0.0817  1.8382  1.7880
  176SOPE     P19976   5.202   0.553  10.880 -0.1734 -0.1431  0.2053
  176SOPE   O1319977   5.140   0.586  11.012  0.3233  0.4188 -0.4041
  176SOPE   O1419978   5.328   0.616  10.850 -0.0889 -0.1125  0.2394
  176SOPE   O1219979   5.099   0.584  10.768 -0.4652 -0.7838  0.0210
  176SOPE   O1119980   5.215   0.399  10.885  0.6273 -0.6560 -0.3513
  176SOPE    C119981   5.270   0.322  10.782 -0.1014  0.1236 -0.1834
  176SOPE    HA19982   5.288   0.221  10.825 -4.7180 -1.3822 -1.1580
  176SOPE    HB19983   5.369   0.365  10.757 -0.1213  0.2060 -0.1219
  176SOPE    C219984   5.182   0.314  10.661  0.3188 -0.0258 -0.0674
  176SOPE    HS19985   5.173   0.415  10.615 -1.6420 -0.1460 -0.0127
  176SOPE   O2119986   5.062   0.248  10.694 -0.0313  0.4400  0.4237
  176SOPE   C2119987   4.962   0.270  10.606 -0.4001 -0.0169 -0.1035
  176SOPE   O2219988   4.959   0.343  10.510  0.4951 -0.1038 -0.1004
  176SOPE   C2219989   4.856   0.164  10.640  0.6585  0.0977 -0.5665
  176SOPE   H2R19990   4.830   0.187  10.746  0.8288  0.8433 -0.6815
  176SOPE   H2S19991   4.909   0.067  10.641  0.1245 -0.2144  0.9358
  176SOPE    C319992   5.248   0.225  10.551  0.0735  0.3453  0.6506
  176SOPE    HX19993   5.282   0.125  10.586  2.2986 -0.0490 -2.2528
  176SOPE    HY19994   5.344   0.278  10.535 -0.4380  1.2055  0.3371
  176SOPE   O3119995   5.182   0.194  10.427 -0.3306 -0.1541 -0.9750
  176SOPE   C3119996   5.194   0.288  10.333 -0.5899  0.1283 -0.1473
  176SOPE   O3219997   5.257   0.395  10.348  0.2089  0.2236 -0.0771
  176SOPE   C3219998   5.132   0.232  10.202  0.4167  0.4741 -0.1372
  176SOPE   H2X19999   5.023   0.220  10.223  0.2178  0.5329 -1.0834
  176SOPE   H2Y20000   5.189   0.137  10.192  2.7575  1.3526  3.2218
  176SOPE   C2320001   4.729   0.159  10.562  0.4176 -0.1667 -0.0736
  176SOPE   H3R20002   4.708   0.268  10.552  0.2357 -0.2032 -0.0990
  176SOPE   H3S20003   4.645   0.107  10.614  1.1554 -1.2908  0.0382
  176SOPE   C2420004   4.737   0.105  10.425 -0.0722  0.4653  0.0178
  176SOPE   H4R20005   4.662   0.152  10.358 -0.7905 -2.2855 -1.2712
  176SOPE   H4S20006   4.829   0.126  10.367 -1.1385 -0.0972 -1.9986
  176SOPE   C2520007   4.715  -0.045  10.412  0.0470 -0.3339 -0.1909
  176SOPE   H5R20008   4.771  -0.094  10.494  0.3669  0.6002  0.1639
  176SOPE   H5S20009   4.609  -0.055  10.444  0.3039  0.6155  1.0547
  176SOPE   C2620010   4.755  -0.110  10.284 -0.4584 -0.5271  0.3534
  176SOPE   H6R20011   4.866  -0.099  10.277 -0.4093 -1.0189  0.2697
  176SOPE   H6S20012   4.749  -0.221  10.287 -1.3843 -0.4666  1.0134
  176SOPE   C2720013   4.671  -0.053  10.168 -0.6116 -0.0141 -0.6856
  176SOPE   H7R20014   4.561  -0.069  10.176 -0.2902 -1.9258  0.5423
  176SOPE   H7S20015   4.687   0.057  10.169  0.3905 -0.1497 -0.3772
  176SOPE   C2820016   4.729  -0.096  10.029 -0.4817 -0.0053 -0.3718
  176SOPE   H8R20017   4.712  -0.022   9.948 -2.6086 -0.1930 -0.1344
  176SOPE   H8S20018   4.840  -0.098  10.033 -0.4678  1.2354  0.2329
  176SOPE   C2920019   4.681  -0.222   9.965  0.0396  0.2500  0.2870
  176SOPE   H9120020   4.652  -0.299  10.037  1.0346  1.4620  2.0727
  176SOPE  C21020021   4.688  -0.245   9.833  0.6811 -0.2433  0.6378
  176SOPE  H10120022   4.671  -0.343   9.787  1.8087  0.4018 -1.2563
  176SOPE  C21120023   4.734  -0.152   9.716  0.1268 -0.1348 -0.5006
  176SOPE  H11R20024   4.826  -0.096   9.743 -1.6990  3.0800 -0.4355
  176SOPE  H11S20025   4.665  -0.066   9.699  2.4912  2.3666  1.4917
  176SOPE  C21220026   4.732  -0.229   9.588  0.1514 -0.9969 -0.3537
  176SOPE  H12R20027   4.729  -0.150   9.511 -4.1629  1.1350  1.6354
  176SOPE  H12S20028   4.643  -0.296   9.590 -1.8403  1.4926  1.7211
  176SOPE  C21320029   4.858  -0.322   9.570  0.3825 -0.3900 -0.4751
  176SOPE  H13R20030   4.846  -0.410   9.637 -0.8095 -0.8033 -1.1893
  176SOPE  H13S20031   4.943  -0.256   9.598  0.2742 -0.5156  0.1531
  176SOPE  C21420032   4.858  -0.363   9.420 -0.0941  0.3910  0.0344
  176SOPE  H14R20033   4.760  -0.404   9.388 -0.4046  1.4336 -0.3575
  176SOPE  H14S20034   4.941  -0.437   9.423 -0.7323 -0.3752 -0.4723
  176SOPE  C21520035   4.912  -0.247   9.327 -0.3818  0.1608  0.3172
  176SOPE  H15R20036   5.008  -0.225   9.378  0.5665 -0.3424 -1.2117
  176SOPE  H15S20037   4.841  -0.163   9.338 -0.2096  0.4932 -1.0149
  176SOPE  C21620038   4.929  -0.292   9.183  0.0154 -0.1112  0.8206
  176SOPE  H16R20039   4.971  -0.395   9.188 -1.0855 -0.5350  1.6958
  176SOPE  H16S20040   4.977  -0.207   9.129  0.0768 -0.5981  0.1040
  176SOPE  C21720041   4.798  -0.305   9.115 -0.5095 -0.5284 -0.5261
  176SOPE  H17R20042   4.721  -0.345   9.184 -1.0982  0.0820 -0.8210
  176SOPE  H17S20043   4.810  -0.390   9.045  0.1534 -0.3686 -0.6157
  176SOPE  C21820044   4.755  -0.176   9.040  0.0646  0.2937  0.2635
  176SOPE  H18R20045   4.833  -0.149   8.967 -0.2720  0.5896  0.0096
  176SOPE  H18S20046   4.734  -0.091   9.109 -0.3831  1.0684 -0.8090
  176SOPE  H18T20047   4.660  -0.208   8.991  0.4445 -0.3559 -0.0586
  176SOPE   C3320048   5.148   0.335  10.087 -0.4218  0.3549 -0.7286
  176SOPE   H3X20049   5.254   0.346  10.055  0.6419 -2.0941  1.5642
  176SOPE   H3Y20050   5.121   0.437  10.122  0.4574 -0.1719  1.6790
  176SOPE   C3420051   5.061   0.297   9.966  0.0023 -0.3581 -0.2471
  176SOPE   H4X20052   5.088   0.378   9.894 -3.8053  0.6149 -0.7980
  176SOPE   H4Y20053   4.952   0.296   9.985  0.0413 -1.3767 -0.0598
  176SOPE   C3520054   5.087   0.154   9.917  0.6407  0.4752 -0.5398
  176SOPE   H5X20055   5.043   0.090   9.997  0.6171  2.5490  1.1957
  176SOPE   H5Y20056   5.195   0.130   9.921  0.2226 -1.4348  2.1784
  176SOPE   C3620057   5.046   0.112   9.768  0.0492 -0.0980 -0.4868
  176SOPE   H6X20058   4.940   0.134   9.745  0.1374  1.7091  0.5721
  176SOPE   H6Y20059   5.062   0.003   9.752  1.3724  0.2034 -1.3830
  176SOPE   C3720060   5.141   0.181   9.667  0.4302 -1.1135 -0.3961
  176SOPE   H7X20061   5.245   0.175   9.706  1.2106  1.5787 -1.7884
  176SOPE   H7Y20062   5.120   0.290   9.656 -1.6807 -1.6176 -1.9727
  176SOPE   C3820063   5.116   0.124   9.529 -0.1227  0.2654 -0.1915
  176SOPE   H8X20064   5.064   0.202   9.471 -0.4837  0.9795  1.0525
  176SOPE   H8Y20065   5.055   0.031   9.530 -0.1370  0.2317  2.3818
  176SOPE   C3920066   5.254   0.095   9.463 -0.2226  0.8400  0.7079
  176SOPE   H9X20067   5.303   0.008   9.513  1.4000 -0.0325 -2.2059
  176SOPE   H9Y20068   5.323   0.177   9.492  1.4650 -1.2859  3.2346
  176SOPE  C31020069   5.238   0.053   9.318 -0.2922 -0.0913 -1.0853
  176SOPE  H10X20070   5.171  -0.035   9.319  0.9210 -1.0415  0.9756
  176SOPE  H10Y20071   5.323  -0.009   9.283 -0.9401 -2.0309  0.5934
  176SOPE  C31120072   5.191   0.159   9.220  0.4867  0.4962 -0.1692
  176SOPE  H11X20073   5.254   0.251   9.219 -1.5261  1.9357 -1.0369
  176SOPE  H11Y20074   5.085   0.190   9.233  0.1173 -0.4265 -0.8477
  176SOPE  C31220075   5.206   0.112   9.075 -0.0041 -0.7806  0.2005
  176SOPE  H12X20076   5.131   0.037   9.040  1.9295 -1.7184 -2.2158
  176SOPE  H12Y20077   5.312   0.081   9.073  0.4959  0.6708  1.7908
  176SOPE  C31320078   5.184   0.229   8.971 -0.0948 -0.4622 -0.2953
  176SOPE  H13X20079   5.251   0.316   8.985  1.1970 -1.4092 -0.3422
  176SOPE  H13Y20080   5.082   0.270   8.986  0.2722 -0.0476  1.2470
  176SOPE  C31420081   5.206   0.186   8.824  0.0535  0.2026 -0.8811
  176SOPE  H14X20082   5.150   0.249   8.751 -0.7902 -0.3808 -0.7470
  176SOPE  H14Y20083   5.171   0.081   8.818 -1.1957  0.5316  0.2628
  176SOPE  C31520084   5.348   0.175   8.781 -0.4961  0.4706  0.0387
  176SOPE  H15X20085   5.414   0.132   8.860 -0.0297  0.9982 -0.0574
  176SOPE  H15Y20086   5.394   0.273   8.758  1.0607 -0.2742 -0.1953
  176SOPE  C31620087   5.382   0.085   8.658 -0.4555  0.1902 -0.0688
  176SOPE  H16X20088   5.310   0.083   8.573 -1.0537 -0.4598  0.4443
  176SOPE  H16Y20089   5.388  -0.021   8.689  0.6887 -1.5618 -5.1703
  176SOPE  C31720090   5.525   0.111   8.612 -0.1551 -0.2570 -0.4769
  176SOPE  H17X20091   5.560   0.027   8.548 -2.0487 -1.0953 -0.4848
  176SOPE  H17Y20092   5.602   0.115   8.693  1.3198  0.6856 -1.8600
  176SOPE  C31820093   5.558   0.243   8.531  0.0702  0.0825 -0.3696
  176SOPE  H18X20094   5.499   0.255   8.437 -1.2766 -0.0179  0.4324
  176SOPE  H18Y20095   5.663   0.247   8.497  0.2369 -0.9249 -0.0317
  176SOPE  H18Z20096   5.533   0.334   8.588  0.4277  0.0279 -0.1208
  177SOPE     N20097   3.759   4.992  10.968 -1.0038  0.1484  0.9251
  177SOPE   HN120098   3.726   5.089  10.981  2.0891  1.6775 -1.2832
  177SOPE   HN220099   3.701   4.917  11.011  1.0813 -2.6711 -0.7653
  177SOPE   HN320100   3.844   4.990  11.028 -0.8091 -2.0382  0.6751
  177SOPE   C1220101   3.789   4.973  10.819  0.1845  0.0673 -0.0421
  177SOPE  H12A20102   3.860   5.057  10.802 -0.6027  1.0992  1.5721
  177SOPE  H12B20103   3.696   4.979  10.759  0.6731  1.0551 -0.7407
  177SOPE   C1120104   3.869   4.841  10.788 -0.1011  0.1549  0.1159
  177SOPE  H11A20105   3.977   4.842  10.814  0.7872  0.6608 -3.1073
  177SOPE  H11B20106   3.875   4.834  10.677  2.2406  1.8693  0.0561
  177SOPE     P20107   3.881   4.590  10.875 -0.1306 -0.1040 -0.1072
  177SOPE   O1320108   3.786   4.489  10.926 -0.4352  0.6615 -0.1862
  177SOPE   O1420109   3.988   4.633  10.962  0.8218 -0.0897 -0.2005
  177SOPE   O1220110   3.801   4.724  10.839  0.5320 -0.4866  0.1724
  177SOPE   O1120111   3.940   4.558  10.728  0.0005 -0.1995  0.2565
  177SOPE    C120112   4.080   4.527  10.694  0.6659 -0.0952 -0.5457
  177SOPE    HA20113   4.098   4.418  10.683  0.3582 -0.2191  0.1088
  177SOPE    HB20114   4.144   4.558  10.779 -0.8434 -2.6783  1.7130
  177SOPE    C220115   4.124   4.615  10.574 -0.2678  0.1561 -0.3581
  177SOPE    HS20116   4.079   4.717  10.578  1.7905  1.0938 -0.0206
  177SOPE   O2120117   4.088   4.550  10.450  0.3566  1.0122  0.3273
  177SOPE   C2120118   3.973   4.585  10.391  0.2008  0.1972 -0.2606
  177SOPE   O2220119   3.900   4.669  10.439  1.1811 -0.1249 -0.1777
  177SOPE   C2220120   3.957   4.527  10.254 -0.2978  0.1395 -0.1218
  177SOPE   H2R20121   3.892   4.582  10.183 -1.0528 -0.8580 -0.2288
  177SOPE   H2S20122   3.900   4.433  10.272 -0.8273  0.7777  1.7752
  177SOPE    C320123   4.275   4.634  10.582 -0.1873  0.0834  0.4120
  177SOPE    HX20124   4.328   4.536  10.585  2.4091  1.4326  2.5689
  177SOPE    HY20125   4.300   4.671  10.683  2.0968  0.2627 -0.1514
  177SOPE   O3120126   4.329   4.733  10.485 -0.0014  0.4050  0.3199
  177SOPE   C3120127   4.385   4.673  10.382 -0.2224  0.6026  0.3939
  177SOPE   O3220128   4.392   4.552  10.366 -0.5280 -0.7263 -0.1281
  177SOPE   C3220129   4.441   4.771  10.290 -0.9512  0.0981 -0.1937
  177SOPE   H2X20130   4.548   4.793  10.308 -0.9872 -0.3049  0.5610
  177SOPE   H2Y20131   4.384   4.865  10.302 -1.8907 -0.5751  0.8731
  177SOPE   C2320132   4.088   4.485  10.191  0.2617 -0.5276  1.1619
  177SOPE   H3R20133   4.153   4.425  10.259 -2.7064 -1.3112  3.5477
  177SOPE   H3S20134   4.149   4.573  10.162 -1.0102  0.0778  0.2585
  177SOPE   C2420135   4.063   4.413  10.057 -0.0866  0.3631 -0.5888
  177SOPE   H4R20136   4.013   4.323  10.101  0.9586  0.0536 -0.0031
  177SOPE   H4S20137   3.985   4.455   9.991 -0.7182 -1.4843 -1.0881
  177SOPE   C2520138   4.188   4.382   9.978 -0.1247 -0.8080  0.2086
  177SOPE   H5R20139   4.236   4.476   9.945 -0.1795 -1.2376 -1.1521
  177SOPE   H5S20140   4.264   4.325  10.037  0.8000  0.9843  0.8266
  177SOPE   C2620141   4.160   4.297   9.854 -0.0903 -0.4338 -0.1284
  177SOPE   H6R20142   4.262   4.274   9.816  0.2462  0.8456 -0.0241
  177SOPE   H6S20143   4.113   4.199   9.877 -1.9472  0.2901 -0.7038
  177SOPE   C2720144   4.075   4.357   9.754 -0.7430 -0.2090 -0.7721
  177SOPE   H7R20145   4.072   4.286   9.669 -0.7086 -0.0441 -0.9129
  177SOPE   H7S20146   3.972   4.383   9.784 -0.6337 -2.4328  1.7956
  177SOPE   C2820147   4.138   4.480   9.686 -0.2316 -0.3191  0.8333
  177SOPE   H8R20148   4.129   4.557   9.764  1.4680 -2.1353  2.9805
  177SOPE   H8S20149   4.248   4.470   9.673  0.5039  2.7200  3.5830
  177SOPE   C2920150   4.071   4.516   9.550  1.1349  0.0256 -0.3855
  177SOPE   H9120151   3.976   4.571   9.556  0.4473 -0.9161 -2.0106
  177SOPE  C21020152   4.117   4.491   9.423  0.0275  0.1175  0.1358
  177SOPE  H10120153   4.062   4.506   9.329  0.6897 -1.8189 -0.6018
  177SOPE  C21120154   4.249   4.425   9.381  0.4002  0.1779 -0.8157
  177SOPE  H11R20155   4.222   4.329   9.331  0.1887 -0.6414  0.7903
  177SOPE  H11S20156   4.302   4.389   9.472 -0.9109  0.7081  0.1983
  177SOPE  C21220157   4.351   4.487   9.298 -0.0100 -0.2591  1.2533
  177SOPE  H12R20158   4.441   4.423   9.288  0.1809  0.1176  0.5565
  177SOPE  H12S20159   4.386   4.577   9.353 -0.9929 -0.4712  2.2528
  177SOPE  C21320160   4.298   4.517   9.147 -0.8668  0.5009 -0.4178
  177SOPE  H13R20161   4.252   4.617   9.165 -0.8569  0.1382  1.9897
  177SOPE  H13S20162   4.225   4.442   9.111 -1.2251 -0.3707  1.9528
  177SOPE  C21420163   4.412   4.545   9.043 -0.3090 -0.7325 -0.0967
  177SOPE  H14R20164   4.466   4.449   9.027 -0.9949 -0.8536 -1.9295
  177SOPE  H14S20165   4.482   4.612   9.096 -0.1689 -0.5249 -0.5376
  177SOPE  C21520166   4.354   4.596   8.909 -0.0640 -0.2168 -0.3876
  177SOPE  H15R20167   4.417   4.675   8.864 -1.7762  0.1359 -2.3445
  177SOPE  H15S20168   4.257   4.648   8.923  1.1346  2.7484 -2.2768
  177SOPE  C21620169   4.336   4.485   8.802  0.0530  0.4258  0.2441
  177SOPE  H16R20170   4.266   4.406   8.836  0.1383 -0.4645 -1.5551
  177SOPE  H16S20171   4.435   4.435   8.789 -0.6725 -0.7508 -1.0147
  177SOPE  C21720172   4.294   4.518   8.658 -0.1661 -0.0142  0.4536
  177SOPE  H17R20173   4.188   4.554   8.654 -1.1243 -2.4235  2.0480
  177SOPE  H17S20174   4.299   4.428   8.594 -0.2818  0.7296 -0.6208
  177SOPE  C21820175   4.385   4.620   8.592  0.6012 -0.1331 -0.1141
  177SOPE  H18R20176   4.490   4.602   8.624  0.7576 -0.3533 -0.7307
  177SOPE  H18S20177   4.352   4.724   8.614  1.6257  0.0703  0.5212
  177SOPE  H18T20178   4.379   4.627   8.481  1.5095  1.2640 -0.1003
  177SOPE   C3320179   4.422   4.722  10.148  0.3366  0.0596  0.0808
  177SOPE   H3X20180   4.313   4.713  10.128 -0.0211 -0.1584  1.8802
  177SOPE   H3Y20181   4.470   4.622  10.141  0.7281  0.2056  0.5810
  177SOPE   C3420182   4.489   4.822  10.042 -0.5177  0.3542 -0.0172
  177SOPE   H4X20183   4.596   4.792  10.049 -0.8350 -0.6611  0.7601
  177SOPE   H4Y20184   4.448   4.922  10.066 -0.4662  0.6068 -0.9363
  177SOPE   C3520185   4.445   4.788   9.900  0.0436 -0.2045  0.4895
  177SOPE   H5X20186   4.339   4.800   9.868  0.7852 -1.3933 -2.9306
  177SOPE   H5Y20187   4.459   4.680   9.876  0.7047  0.0366 -0.2431
  177SOPE   C3620188   4.522   4.872   9.796 -0.7353  0.0725 -0.4277
  177SOPE   H6X20189   4.626   4.834   9.788 -0.4268  0.6586  0.6286
  177SOPE   H6Y20190   4.526   4.979   9.827 -0.5065  0.1259 -0.6324
  177SOPE   C3720191   4.466   4.876   9.649 -0.3069 -0.1080 -0.3225
  177SOPE   H7X20192   4.375   4.938   9.639  0.5677  1.1791 -0.6001
  177SOPE   H7Y20193   4.441   4.774   9.614 -0.7873  0.2543 -1.0554
  177SOPE   C3820194   4.567   4.921   9.548 -0.8842 -0.1402  0.2640
  177SOPE   H8X20195   4.633   4.834   9.533  0.6430  0.9273  0.5353
  177SOPE   H8Y20196   4.628   5.006   9.586 -2.1783  1.1852 -0.4824
  177SOPE   C3920197   4.500   4.958   9.426 -0.0193 -0.8728 -0.4088
  177SOPE   H9X20198   4.416   5.030   9.430 -0.2846 -1.1077 -1.3904
  177SOPE   H9Y20199   4.451   4.868   9.384 -0.8806 -0.6405  0.0788
  177SOPE  C31020200   4.603   5.000   9.318 -0.2151 -0.0401  0.0608
  177SOPE  H10X20201   4.693   4.936   9.319 -0.2022 -0.0597 -1.1918
  177SOPE  H10Y20202   4.643   5.099   9.349  1.2538 -0.9761  1.2526
  177SOPE  C31120203   4.545   4.989   9.181 -0.2643 -0.1089  0.2526
  177SOPE  H11X20204   4.456   5.053   9.163 -0.9795 -1.0192  0.4606
  177SOPE  H11Y20205   4.511   4.884   9.171 -0.0051 -0.2574  0.8802
  177SOPE  C31220206   4.645   5.008   9.067  0.4617 -0.5424  0.1462
  177SOPE  H12X20207   4.709   4.917   9.059 -1.0798 -1.6517  0.0032
  177SOPE  H12Y20208   4.708   5.098   9.085 -1.9676  1.3959 -0.4932
  177SOPE  C31320209   4.566   5.038   8.933  0.1244 -0.0321 -0.1272
  177SOPE  H13X20210   4.551   5.147   8.923 -2.2417 -0.0797  1.8759
  177SOPE  H13Y20211   4.464   4.996   8.941  0.5681 -1.4164 -1.1945
  177SOPE  C31420212   4.640   4.974   8.811 -0.0062 -0.2995  0.6199
  177SOPE  H14X20213   4.568   4.985   8.727  1.1467  1.9010 -0.1454
  177SOPE  H14Y20214   4.658   4.864   8.816  0.6576 -0.2160  0.1614
  177SOPE  C31520215   4.775   5.052   8.790  0.0806  0.0851 -0.5383
  177SOPE  H15X20216   4.837   5.038   8.881 -2.1658  0.2260  1.1104
  177SOPE  H15Y20217   4.746   5.159   8.793 -1.1641 -0.2095  2.8002
  177SOPE  C31620218   4.850   5.010   8.661  0.4966  0.1230  0.2663
  177SOPE  H16X20219   4.837   4.901   8.642 -0.2990  0.0985  0.8812
  177SOPE  H16Y20220   4.959   5.028   8.667  0.5795  0.0603 -0.8157
  177SOPE  C31720221   4.796   5.079   8.530  0.3648  0.3530  0.2058
  177SOPE  H17X20222   4.688   5.100   8.544  0.6618  1.5297  0.8344
  177SOPE  H17Y20223   4.806   5.019   8.436  2.0651  1.8373 -0.6294
  177SOPE  C31820224   4.856   5.219   8.498  0.5570 -0.1213  0.2858
  177SOPE  H18X20225   4.938   5.245   8.569  3.5133 -1.5606 -2.3303
  177SOPE  H18Y20226   4.790   5.308   8.507  1.5348  0.5270  1.4804
  177SOPE  H18Z20227   4.902   5.230   8.397  0.4428  0.1227  0.2604
  178SOPE     N20228   3.668   4.299  10.784 -0.5610  0.6864  0.3951
  178SOPE   HN120229   3.741   4.232  10.752 -2.0871 -1.8391  1.9827
  178SOPE   HN220230   3.714   4.377  10.835 -1.2776  1.6309 -0.3559
  178SOPE   HN320231   3.607   4.244  10.847  0.6215 -1.3828 -0.1750
  178SOPE   C1220232   3.589   4.343  10.669  0.2842  0.2570 -0.2344
  178SOPE  H12A20233   3.657   4.385  10.592  1.9722  0.8515  1.5037
  178SOPE  H12B20234   3.519   4.422  10.704  0.2063 -0.8762  2.3964
  178SOPE   C1120235   3.508   4.219  10.613  0.0006 -0.3847 -0.4370
  178SOPE  H11A20236   3.448   4.262  10.530 -0.7439  1.9465  1.2102
  178SOPE  H11B20237   3.443   4.185  10.696  0.3702  1.5593  0.7191
  178SOPE     P20238   3.590   3.976  10.573 -0.1057  0.3489  0.2026
  178SOPE   O1320239   3.581   3.933  10.709 -0.0675 -0.9476  0.1253
  178SOPE   O1420240   3.682   3.905  10.488 -0.5461 -0.0138  0.5185
  178SOPE   O1220241   3.597   4.126  10.554  0.5014  0.3248 -0.5404
  178SOPE   O1120242   3.447   3.951  10.513  0.1971 -0.0118  0.0774
  178SOPE    C120243   3.429   3.991  10.373  0.4239  0.7370 -0.4111
  178SOPE    HA20244   3.508   3.968  10.299  0.6784  2.5766 -0.7728
  178SOPE    HB20245   3.415   4.102  10.369 -0.8590  0.5837 -0.8900
  178SOPE    C220246   3.309   3.912  10.324 -0.0956 -0.2250  0.7280
  178SOPE    HS20247   3.243   3.917  10.413  0.5229  0.3509  1.1575
  178SOPE   O2120248   3.349   3.773  10.290  0.1275 -0.8797 -0.3232
  178SOPE   C2120249   3.250   3.684  10.282  0.1126 -0.2351  0.7492
  178SOPE   O2220250   3.133   3.708  10.301  0.3145 -0.0611  0.4065
  178SOPE   C2220251   3.307   3.548  10.238  0.3142 -0.3124 -0.4516
  178SOPE   H2R20252   3.225   3.476  10.218 -1.0210  0.7203  1.0101
  178SOPE   H2S20253   3.360   3.509  10.328  0.3929  1.8132  0.4842
  178SOPE    C320254   3.243   3.990  10.206 -0.1086  0.2071 -0.3298
  178SOPE    HX20255   3.254   4.093  10.248  4.5797 -0.6709  1.2505
  178SOPE    HY20256   3.136   3.962  10.192  0.4190 -1.2058 -1.8481
  178SOPE   O3120257   3.314   3.983  10.082  0.2526  0.1637  0.2063
  178SOPE   C3120258   3.267   3.902   9.984 -0.3262  0.1419 -0.4298
  178SOPE   O3220259   3.168   3.831   9.993  0.1262 -0.3182  0.0453
  178SOPE   C3220260   3.377   3.879   9.880 -0.5193 -0.7575  0.0773
  178SOPE   H2X20261   3.445   3.810   9.935 -1.9387 -1.5719  0.8909
  178SOPE   H2Y20262   3.429   3.971   9.847  0.4540 -1.3760 -0.1533
  178SOPE   C2320263   3.414   3.551  10.122  0.8109  0.9687  1.1034
  178SOPE   H3R20264   3.489   3.472  10.145 -0.5790 -1.1497 -1.1039
  178SOPE   H3S20265   3.473   3.644  10.130  0.2262  1.4448  0.0953
  178SOPE   C2420266   3.342   3.528   9.990 -0.5476 -0.3755 -0.0942
  178SOPE   H4R20267   3.235   3.556   9.998 -0.2924  0.8749 -0.8578
  178SOPE   H4S20268   3.382   3.593   9.909  0.7932  0.6638  1.3425
  178SOPE   C2520269   3.344   3.375   9.954 -0.8291 -0.7161 -0.6893
  178SOPE   H5R20270   3.446   3.340   9.925 -1.0865 -0.3496 -2.1063
  178SOPE   H5S20271   3.315   3.324  10.048  1.8812  2.5845  2.2810
  178SOPE   C2620272   3.252   3.346   9.836  0.2976  0.5635 -0.3772
  178SOPE   H6R20273   3.152   3.318   9.875  0.5529  0.3271  0.1343
  178SOPE   H6S20274   3.242   3.432   9.767 -0.0670  0.3203 -0.6236
  178SOPE   C2720275   3.290   3.224   9.748 -0.3331  0.0095 -0.2018
  178SOPE   H7R20276   3.400   3.207   9.761 -0.4721  0.6232  2.4522
  178SOPE   H7S20277   3.237   3.132   9.779 -0.4124 -0.0372 -0.4794
  178SOPE   C2820278   3.248   3.245   9.602 -0.6694 -0.7907 -0.4485
  178SOPE   H8R20279   3.139   3.253   9.585 -0.7479  0.4902  0.4717
  178SOPE   H8S20280   3.291   3.342   9.568  2.3415 -1.1158  1.9652
  178SOPE   C2920281   3.312   3.146   9.512 -0.5073 -0.1858  0.1139
  178SOPE   H9120282   3.407   3.179   9.467 -0.4072 -0.1698  0.3353
  178SOPE  C21020283   3.259   3.025   9.476  0.1214  0.2942 -0.1152
  178SOPE  H10120284   3.311   2.949   9.416 -1.3997 -1.1278  0.2998
  178SOPE  C21120285   3.127   2.976   9.527 -0.0121  0.5572 -0.0343
  178SOPE  H11R20286   3.101   3.017   9.627 -0.1798  2.8457 -0.9564
  178SOPE  H11S20287   3.130   2.865   9.529 -1.1094  0.4395 -2.1728
  178SOPE  C21220288   3.014   3.002   9.427 -0.2068  0.0770 -0.6319
  178SOPE  H12R20289   2.992   3.111   9.423 -0.4122  0.0946  0.5482
  178SOPE  H12S20290   2.933   2.941   9.473  1.2667 -0.8804  0.8200
  178SOPE  C21320291   3.036   2.957   9.283  0.1416 -0.0182  0.2462
  178SOPE  H13R20292   3.135   2.985   9.241 -0.7720 -0.3987 -2.3164
  178SOPE  H13S20293   2.959   3.014   9.227 -2.4229 -1.2733  2.2859
  178SOPE  C21420294   3.001   2.811   9.275  0.1825 -0.6344  0.1049
  178SOPE  H14R20295   2.906   2.790   9.330  0.8066 -2.4743  0.5514
  178SOPE  H14S20296   3.079   2.748   9.321 -0.8942 -2.7746 -0.8065
  178SOPE  C21520297   2.981   2.765   9.127  0.0435  0.0632  0.8350
  178SOPE  H15R20298   3.072   2.766   9.064 -1.1327  0.6691 -0.9234
  178SOPE  H15S20299   2.910   2.837   9.082  1.5807  0.1825 -1.5611
  178SOPE  C21620300   2.928   2.625   9.137  0.2061 -0.7185  0.9359
  178SOPE  H16R20301   2.901   2.602   9.032 -0.3988 -0.4843  1.0346
  178SOPE  H16S20302   2.844   2.601   9.206 -1.3307  4.4222  1.2782
  178SOPE  C21720303   3.043   2.519   9.163 -0.2947 -0.6694  0.0040
  178SOPE  H17R20304   3.108   2.561   9.242 -2.0259  0.3810  0.9311
  178SOPE  H17S20305   3.099   2.525   9.067 -1.9771  1.2682 -0.9349
  178SOPE  C21820306   3.004   2.379   9.189 -0.6720  0.3567 -0.1818
  178SOPE  H18R20307   3.087   2.323   9.237 -0.5234  0.0782 -0.7483
  178SOPE  H18S20308   2.966   2.329   9.097 -0.4707  0.4726 -0.3294
  178SOPE  H18T20309   2.919   2.365   9.258 -0.5337  1.2530  0.1860
  178SOPE   C3320310   3.324   3.814   9.757  0.0915  0.5162 -0.2165
  178SOPE   H3X20311   3.262   3.725   9.783  1.3376 -1.2542 -2.8398
  178SOPE   H3Y20312   3.396   3.756   9.695 -1.1717 -1.1443 -0.1933
  178SOPE   C3420313   3.244   3.911   9.677 -0.2168  0.2404  0.2801
  178SOPE   H4X20314   3.298   4.007   9.658  0.3033  0.1665  1.3127
  178SOPE   H4Y20315   3.157   3.948   9.734 -0.1082  0.8567  0.0607
  178SOPE   C3520316   3.197   3.864   9.538 -0.9940 -0.1338  0.7135
  178SOPE   H5X20317   3.131   3.945   9.499 -0.9145 -0.5867 -0.4127
  178SOPE   H5Y20318   3.143   3.768   9.549 -0.8379 -0.0830  2.1314
  178SOPE   C3620319   3.313   3.843   9.435  0.4669 -0.5737  0.7200
  178SOPE   H6X20320   3.287   3.759   9.367  0.7718 -0.0768 -0.0208
  178SOPE   H6Y20321   3.411   3.821   9.483  0.0029 -1.0007  1.4905
  178SOPE   C3720322   3.341   3.969   9.345  0.6267  0.3350 -1.0520
  178SOPE   H7X20323   3.425   3.931   9.283 -0.7955 -1.9441 -1.7264
  178SOPE   H7Y20324   3.356   4.060   9.406 -1.7172 -1.0747  1.9352
  178SOPE   C3820325   3.226   3.987   9.243  0.1511  0.9029  0.4697
  178SOPE   H8X20326   3.131   4.002   9.298 -1.0428  1.1885 -1.5640
  178SOPE   H8Y20327   3.215   3.897   9.178  1.9947  1.8176 -1.2506
  178SOPE   C3920328   3.234   4.115   9.162 -0.6263  0.1217 -0.4100
  178SOPE   H9X20329   3.216   4.196   9.237 -0.9305 -1.7805  1.6766
  178SOPE   H9Y20330   3.160   4.121   9.079  1.8505 -0.0067 -2.7704
  178SOPE  C31020331   3.370   4.136   9.090 -0.0669 -0.1075 -0.9527
  178SOPE  H10X20332   3.386   4.054   9.017  2.3819 -0.8726  0.3467
  178SOPE  H10Y20333   3.456   4.140   9.159 -0.7239  0.7333 -0.1562
  178SOPE  C31120334   3.363   4.269   9.004  0.4535 -0.5938 -0.7045
  178SOPE  H11X20335   3.360   4.358   9.070 -3.9048  0.8677 -2.4422
  178SOPE  H11Y20336   3.260   4.269   8.961 -0.4263  0.0906  1.3202
  178SOPE  C31220337   3.464   4.280   8.886 -0.3488 -0.2075 -0.8377
  178SOPE  H12X20338   3.566   4.260   8.924 -0.7794  0.0852  0.5493
  178SOPE  H12Y20339   3.468   4.379   8.837  0.1701 -1.0819 -2.6816
  178SOPE  C31320340   3.439   4.178   8.776  0.7006 -0.1403  0.9507
  178SOPE  H13X20341   3.451   4.076   8.818 -0.1177 -0.7092 -0.1678
  178SOPE  H13Y20342   3.521   4.186   8.701  0.8681  0.1286  1.1586
  178SOPE  C31420343   3.300   4.186   8.706  0.0013 -0.1297 -0.1876
  178SOPE  H14X20344   3.284   4.286   8.660  0.1004 -0.9498 -2.1014
  178SOPE  H14Y20345   3.222   4.170   8.783  1.9919  1.4699  2.3009
  178SOPE  C31520346   3.291   4.084   8.593 -0.4105  0.0027 -0.3839
  178SOPE  H15X20347   3.275   3.987   8.645 -1.2270 -0.0648 -0.7467
  178SOPE  H15Y20348   3.387   4.083   8.537 -0.4989 -2.0628 -0.5593
  178SOPE  C31620349   3.171   4.120   8.491 -0.5081  0.0784 -0.8914
  178SOPE  H16X20350   3.206   4.206   8.430 -1.6694  1.1089 -0.1461
  178SOPE  H16Y20351   3.077   4.141   8.546  0.1279 -0.4413  0.4428
  178SOPE  C31720352   3.142   4.007   8.395 -0.3524 -0.0946  0.3656
  178SOPE  H17X20353   3.093   3.917   8.438  0.1754  0.6444  2.6386
  178SOPE  H17Y20354   3.241   3.968   8.364 -0.1052 -0.1315  1.1690
  178SOPE  C31820355   3.065   4.059   8.280 -1.0283  0.7282  0.8248
  178SOPE  H18X20356   2.958   4.067   8.312 -0.9489 -1.3415  1.7961
  178SOPE  H18Y20357   3.070   3.978   8.205  1.7912 -0.4998  2.2050
  178SOPE  H18Z20358   3.101   4.157   8.242  1.5972  0.5320  2.5776
  179SOPE     N20359   1.104   6.486   6.414  0.0138 -0.4816 -0.2545
  179SOPE   HN120360   1.029   6.557   6.410  1.1493  0.7161 -3.2871
  179SOPE   HN220361   1.144   6.476   6.509 -1.2540  3.6671  0.9211
  179SOPE   HN320362   1.176   6.542   6.363  1.7448  1.0563  3.5089
  179SOPE   C1220363   1.071   6.368   6.325  0.0868 -0.3798  0.5508
  179SOPE  H12A20364   1.093   6.398   6.220 -0.4600 -0.9572  0.2667
  179SOPE  H12B20365   0.960   6.361   6.330  0.1305 -0.5306  1.4596
  179SOPE   C1120366   1.144   6.248   6.378  0.0067  0.6064  0.1550
  179SOPE  H11A20367   1.246   6.283   6.403 -0.2482  2.0780 -0.7610
  179SOPE  H11B20368   1.149   6.173   6.296 -1.3939  0.5603  0.0782
  179SOPE     P20369   0.996   6.054   6.477 -0.1064 -0.3163  0.2869
  179SOPE   O1320370   1.092   5.937   6.488 -0.3760 -0.0334 -0.1071
  179SOPE   O1420371   0.920   6.052   6.346 -0.3352 -0.0440  0.6990
  179SOPE   O1220372   1.074   6.198   6.494 -0.3310 -0.0101 -0.6642
  179SOPE   O1120373   0.891   6.053   6.595  0.1096  0.9941 -0.1919
  179SOPE    C120374   0.926   6.073   6.727 -0.1632  0.0374  0.1336
  179SOPE    HA20375   1.031   6.044   6.748 -0.3832  1.1621  3.2299
  179SOPE    HB20376   0.859   6.008   6.787  0.7767 -0.0726  1.0979
  179SOPE    C220377   0.891   6.214   6.764 -0.4550  0.3639  0.6044
  179SOPE    HS20378   0.943   6.281   6.692  1.9356 -2.4680 -0.5001
  179SOPE   O2120379   0.929   6.238   6.901 -0.4316 -0.1707 -0.4695
  179SOPE   C2120380   1.060   6.266   6.919  0.4528  0.4425  0.1656
  179SOPE   O2220381   1.142   6.280   6.830  0.3315  0.5475 -0.4396
  179SOPE   C2220382   1.095   6.283   7.065 -0.2227 -0.1314 -0.1962
  179SOPE   H2R20383   1.178   6.358   7.066 -1.3587  1.1897 -1.0983
  179SOPE   H2S20384   1.131   6.183   7.095 -0.6881 -0.1823  0.2040
  179SOPE    C320385   0.742   6.244   6.758  0.4881  0.2819  0.6276
  179SOPE    HX20386   0.706   6.228   6.654 -2.4134 -2.2980  1.8597
  179SOPE    HY20387   0.744   6.353   6.779 -4.0494  1.0064 -1.5192
  179SOPE   O3120388   0.663   6.166   6.849  0.8261  0.1465 -0.2385
  179SOPE   C3120389   0.617   6.222   6.960  1.3048 -0.5758  0.6766
  179SOPE   O3220390   0.618   6.342   6.977 -0.3306  0.3514 -0.4700
  179SOPE   C3220391   0.589   6.113   7.061  0.8008  0.6031 -0.6083
  179SOPE   H2X20392   0.662   6.031   7.045 -0.4840 -0.6947 -0.1561
  179SOPE   H2Y20393   0.481   6.086   7.050  0.9852 -0.4686  0.0752
  179SOPE   C2320394   0.984   6.339   7.159 -0.1178  0.6854  0.2115
  179SOPE   H3R20395   0.896   6.272   7.165  0.4313 -0.0726 -0.0697
  179SOPE   H3S20396   0.942   6.434   7.120  2.9118  1.8310 -0.5823
  179SOPE   C2420397   1.035   6.362   7.295 -0.7347  0.1207 -0.3327
  179SOPE   H4R20398   1.100   6.276   7.324 -1.4061  0.1149  1.2491
  179SOPE   H4S20399   1.105   6.448   7.304  1.6182 -1.4621 -2.3195
  179SOPE   C2520400   0.919   6.379   7.399  0.0343 -0.4414 -0.0889
  179SOPE   H5R20401   0.867   6.476   7.386  1.8264  0.6284  0.3591
  179SOPE   H5S20402   0.841   6.300   7.389 -1.3574  0.6901  1.4175
  179SOPE   C2620403   0.976   6.379   7.546  0.2316 -0.3120 -0.0580
  179SOPE   H6R20404   1.063   6.310   7.548  1.0705  0.7366  0.0866
  179SOPE   H6S20405   1.003   6.481   7.579  0.8977 -1.2042  2.3761
  179SOPE   C2720406   0.874   6.313   7.643  0.4213 -0.4055  0.0144
  179SOPE   H7R20407   0.858   6.208   7.610  0.0704 -0.1162 -0.7520
  179SOPE   H7S20408   0.920   6.316   7.744 -0.5425  2.5278  0.4601
  179SOPE   C2820409   0.738   6.385   7.642  0.4541 -0.2166 -0.1378
  179SOPE   H8R20410   0.720   6.428   7.542  0.8368 -2.3663 -1.1967
  179SOPE   H8S20411   0.654   6.312   7.641  0.0301  0.1426  2.3311
  179SOPE   C2920412   0.718   6.493   7.749  0.1316 -0.6227 -0.8889
  179SOPE   H9120413   0.729   6.600   7.726 -1.7711 -0.3425 -0.7123
  179SOPE  C21020414   0.699   6.472   7.885  0.7290  0.4471  0.6407
  179SOPE  H10120415   0.668   6.553   7.952  0.2007  0.1534  0.7548
  179SOPE  C21120416   0.680   6.339   7.951  0.6393 -0.5457  0.7445
  179SOPE  H11R20417   0.707   6.255   7.883  2.1578 -0.3173  1.0244
  179SOPE  H11S20418   0.577   6.334   7.991  0.2304  0.6650 -0.0746
  179SOPE  C21220419   0.782   6.333   8.067  0.3860 -0.7322 -0.3584
  179SOPE  H12R20420   0.890   6.340   8.039  0.5948  0.6106  0.6891
  179SOPE  H12S20421   0.766   6.229   8.103 -2.4092  0.0572  0.9198
  179SOPE  C21320422   0.765   6.432   8.183 -0.4698 -0.3616  1.4318
  179SOPE  H13R20423   0.656   6.423   8.197 -0.7061 -0.1125 -0.0969
  179SOPE  H13S20424   0.799   6.534   8.152  0.6596 -1.1674 -0.1816
  179SOPE  C21420425   0.839   6.384   8.314 -0.0301  0.9809  0.9192
  179SOPE  H14R20426   0.807   6.277   8.321  0.1965  0.4399 -3.4644
  179SOPE  H14S20427   0.802   6.425   8.410  0.8205 -0.7254  2.0391
  179SOPE  C21520428   0.993   6.381   8.313 -0.1750  0.1269 -0.7687
  179SOPE  H15R20429   1.029   6.485   8.306 -0.9659  0.3368 -2.2720
  179SOPE  H15S20430   1.025   6.327   8.221  1.7441 -1.1262  0.5476
  179SOPE  C21620431   1.059   6.308   8.432 -0.4175  0.0877 -0.1408
  179SOPE  H16R20432   1.015   6.208   8.451 -2.1049  1.1420  1.9312
  179SOPE  H16S20433   1.052   6.371   8.523 -0.2931 -1.3743  0.9192
  179SOPE  C21720434   1.211   6.284   8.409 -0.0404 -0.1339  0.0808
  179SOPE  H17R20435   1.230   6.207   8.331  1.5039  0.5215 -0.2289
  179SOPE  H17S20436   1.256   6.232   8.497  0.6245 -0.8363 -0.6580
  179SOPE  C21820437   1.287   6.412   8.378 -1.3555 -0.0941  0.6988
  179SOPE  H18R20438   1.271   6.483   8.462 -1.2494  0.4502  0.2604
  179SOPE  H18S20439   1.243   6.447   8.282  2.2323 -0.1176 -1.0988
  179SOPE  H18T20440   1.396   6.407   8.362 -1.0726  2.9222  1.1209
  179SOPE   C3320441   0.599   6.170   7.201  0.2618  0.2779  0.0554
  179SOPE   H3X20442   0.531   6.258   7.200 -1.6949 -1.0824 -2.7299
  179SOPE   H3Y20443   0.705   6.197   7.220  0.0016  2.9701 -1.7825
  179SOPE   C3420444   0.544   6.078   7.303 -0.1136  0.5400 -0.1538
  179SOPE   H4X20445   0.588   5.978   7.283 -0.9285  0.1012  0.2138
  179SOPE   H4Y20446   0.435   6.084   7.285 -0.1393  0.1338 -0.1338
  179SOPE   C3520447   0.565   6.110   7.446  0.2652 -0.7056 -0.7242
  179SOPE   H5X20448   0.492   6.190   7.469  0.1858 -0.7306 -0.8854
  179SOPE   H5Y20449   0.664   6.154   7.470 -0.0185 -1.0653  1.2234
  179SOPE   C3620450   0.538   5.991   7.543 -0.2258 -0.0933 -0.0963
  179SOPE   H6X20451   0.616   5.914   7.520  1.0551  1.6756 -2.1114
  179SOPE   H6Y20452   0.440   5.950   7.511  0.9156 -0.9525 -2.7404
  179SOPE   C3720453   0.539   6.023   7.690  0.0768 -0.0547 -0.5085
  179SOPE   H7X20454   0.468   6.107   7.709  1.9403  1.3794  0.4986
  179SOPE   H7Y20455   0.637   6.065   7.722 -0.5059  2.4192 -1.7097
  179SOPE   C3820456   0.511   5.906   7.784 -0.5957  0.5128  0.6834
  179SOPE   H8X20457   0.608   5.855   7.796 -1.2202 -1.0714 -0.6917
  179SOPE   H8Y20458   0.440   5.836   7.736  1.3027 -0.1755 -1.2616
  179SOPE   C3920459   0.484   5.947   7.924  0.0435 -0.0624 -0.3651
  179SOPE   H9X20460   0.378   5.979   7.933 -0.2399 -0.3506 -2.3018
  179SOPE   H9Y20461   0.527   6.043   7.959 -0.5422 -0.8772  2.9786
  179SOPE  C31020462   0.510   5.830   8.017  0.4981  0.2238  0.8572
  179SOPE  H10X20463   0.615   5.797   8.006  0.0178 -1.2789  0.6424
  179SOPE  H10Y20464   0.447   5.742   7.992 -0.4172  0.9039  0.6858
  179SOPE  C31120465   0.483   5.875   8.166 -0.0716 -0.1419  0.6250
  179SOPE  H11X20466   0.377   5.903   8.186 -0.9860 -1.1206 -2.3838
  179SOPE  H11Y20467   0.539   5.967   8.193 -0.5543  0.4412 -0.3327
  179SOPE  C31220468   0.537   5.764   8.266 -0.0542  0.0221  0.0175
  179SOPE  H12X20469   0.647   5.754   8.257 -0.0373  0.6029 -0.5186
  179SOPE  H12Y20470   0.497   5.666   8.231 -0.3436  0.1323  0.0385
  179SOPE  C31320471   0.508   5.787   8.418  0.4886  0.6668 -0.5016
  179SOPE  H13X20472   0.398   5.780   8.432  0.3159  0.4144 -1.8507
  179SOPE  H13Y20473   0.545   5.889   8.440 -0.3560  0.9573 -0.3846
  179SOPE  C31420474   0.584   5.688   8.505  0.2351  0.2325  0.7938
  179SOPE  H14X20475   0.684   5.676   8.459  1.3718  3.5291  2.1103
  179SOPE  H14Y20476   0.528   5.592   8.498  0.6935  0.0509 -0.7604
  179SOPE  C31520477   0.602   5.712   8.654  0.2162  0.1941  0.2685
  179SOPE  H15X20478   0.504   5.736   8.703 -0.3568  0.5041 -0.9747
  179SOPE  H15Y20479   0.665   5.802   8.672 -0.6520  1.3206 -1.8557
  179SOPE  C31620480   0.661   5.586   8.713  0.1667 -0.2116 -0.4829
  179SOPE  H16X20481   0.754   5.561   8.658  1.0863 -2.4737  1.8855
  179SOPE  H16Y20482   0.598   5.495   8.705 -2.5968  1.4407  0.7905
  179SOPE  C31720483   0.696   5.593   8.867 -0.1932  0.4027  1.2828
  179SOPE  H17X20484   0.602   5.590   8.927 -1.2919  2.1058 -0.2283
  179SOPE  H17Y20485   0.734   5.696   8.881 -0.2598  0.7432 -0.7075
  179SOPE  C31820486   0.805   5.492   8.899  0.4599  0.6680 -0.3119
  179SOPE  H18X20487   0.900   5.520   8.849  1.0652  0.5885  0.7682
  179SOPE  H18Y20488   0.775   5.389   8.870  1.7575  0.2020 -0.0992
  179SOPE  H18Z20489   0.823   5.478   9.008 -2.6234  2.5647  0.5574
  180SOPE     N20490   5.668   6.432   6.328 -0.1068 -0.5552  0.2756
  180SOPE   HN120491   5.722   6.346   6.303  1.8072  1.4156 -3.1820
  180SOPE   HN220492   5.621   6.449   6.237  1.4320 -1.4431 -0.7234
  180SOPE   HN320493   5.732   6.511   6.349  0.4140 -1.3181  1.6901
  180SOPE   C1220494   5.555   6.407   6.426 -0.4310  0.6093 -0.3878
  180SOPE  H12A20495   5.502   6.503   6.447 -0.8627 -0.0110  1.5920
  180SOPE  H12B20496   5.602   6.381   6.523  1.1688  2.9442 -0.4593
  180SOPE   C1120497   5.465   6.298   6.375 -0.2828 -0.1722 -0.3601
  180SOPE  H11A20498   5.411   6.331   6.284 -0.6149 -1.3845 -0.6254
  180SOPE  H11B20499   5.393   6.279   6.457  0.8896 -2.5886  0.2125
  180SOPE     P20500   5.484   6.047   6.297 -0.4779 -0.2766  0.5279
  180SOPE   O1320501   5.549   6.020   6.165 -0.1026 -0.3753 -0.4942
  180SOPE   O1420502   5.334   6.058   6.288 -0.9801 -0.8029 -0.0895
  180SOPE   O1220503   5.551   6.183   6.356  0.2572 -0.1211  0.7935
  180SOPE   O1120504   5.530   5.932   6.398  0.0618 -0.7425  0.3339
  180SOPE    C120505   5.638   5.953   6.492  0.3342 -0.7250 -0.3389
  180SOPE    HA20506   5.699   6.042   6.466 -0.1276 -0.0234  0.8917
  180SOPE    HB20507   5.707   5.866   6.489 -0.2557 -1.4532  2.8763
  180SOPE    C220508   5.592   5.971   6.643  0.4157 -0.2845 -0.3019
  180SOPE    HS20509   5.685   5.983   6.703  1.2915  2.9485 -2.0825
  180SOPE   O2120510   5.519   5.853   6.691 -0.3051  0.5500  0.4169
  180SOPE   C2120511   5.581   5.757   6.753  0.1333 -0.4814  0.2924
  180SOPE   O2220512   5.705   5.754   6.769 -0.1429  0.1244  0.4645
  180SOPE   C2220513   5.492   5.650   6.800 -0.0521  0.3600  0.2315
  180SOPE   H2R20514   5.412   5.637   6.724 -1.9947  0.2089  2.1891
  180SOPE   H2S20515   5.444   5.683   6.894  1.1696 -0.9872  1.3916
  180SOPE    C320516   5.510   6.094   6.675 -0.1353 -0.5534  0.4690
  180SOPE    HX20517   5.414   6.085   6.619 -0.9360  2.6692  1.0981
  180SOPE    HY20518   5.567   6.184   6.641 -1.3644 -0.8152 -2.6558
  180SOPE   O3120519   5.480   6.101   6.816  0.3327 -0.1074 -0.3402
  180SOPE   C3120520   5.401   6.204   6.848  0.3174 -0.5416  0.5817
  180SOPE   O3220521   5.360   6.291   6.767 -0.2973  0.4168 -0.3753
  180SOPE   C3220522   5.379   6.198   6.997  0.0086  0.1318  0.3283
  180SOPE   H2X20523   5.471   6.159   7.044 -0.4385 -1.3390  0.0472
  180SOPE   H2Y20524   5.298   6.125   7.021  1.6307 -1.8317  0.1324
  180SOPE   C2320525   5.556   5.509   6.819 -1.0639 -0.0259 -0.2378
  180SOPE   H3R20526   5.650   5.498   6.761 -0.6259 -0.7590  0.5893
  180SOPE   H3S20527   5.489   5.431   6.780 -0.2813 -1.0875  0.4868
  180SOPE   C2420528   5.586   5.477   6.969  0.3478  0.0334  0.7124
  180SOPE   H4R20529   5.656   5.556   7.004 -0.5345  0.7472  0.8785
  180SOPE   H4S20530   5.484   5.491   7.009  0.2289  3.7799 -0.5505
  180SOPE   C2520531   5.645   5.333   7.007  0.1417  0.2600 -0.0533
  180SOPE   H5R20532   5.576   5.261   6.958 -0.7274  1.1355 -0.1542
  180SOPE   H5S20533   5.750   5.322   6.973  0.8331 -0.8461  2.2539
  180SOPE   C2620534   5.647   5.317   7.158 -0.8029 -0.0803 -0.2497
  180SOPE   H6R20535   5.559   5.357   7.213 -0.5806  0.0988 -0.0188
  180SOPE   H6S20536   5.647   5.209   7.185 -2.3878  0.0326  0.3178
  180SOPE   C2720537   5.766   5.395   7.220  0.2745 -0.0712  0.4737
  180SOPE   H7R20538   5.850   5.365   7.154 -0.9311  0.4027 -1.3592
  180SOPE   H7S20539   5.742   5.503   7.211  1.7683  0.2787  0.4630
  180SOPE   C2820540   5.790   5.363   7.366  0.2491  0.3991  0.2666
  180SOPE   H8R20541   5.699   5.387   7.425 -0.8115 -0.9144 -0.7661
  180SOPE   H8S20542   5.814   5.258   7.393  2.3468  0.8815  0.4519
  180SOPE   C2920543   5.901   5.450   7.410 -0.6585 -0.6523 -0.4118
  180SOPE   H9120544   5.907   5.543   7.352 -2.8770 -0.3036 -0.1795
  180SOPE  C21020545   5.997   5.416   7.495 -0.3337 -0.2179 -0.2132
  180SOPE  H10120546   6.083   5.479   7.524 -0.2998 -0.7899  0.9654
  180SOPE  C21120547   6.006   5.290   7.578  0.2600 -0.0982 -0.4432
  180SOPE  H11R20548   6.108   5.246   7.571 -0.1777 -0.9334 -1.7890
  180SOPE  H11S20549   5.928   5.213   7.559 -2.1643  1.8256  1.0552
  180SOPE  C21220550   5.992   5.327   7.731  0.3985 -0.3184  0.2791
  180SOPE  H12R20551   5.885   5.342   7.756  0.5093 -0.6408  1.0031
  180SOPE  H12S20552   6.053   5.413   7.765  0.0292 -0.2196  0.7070
  180SOPE  C21320553   6.039   5.211   7.817  0.0641  0.1885 -0.6156
  180SOPE  H13R20554   6.137   5.173   7.780  0.4245  1.0274 -0.5350
  180SOPE  H13S20555   5.962   5.130   7.816  0.8980 -0.7568  2.0302
  180SOPE  C21420556   6.073   5.243   7.963  0.3373  0.4261 -0.5014
  180SOPE  H14R20557   5.976   5.259   8.015  1.3836 -0.9070  2.0201
  180SOPE  H14S20558   6.132   5.337   7.966  2.2211 -0.6948 -0.7718
  180SOPE  C21520559   6.145   5.135   8.038  0.1473  0.2221 -0.2546
  180SOPE  H15R20560   6.237   5.103   7.984  0.2369 -0.3061  0.2128
  180SOPE  H15S20561   6.072   5.053   8.020  0.0596 -0.2613  2.0511
  180SOPE  C21620562   6.174   5.172   8.180 -0.0758 -0.3150  0.1204
  180SOPE  H16R20563   6.189   5.082   8.243 -2.0871 -0.3864  0.5680
  180SOPE  H16S20564   6.084   5.221   8.223  0.3470 -0.2397  0.9302
  180SOPE  C21720565   6.298   5.256   8.210  0.9171  0.1238  0.2847
  180SOPE  H17R20566   6.277   5.363   8.187 -1.7030 -0.4835 -0.4508
  180SOPE  H17S20567   6.379   5.221   8.142 -0.3529  0.2202 -1.3404
  180SOPE  C21820568   6.349   5.267   8.356  0.3151  0.0144 -0.1553
  180SOPE  H18R20569   6.336   5.163   8.394  0.0735 -0.2964 -1.0408
  180SOPE  H18S20570   6.291   5.327   8.429  0.5771 -0.2768  0.2908
  180SOPE  H18T20571   6.458   5.287   8.364  0.2947 -0.0160  0.1920
  180SOPE   C3320572   5.352   6.337   7.062 -0.5307 -0.4791  0.0168
  180SOPE   H3X20573   5.263   6.394   7.026  0.8291  1.0693 -1.0255
  180SOPE   H3Y20574   5.432   6.411   7.045 -0.5983  0.2210  2.4636
  180SOPE   C3420575   5.331   6.313   7.215 -1.1201 -0.0906  0.0251
  180SOPE   H4X20576   5.252   6.238   7.237  0.3796 -1.7317  0.0522
  180SOPE   H4Y20577   5.290   6.409   7.254  0.6751 -0.6963  3.9270
  180SOPE   C3520578   5.463   6.277   7.291  0.8698 -0.5537  0.4832
  180SOPE   H5X20579   5.536   6.358   7.270 -0.4012  0.2947 -0.8066
  180SOPE   H5Y20580   5.501   6.177   7.260  1.0552 -0.6534  1.0223
  180SOPE   C3620581   5.429   6.278   7.437 -0.2499 -0.5878  0.1127
  180SOPE   H6X20582   5.367   6.193   7.474  0.7702 -0.6898  1.6866
  180SOPE   H6Y20583   5.371   6.370   7.458  0.0744 -0.3763  0.0869
  180SOPE   C3720584   5.556   6.283   7.524  0.8776 -0.0494 -0.3078
  180SOPE   H7X20585   5.628   6.365   7.501  0.2600  0.1473 -1.6410
  180SOPE   H7Y20586   5.615   6.191   7.508  2.7530  1.1177 -0.3696
  180SOPE   C3820587   5.516   6.293   7.676 -0.4759  0.3925 -0.1590
  180SOPE   H8X20588   5.448   6.209   7.699  0.4691 -0.4724 -0.4478
  180SOPE   H8Y20589   5.453   6.383   7.693 -0.1534  0.7649 -0.8883
  180SOPE   C3920590   5.633   6.296   7.770  0.4257  0.3108 -0.1399
  180SOPE   H9X20591   5.590   6.352   7.855 -2.5009  0.5287 -1.6545
  180SOPE   H9Y20592   5.720   6.351   7.728  1.7554 -1.0328  0.7127
  180SOPE  C31020593   5.686   6.157   7.812  0.2584  0.8846 -0.0490
  180SOPE  H10X20594   5.775   6.131   7.751 -0.5934 -0.2870 -0.8378
  180SOPE  H10Y20595   5.615   6.078   7.780  1.9073 -0.0278 -1.6860
  180SOPE  C31120596   5.702   6.149   7.966 -0.0270  0.0227  0.8026
  180SOPE  H11X20597   5.609   6.172   8.023 -1.0900 -1.0552 -0.4408
  180SOPE  H11Y20598   5.781   6.217   8.006  1.0355 -1.2422  0.9205
  180SOPE  C31220599   5.745   6.004   8.012  0.0935 -0.5722  0.3041
  180SOPE  H12X20600   5.823   5.971   7.940  1.5756  3.5655 -0.2873
  180SOPE  H12Y20601   5.657   5.942   7.984  2.0345 -3.4579  0.2078
  180SOPE  C31320602   5.772   5.987   8.160  0.0589  0.2987 -0.8668
  180SOPE  H13X20603   5.679   6.003   8.219  1.0630  0.2228  0.8187
  180SOPE  H13Y20604   5.831   6.080   8.180 -2.8538  1.7394  2.1571
  180SOPE  C31420605   5.857   5.866   8.204  0.1382 -0.1552  0.3659
  180SOPE  H14X20606   5.916   5.829   8.117 -0.6835  1.1968 -0.8217
  180SOPE  H14Y20607   5.787   5.782   8.223  0.2271 -0.9811 -2.4902
  180SOPE  C31520608   5.943   5.893   8.330 -0.4489  0.8586 -0.2315
  180SOPE  H15X20609   6.013   5.978   8.311 -0.0206  0.2748 -1.3669
  180SOPE  H15Y20610   6.008   5.806   8.352 -0.8205  1.3573  3.5250
  180SOPE  C31620611   5.859   5.913   8.459 -0.7127  0.5597 -0.7808
  180SOPE  H16X20612   5.784   5.834   8.481 -0.1257  0.5374  1.4171
  180SOPE  H16Y20613   5.806   6.008   8.439 -0.2187  0.6905 -1.5050
  180SOPE  C31720614   5.947   5.933   8.584  0.0527 -0.1299  0.3273
  180SOPE  H17X20615   6.022   6.011   8.561  0.0112 -0.5041 -1.1326
  180SOPE  H17Y20616   5.997   5.837   8.609 -1.1289 -0.8649 -0.0724
  180SOPE  C31820617   5.869   5.975   8.702  0.1457 -0.9679 -0.2023
  180SOPE  H18X20618   5.925   5.975   8.798  1.2943  1.3884 -0.8090
  180SOPE  H18Y20619   5.786   5.903   8.723  0.1170 -0.6546  0.8029
  180SOPE  H18Z20620   5.814   6.068   8.675 -0.7973 -1.4651 -0.0521
  181SOPE     N20621   3.765   6.301   6.387 -0.1507 -0.0811  0.1728
  181SOPE   HN120622   3.685   6.234   6.394  1.3446 -1.7793  1.9401
  181SOPE   HN220623   3.837   6.256   6.328 -0.1194 -2.5935  1.9742
  181SOPE   HN320624   3.812   6.315   6.478 -0.4748  1.3160  0.1493
  181SOPE   C1220625   3.728   6.437   6.330  0.0154  0.0452  0.1296
  181SOPE  H12A20626   3.638   6.475   6.383 -0.7616  0.4393 -1.3948
  181SOPE  H12B20627   3.688   6.417   6.228  1.3779 -0.3651 -0.3405
  181SOPE   C1120628   3.838   6.546   6.342  0.4773 -0.0930  0.2545
  181SOPE  H11A20629   3.868   6.540   6.449  1.3735 -2.1104 -0.0592
  181SOPE  H11B20630   3.801   6.645   6.310  0.3948 -1.0378 -2.9428
  181SOPE     P20631   3.973   6.575   6.123  0.4306 -0.0313  0.3687
  181SOPE   O1320632   3.868   6.526   6.030  0.2807 -0.2827 -0.6286
  181SOPE   O1420633   4.110   6.571   6.077 -0.4927  0.3608  0.6553
  181SOPE   O1220634   3.957   6.509   6.272 -0.0368 -0.1679 -0.0234
  181SOPE   O1120635   3.939   6.729   6.149 -0.0922  0.5772  0.5116
  181SOPE    C120636   4.026   6.811   6.225  0.4202  0.1263 -0.1048
  181SOPE    HA20637   4.076   6.880   6.155  1.6159  2.6668  2.9793
  181SOPE    HB20638   4.106   6.759   6.282  0.4625 -1.5610 -1.6345
  181SOPE    C220639   3.945   6.897   6.330  1.0353 -0.0742  0.5775
  181SOPE    HS20640   4.000   6.989   6.359 -1.3858  2.4424 -2.1013
  181SOPE   O2120641   3.926   6.823   6.449 -0.3962 -0.1173  0.0839
  181SOPE   C2120642   4.040   6.796   6.517  0.7188  0.1401 -0.1169
  181SOPE   O2220643   4.148   6.849   6.492 -0.1382 -0.1845  0.7905
  181SOPE   C2220644   4.003   6.708   6.638 -0.3968  0.6964  0.2398
  181SOPE   H2R20645   4.066   6.616   6.632 -0.7083  0.4213  1.0464
  181SOPE   H2S20646   3.894   6.693   6.651 -0.5149  2.0527  1.1437
  181SOPE    C320647   3.810   6.949   6.271  0.7005  0.0998  0.0030
  181SOPE    HX20648   3.737   6.865   6.268 -0.1517  0.8425 -0.3079
  181SOPE    HY20649   3.829   6.974   6.165 -0.0214 -0.2986 -0.2264
  181SOPE   O3120650   3.752   7.055   6.347  0.3177 -0.6077 -0.5339
  181SOPE   C3120651   3.802   7.175   6.340  0.6970  0.3510  0.0448
  181SOPE   O3220652   3.892   7.207   6.264 -0.1854 -0.0534  0.0021
  181SOPE   C3220653   3.747   7.269   6.445  0.5774  0.5871  0.1946
  181SOPE   H2X20654   3.636   7.269   6.445  0.5181 -2.0004 -0.1264
  181SOPE   H2Y20655   3.784   7.370   6.418  1.8443 -0.3682 -1.8843
  181SOPE   C2320656   4.040   6.777   6.771 -0.1120 -0.6590  0.1523
  181SOPE   H3R20657   4.017   6.885   6.783 -0.8305 -1.0773  3.5853
  181SOPE   H3S20658   4.151   6.775   6.781 -0.0612  1.4151  0.4312
  181SOPE   C2420659   3.972   6.715   6.889 -0.0355 -0.5451 -0.1848
  181SOPE   H4R20660   3.865   6.710   6.858 -0.4151  0.5697  0.8594
  181SOPE   H4S20661   4.012   6.615   6.917  0.9942  0.0908  0.6639
  181SOPE   C2520662   3.981   6.797   7.016 -0.0054 -0.6687  0.5535
  181SOPE   H5R20663   4.086   6.829   7.031  0.5195 -1.7164 -0.6728
  181SOPE   H5S20664   3.921   6.888   6.994  0.6016 -0.4651 -0.2869
  181SOPE   C2620665   3.941   6.723   7.149  0.2705  0.6153  0.9903
  181SOPE   H6R20666   3.840   6.678   7.138  0.9892 -0.9175  0.4121
  181SOPE   H6S20667   4.008   6.637   7.166  0.3242  0.4783  0.1274
  181SOPE   C2720668   3.963   6.809   7.270  0.0351 -0.4053  0.0599
  181SOPE   H7R20669   4.073   6.822   7.268  0.2033 -1.6847 -2.0286
  181SOPE   H7S20670   3.920   6.911   7.258  0.8701  0.0146  0.5309
  181SOPE   C2820671   3.922   6.744   7.405  0.6309 -0.3334  0.8248
  181SOPE   H8R20672   3.922   6.829   7.476 -0.1589  1.1701 -0.9036
  181SOPE   H8S20673   3.823   6.694   7.411  0.4852 -0.2458 -0.5868
  181SOPE   C2920674   4.018   6.632   7.447  0.0081 -0.0302  0.3245
  181SOPE   H9120675   3.993   6.530   7.415 -0.3624  0.0366  0.3988
  181SOPE  C21020676   4.127   6.645   7.528 -0.2815 -0.3198 -0.0064
  181SOPE  H10120677   4.186   6.559   7.562  0.2631 -0.1992 -0.6299
  181SOPE  C21120678   4.158   6.770   7.606  0.2916 -0.3186 -0.5225
  181SOPE  H11R20679   4.112   6.854   7.548 -1.1291  0.7713  2.0002
  181SOPE  H11S20680   4.263   6.802   7.623 -0.4375  2.8038 -1.2031
  181SOPE  C21220681   4.082   6.772   7.740  0.4263  0.2149  0.0897
  181SOPE  H12R20682   3.978   6.738   7.720  0.0865 -0.1659  2.3100
  181SOPE  H12S20683   4.075   6.879   7.771  0.3511  0.3419 -0.3557
  181SOPE  C21320684   4.148   6.695   7.856  0.3968  0.1534  0.0373
  181SOPE  H13R20685   4.255   6.724   7.862  0.0688  2.0577 -2.0139
  181SOPE  H13S20686   4.132   6.587   7.838  0.0756  0.4324 -1.5151
  181SOPE  C21420687   4.074   6.738   7.986 -0.3209  0.4121 -0.4261
  181SOPE  H14R20688   3.968   6.761   7.964 -0.4460 -0.3984 -0.7219
  181SOPE  H14S20689   4.127   6.829   8.021 -0.1388 -0.2629  1.1644
  181SOPE  C21520690   4.091   6.643   8.105  0.1241  0.1775  0.0728
  181SOPE  H15R20691   4.195   6.606   8.103 -0.3563 -1.2094 -1.2696
  181SOPE  H15S20692   4.037   6.549   8.082  0.0835  0.2934 -0.3129
  181SOPE  C21620693   4.066   6.704   8.242  0.1129 -0.4585 -0.4048
  181SOPE  H16R20694   3.963   6.745   8.246  0.7165  1.0613  0.3097
  181SOPE  H16S20695   4.137   6.789   8.250 -0.7739  0.2359  0.2099
  181SOPE  C21720696   4.086   6.605   8.355  0.5713 -0.4541 -0.4416
  181SOPE  H17R20697   4.094   6.651   8.456 -0.5620 -0.1456 -0.4724
  181SOPE  H17S20698   4.184   6.553   8.347  2.6485  3.1773 -0.9938
  181SOPE  C21820699   3.977   6.487   8.369 -0.0050 -0.3158  0.1410
  181SOPE  H18R20700   3.993   6.430   8.462 -0.6257  0.6223  0.8394
  181SOPE  H18S20701   3.991   6.429   8.275 -0.6552 -0.4691  0.1339
  181SOPE  H18T20702   3.882   6.544   8.375 -1.0361 -2.0255  0.8554
  181SOPE   C3320703   3.788   7.237   6.587  0.2761  0.1434  0.5704
  181SOPE   H3X20704   3.770   7.133   6.620  0.1445 -0.3538 -0.9672
  181SOPE   H3Y20705   3.729   7.305   6.652 -0.7850  1.0187 -1.2094
  181SOPE   C3420706   3.938   7.252   6.608 -0.0477 -0.3855  1.0019
  181SOPE   H4X20707   3.958   7.361   6.612 -1.3676 -0.0100 -1.2984
  181SOPE   H4Y20708   3.999   7.207   6.527  0.0612  2.6924 -0.7795
  181SOPE   C3520709   3.997   7.212   6.741  0.0348  0.1468 -0.3709
  181SOPE   H5X20710   4.088   7.271   6.766 -0.7329  0.4340  1.9888
  181SOPE   H5Y20711   4.026   7.105   6.735  0.4564  0.1952  0.6954
  181SOPE   C3620712   3.905   7.218   6.862  0.0055 -0.4285  0.3774
  181SOPE   H6X20713   3.828   7.137   6.860 -0.0308 -0.4102  0.8530
  181SOPE   H6Y20714   3.845   7.311   6.848  0.8637  0.0114 -0.4816
  181SOPE   C3720715   3.982   7.223   6.996  0.3820  0.2929  0.6580
  181SOPE   H7X20716   4.063   7.298   6.985  0.6566 -0.0499  0.3027
  181SOPE   H7Y20717   4.031   7.124   7.004  0.0209  0.0961  0.4653
  181SOPE   C3820718   3.900   7.224   7.117  0.0307  0.0724  0.1148
  181SOPE   H8X20719   3.825   7.142   7.121  1.7719 -1.5358  1.8167
  181SOPE   H8Y20720   3.848   7.322   7.122 -0.3942  0.0594 -2.5907
  181SOPE   C3920721   3.982   7.198   7.249  0.3074  0.1764  0.3745
  181SOPE   H9X20722   4.074   7.260   7.250 -0.0536  0.8177 -1.4410
  181SOPE   H9Y20723   4.022   7.095   7.250 -1.0827 -0.4214  2.5533
  181SOPE  C31020724   3.883   7.212   7.370  0.9411  0.5846 -0.1475
  181SOPE  H10X20725   3.810   7.129   7.357  2.8357 -0.9613 -1.3674
  181SOPE  H10Y20726   3.834   7.311   7.359 -0.4265 -0.0078  0.3437
  181SOPE  C31120727   3.954   7.192   7.510  0.0664 -0.4023 -0.0209
  181SOPE  H11X20728   4.026   7.273   7.533  0.4783 -0.6853 -0.2873
  181SOPE  H11Y20729   4.014   7.099   7.520 -1.3557 -1.4195 -0.4057
  181SOPE  C31220730   3.853   7.183   7.625 -0.0368 -0.2452 -0.3188
  181SOPE  H12X20731   3.797   7.088   7.620  1.0964 -0.8679 -1.9498
  181SOPE  H12Y20732   3.785   7.271   7.615  0.2371  0.2195  1.5695
  181SOPE  C31320733   3.930   7.207   7.757 -0.5655  0.7384 -0.6854
  181SOPE  H13X20734   3.980   7.306   7.749 -0.6777  0.6802 -2.5907
  181SOPE  H13Y20735   4.020   7.142   7.753 -1.1261  0.0102 -2.7029
  181SOPE  C31420736   3.841   7.197   7.883 -0.2951 -0.0550  0.6550
  181SOPE  H14X20737   3.786   7.100   7.883 -0.0856 -0.2551  3.3421
  181SOPE  H14Y20738   3.769   7.281   7.890  0.1580  0.3161  0.9472
  181SOPE  C31520739   3.929   7.183   8.008 -0.2828  0.3590 -0.2057
  181SOPE  H15X20740   3.990   7.275   8.015 -1.6932  1.4658 -1.7520
  181SOPE  H15Y20741   3.999   7.102   7.978  1.0432  0.4200  2.4056
  181SOPE  C31620742   3.853   7.154   8.135 -0.4036  0.5428  0.0499
  181SOPE  H16X20743   3.797   7.058   8.128  0.1356  0.2187  0.0840
  181SOPE  H16Y20744   3.790   7.244   8.155  1.0787  1.2030  2.0004
  181SOPE  C31720745   3.954   7.131   8.248  0.0750 -0.1053  0.1752
  181SOPE  H17X20746   4.033   7.059   8.220 -0.3358  0.0516 -1.5347
  181SOPE  H17Y20747   3.893   7.090   8.331 -0.8954 -0.6450 -0.7648
  181SOPE  C31820748   4.021   7.262   8.288  0.3200  0.0145  0.2564
  181SOPE  H18X20749   3.944   7.342   8.281  1.2745  0.8139 -1.6573
  181SOPE  H18Y20750   4.087   7.289   8.203 -0.2391 -0.0343 -0.2037
  181SOPE  H18Z20751   4.065   7.264   8.390 -1.1422 -0.0312  0.9141
  182SOPE     N20752   3.329   4.672   6.430 -0.2947 -0.6916 -0.0826
  182SOPE   HN120753   3.317   4.570   6.412 -0.6857 -0.6018 -0.3572
  182SOPE   HN220754   3.249   4.722   6.385 -1.0466 -3.1915 -1.7393
  182SOPE   HN320755   3.413   4.705   6.378 -1.5318  0.8027 -1.2256
  182SOPE   C1220756   3.339   4.699   6.578  0.5668 -0.1665  0.1850
  182SOPE  H12A20757   3.405   4.624   6.628 -0.7414 -1.2698  0.3070
  182SOPE  H12B20758   3.240   4.686   6.627  0.0469  0.3531 -0.7062
  182SOPE   C1120759   3.385   4.849   6.622 -0.2836  0.1428  0.2703
  182SOPE  H11A20760   3.389   4.854   6.733 -0.1443 -2.7143  0.4880
  182SOPE  H11B20761   3.307   4.918   6.584  1.0522  0.2864 -2.4523
  182SOPE     P20762   3.565   5.032   6.561  0.2486  0.2149 -0.2268
  182SOPE   O1320763   3.499   5.086   6.441 -0.1483  0.0587  0.7600
  182SOPE   O1420764   3.711   5.042   6.580 -1.0407  0.4714 -0.5702
  182SOPE   O1220765   3.512   4.880   6.561  0.5836  0.0660  0.2646
  182SOPE   O1120766   3.500   5.091   6.692 -0.1408  0.1335  0.5022
  182SOPE    C120767   3.535   5.047   6.818  0.7942 -0.6706 -0.3793
  182SOPE    HA20768   3.553   4.938   6.819  0.5938 -0.7088 -0.7839
  182SOPE    HB20769   3.451   5.068   6.888  3.4680 -0.0578  2.9339
  182SOPE    C220770   3.659   5.113   6.876 -0.0953  0.6586  0.0389
  182SOPE    HS20771   3.745   5.106   6.807 -0.1283 -0.4081  0.0998
  182SOPE   O2120772   3.686   5.035   6.998 -0.6356 -0.8675  0.4603
  182SOPE   C2120773   3.808   4.973   6.999  0.1460 -0.4125  0.1402
  182SOPE   O2220774   3.898   4.980   6.922  0.0825 -0.0791  1.2178
  182SOPE   C2220775   3.804   4.876   7.123  0.5162  0.0496 -0.6066
  182SOPE   H2R20776   3.906   4.841   7.151 -1.0314 -4.7233 -0.0038
  182SOPE   H2S20777   3.751   4.787   7.083  0.4003 -1.5892  2.8257
  182SOPE    C320778   3.631   5.266   6.907  0.2924  1.5133 -0.3391
  182SOPE    HX20779   3.554   5.263   6.987  0.3062 -0.5916 -0.3473
  182SOPE    HY20780   3.583   5.315   6.820 -2.3017  1.2496  0.8692
  182SOPE   O3120781   3.739   5.326   6.973 -0.5685 -0.2646  0.1848
  182SOPE   C3120782   3.838   5.374   6.895  0.3470  0.4110  0.4633
  182SOPE   O3220783   3.840   5.378   6.771 -0.6928  0.1478 -0.2515
  182SOPE   C3220784   3.926   5.446   6.987  0.2294  0.5454 -0.2574
  182SOPE   H2X20785   4.010   5.485   6.924  0.3262 -0.0268 -0.4859
  182SOPE   H2Y20786   3.974   5.380   7.062 -1.2609 -0.5024 -0.1986
  182SOPE   C2320787   3.737   4.936   7.255  0.2487  0.2406 -0.3402
  182SOPE   H3R20788   3.719   4.855   7.328  1.3349  0.8904  0.6979
  182SOPE   H3S20789   3.638   4.975   7.223 -2.2021 -3.5450  1.8976
  182SOPE   C2420790   3.824   5.045   7.327 -0.0619  0.4258  0.2915
  182SOPE   H4R20791   3.806   5.026   7.435  2.4204  0.4528  0.7606
  182SOPE   H4S20792   3.933   5.025   7.318 -0.0328  0.6928  0.0359
  182SOPE   C2520793   3.797   5.193   7.282 -0.2653 -0.3893 -0.6803
  182SOPE   H5R20794   3.886   5.254   7.256 -0.8185  0.6978 -0.0829
  182SOPE   H5S20795   3.745   5.191   7.184 -1.9530  0.7677  0.1337
  182SOPE   C2620796   3.711   5.275   7.381 -0.6982  0.0820  0.2629
  182SOPE   H6R20797   3.704   5.377   7.339 -1.9968 -0.4700 -0.9526
  182SOPE   H6S20798   3.606   5.239   7.385 -0.0904 -1.9054 -0.1760
  182SOPE   C2720799   3.781   5.281   7.515 -1.0026 -0.3283  0.0750
  182SOPE   H7R20800   3.788   5.179   7.559 -0.3040  0.3568  1.6424
  182SOPE   H7S20801   3.884   5.312   7.486 -2.0632  2.0924 -1.3452
  182SOPE   C2820802   3.717   5.388   7.602 -0.1773  0.0796 -0.3262
  182SOPE   H8R20803   3.691   5.477   7.541 -3.1896 -0.9016 -0.6553
  182SOPE   H8S20804   3.616   5.350   7.629  0.2754  0.0851  1.5174
  182SOPE   C2920805   3.806   5.409   7.717  0.1807 -0.0653  0.1318
  182SOPE   H9120806   3.908   5.419   7.676 -0.0837  2.1999 -0.0749
  182SOPE  C21020807   3.784   5.404   7.848  0.3320 -0.1912 -0.2807
  182SOPE  H10120808   3.871   5.426   7.913  1.0925 -1.1547 -0.9369
  182SOPE  C21120809   3.654   5.368   7.920 -0.2895 -0.2428 -0.6362
  182SOPE  H11R20810   3.671   5.293   8.000  1.4542  1.0126  0.2211
  182SOPE  H11S20811   3.575   5.337   7.848 -0.5954  1.4715 -1.0879
  182SOPE  C21220812   3.609   5.508   7.965  0.9879 -0.3383  0.5821
  182SOPE  H12R20813   3.503   5.501   7.997  0.7017 -0.0004 -0.2562
  182SOPE  H12S20814   3.612   5.581   7.881 -0.3133 -1.8002 -0.8040
  182SOPE  C21320815   3.679   5.560   8.090  0.1229  1.4248  0.0103
  182SOPE  H13R20816   3.783   5.587   8.063 -0.2296  3.8492  0.8396
  182SOPE  H13S20817   3.677   5.477   8.164 -0.1742 -0.9664 -2.5437
  182SOPE  C21420818   3.607   5.686   8.142 -0.4670  0.3072  0.2306
  182SOPE  H14R20819   3.503   5.660   8.171 -1.1086  1.8692 -0.5555
  182SOPE  H14S20820   3.597   5.760   8.059 -0.7859  0.1937  0.1695
  182SOPE  C21520821   3.688   5.763   8.250  0.0123 -0.2387 -0.4313
  182SOPE  H15R20822   3.783   5.793   8.200  0.0683 -0.4330 -0.4441
  182SOPE  H15S20823   3.719   5.696   8.334  0.0410  0.6349  0.2638
  182SOPE  C21620824   3.604   5.880   8.300 -0.0974  0.0516  0.5702
  182SOPE  H16R20825   3.497   5.849   8.312  0.6268 -2.6435  0.6890
  182SOPE  H16S20826   3.596   5.952   8.216 -1.6269 -0.1641  0.4977
  182SOPE  C21720827   3.657   5.952   8.432 -0.4121 -0.0613 -0.3652
  182SOPE  H17R20828   3.766   5.963   8.416 -0.1456 -1.7529  0.1689
  182SOPE  H17S20829   3.648   5.883   8.519  0.4713  0.9130  0.5210
  182SOPE  C21820830   3.593   6.092   8.461 -0.1942 -0.3472 -0.1855
  182SOPE  H18R20831   3.599   6.154   8.368 -0.0526 -1.3488 -0.8632
  182SOPE  H18S20832   3.647   6.140   8.545  0.9317 -2.6441  0.4948
  182SOPE  H18T20833   3.487   6.080   8.492 -0.3876 -1.2627 -1.1226
  182SOPE   C3320834   3.870   5.561   7.062  0.3886  0.0334 -0.1412
  182SOPE   H3X20835   3.785   5.517   7.119  1.6745 -3.5587 -0.7178
  182SOPE   H3Y20836   3.833   5.646   7.001  0.9424  0.0734 -0.4296
  182SOPE   C3420837   3.964   5.605   7.175 -0.0702 -0.3154 -0.2991
  182SOPE   H4X20838   4.055   5.650   7.130  1.2926 -1.8230  0.8208
  182SOPE   H4Y20839   4.008   5.513   7.219 -0.0186  1.0930  2.9237
  182SOPE   C3520840   3.893   5.680   7.290 -0.0306  0.2194 -0.4931
  182SOPE   H5X20841   3.800   5.631   7.326  2.1011 -3.4939  0.4540
  182SOPE   H5Y20842   3.869   5.781   7.250 -1.6405 -0.9959 -2.8300
  182SOPE   C3620843   3.995   5.687   7.413 -1.1508 -0.3803  0.1058
  182SOPE   H6X20844   4.094   5.712   7.371 -0.4025 -0.9633  1.4526
  182SOPE   H6Y20845   4.013   5.593   7.469 -0.9653 -0.5859 -0.2957
  182SOPE   C3720846   3.958   5.800   7.503 -0.3531 -0.2735  0.0829
  182SOPE   H7X20847   3.908   5.877   7.442  0.7405 -0.1690 -0.7084
  182SOPE   H7Y20848   4.045   5.847   7.553 -0.2672  2.2307 -2.2142
  182SOPE   C3820849   3.861   5.742   7.611 -0.0768 -1.0982  0.2211
  182SOPE   H8X20850   3.918   5.671   7.674  0.3765 -2.6461 -1.8428
  182SOPE   H8Y20851   3.789   5.676   7.559 -1.4167 -1.6915  2.6362
  182SOPE   C3920852   3.789   5.843   7.696  0.4853 -0.1619 -0.2517
  182SOPE   H9X20853   3.716   5.786   7.756  0.6171 -0.6931 -0.5869
  182SOPE   H9Y20854   3.734   5.911   7.627 -0.1478 -3.8696 -3.8285
  182SOPE  C31020855   3.882   5.928   7.791  0.5274  0.5125 -0.0123
  182SOPE  H10X20856   3.821   5.999   7.850  1.7593  0.6797  1.1140
  182SOPE  H10Y20857   3.963   5.974   7.730  1.5563  0.7710  1.4779
  182SOPE  C31120858   3.940   5.831   7.900 -0.0256  0.0207 -0.2478
  182SOPE  H11X20859   4.028   5.773   7.863  1.2219 -0.0216  2.5233
  182SOPE  H11Y20860   3.857   5.762   7.924 -0.1179  0.2507  0.0982
  182SOPE  C31220861   3.991   5.904   8.024 -0.1594 -0.2540 -0.5537
  182SOPE  H12X20862   3.914   5.974   8.064 -0.1739 -0.0452 -0.9361
  182SOPE  H12Y20863   4.063   5.983   7.994  0.8763 -0.6831  0.7317
  182SOPE  C31320864   4.060   5.819   8.131  0.4084  0.2229 -0.5559
  182SOPE  H13X20865   4.136   5.746   8.093  0.1789  0.1176 -0.8118
  182SOPE  H13Y20866   3.987   5.749   8.177  1.5276 -0.9583 -0.4854
  182SOPE  C31420867   4.125   5.905   8.240 -0.5257  0.0682 -0.5621
  182SOPE  H14X20868   4.056   5.991   8.250  2.0263  2.0468  1.7467
  182SOPE  H14Y20869   4.217   5.945   8.191  0.0855 -0.7623 -0.1119
  182SOPE  C31520870   4.152   5.849   8.381 -0.1824 -0.4657  0.2992
  182SOPE  H15X20871   4.052   5.805   8.403 -1.1729  0.7042 -1.5962
  182SOPE  H15Y20872   4.181   5.937   8.443 -0.3746 -0.2198  0.0419
  182SOPE  C31620873   4.267   5.747   8.381 -0.3398  0.0566  0.0585
  182SOPE  H16X20874   4.360   5.801   8.352 -0.0443 -0.4017  0.1302
  182SOPE  H16Y20875   4.255   5.666   8.306 -0.8255 -0.8761  1.1118
  182SOPE  C31720876   4.300   5.683   8.519  0.3500 -0.0607 -0.3339
  182SOPE  H17X20877   4.320   5.758   8.598  0.3941 -0.4622  0.0373
  182SOPE  H17Y20878   4.393   5.628   8.491  0.2862 -0.1378 -0.3961
  182SOPE  C31820879   4.196   5.583   8.572  0.1308 -0.2129 -0.0245
  182SOPE  H18X20880   4.217   5.577   8.681  0.7536 -1.9624 -0.2118
  182SOPE  H18Y20881   4.213   5.481   8.532 -2.0590 -0.8958  0.6111
  182SOPE  H18Z20882   4.089   5.613   8.563 -0.0391 -0.6553  0.4904
  183SOPE     N20883   5.761   2.566   6.131  0.5539 -0.1634 -0.9909
  183SOPE   HN120884   5.701   2.640   6.090 -0.6619 -0.3006  0.4936
  183SOPE   HN220885   5.797   2.513   6.049 -0.4094 -0.0087 -1.5231
  183SOPE   HN320886   5.701   2.512   6.196  0.8481 -0.0614 -0.6262
  183SOPE   C1220887   5.894   2.617   6.203  0.4683 -0.2783 -0.1566
  183SOPE  H12A20888   5.955   2.531   6.238 -0.7953 -1.1581 -0.0326
  183SOPE  H12B20889   5.867   2.681   6.290  0.4335  0.8672 -0.9856
  183SOPE   C1120890   5.991   2.696   6.114  0.3534 -0.1635  0.1650
  183SOPE  H11A20891   6.033   2.635   6.031 -1.5710 -1.9613  0.4331
  183SOPE  H11B20892   6.075   2.735   6.174 -0.1277  2.1179 -0.5355
  183SOPE     P20893   5.925   2.951   6.108  0.4200  0.0052  0.0500
  183SOPE   O1320894   5.810   3.031   6.068  0.1467 -0.5253  0.3044
  183SOPE   O1420895   6.057   3.010   6.066 -0.2204 -0.1246 -0.1952
  183SOPE   O1220896   5.915   2.801   6.050 -0.1028  0.7291 -0.1673
  183SOPE   O1120897   5.931   2.926   6.260 -0.0486  0.0676  0.6006
  183SOPE    C120898   5.826   2.987   6.342 -0.4607  0.3605  0.4375
  183SOPE    HA20899   5.733   2.930   6.324 -0.7790  0.6097  1.2393
  183SOPE    HB20900   5.812   3.095   6.323  1.4466  1.0502  2.4698
  183SOPE    C220901   5.855   2.964   6.497 -0.8290  0.0804  0.2609
  183SOPE    HS20902   5.935   3.038   6.519 -1.6434  1.5104 -1.3232
  183SOPE   O2120903   5.895   2.821   6.522 -0.4793 -0.1545  0.1432
  183SOPE   C2120904   5.974   2.810   6.621  0.4926 -0.0358 -0.3587
  183SOPE   O2220905   6.021   2.893   6.694 -0.0237 -0.0509  0.0133
  183SOPE   C2220906   6.012   2.662   6.632  0.1592 -0.2097 -0.2101
  183SOPE   H2R20907   6.090   2.648   6.554  0.1635 -1.0892 -0.0638
  183SOPE   H2S20908   5.930   2.591   6.609  0.2613 -0.7714  1.0870
  183SOPE    C320909   5.730   2.996   6.568  0.7716 -0.7057 -0.1374
  183SOPE    HX20910   5.662   2.912   6.543  0.5012 -0.2518 -0.9588
  183SOPE    HY20911   5.695   3.096   6.535  0.8708 -0.8177 -0.5832
  183SOPE   O3120912   5.745   2.994   6.709  0.0478  0.1741  0.5616
  183SOPE   C3120913   5.798   3.108   6.760 -0.4536 -0.6250  0.4120
  183SOPE   O3220914   5.810   3.216   6.702  0.2866 -0.0067  0.4240
  183SOPE   C3220915   5.827   3.094   6.910  0.6080  0.6258  0.2335
  183SOPE   H2X20916   5.900   3.012   6.928 -0.2535  0.1337  1.6547
  183SOPE   H2Y20917   5.731   3.071   6.962  0.3187 -4.5637 -1.9797
  183SOPE   C2320918   6.083   2.637   6.766  0.0054 -0.7043 -0.4402
  183SOPE   H3R20919   6.162   2.713   6.779 -0.3395 -0.4603  0.2773
  183SOPE   H3S20920   6.141   2.544   6.746  3.0464  1.3778 -1.9471
  183SOPE   C2420921   5.992   2.616   6.888  0.1962 -0.6615  0.5393
  183SOPE   H4R20922   5.944   2.714   6.906 -2.2385 -0.8498 -3.6773
  183SOPE   H4S20923   5.907   2.545   6.877  0.6154 -1.0870 -0.0227
  183SOPE   C2520924   6.075   2.580   7.009  0.5336  0.2963  0.4890
  183SOPE   H5R20925   6.108   2.476   6.988 -1.3526 -0.3431  0.4689
  183SOPE   H5S20926   6.166   2.642   7.024  0.9710 -0.4281  0.9014
  183SOPE   C2620927   5.996   2.570   7.141  0.3264  0.1460  0.2372
  183SOPE   H6R20928   5.976   2.674   7.173 -0.3854  1.4256 -3.8555
  183SOPE   H6S20929   5.903   2.510   7.130  0.8678 -0.3067 -2.9842
  183SOPE   C2720930   6.097   2.513   7.244 -0.0846 -0.1867  0.0409
  183SOPE   H7R20931   6.123   2.406   7.231 -0.2339 -0.3843  1.2608
  183SOPE   H7S20932   6.188   2.577   7.249  0.1460 -0.5882  1.2965
  183SOPE   C2820933   6.040   2.515   7.391 -0.0474  0.1237 -0.0295
  183SOPE   H8R20934   6.115   2.476   7.463 -1.0296 -2.2159 -0.2005
  183SOPE   H8S20935   6.016   2.620   7.421 -0.4808  0.3448 -1.1159
  183SOPE   C2920936   5.918   2.428   7.406 -0.1926 -0.0403  0.4275
  183SOPE   H9120937   5.881   2.394   7.308  0.7912 -1.6099  0.5650
  183SOPE  C21020938   5.864   2.387   7.524 -0.6666 -0.0890 -0.3648
  183SOPE  H10120939   5.772   2.326   7.531 -0.8524  0.2599  0.3195
  183SOPE  C21120940   5.903   2.434   7.665 -0.7520  0.5849  1.0612
  183SOPE  H11R20941   6.013   2.438   7.680 -0.6589  2.5411  0.1752
  183SOPE  H11S20942   5.852   2.367   7.738 -1.1510 -2.1610 -1.5566
  183SOPE  C21220943   5.864   2.581   7.689 -0.7264 -0.4590 -0.3813
  183SOPE  H12R20944   5.760   2.609   7.662 -0.6890 -0.7992 -0.8791
  183SOPE  H12S20945   5.940   2.641   7.633  0.1485 -0.2583  0.9638
  183SOPE  C21320946   5.869   2.607   7.842  0.0429 -0.4805 -0.2374
  183SOPE  H13R20947   5.824   2.517   7.889  0.2212 -0.4985 -0.0988
  183SOPE  H13S20948   5.821   2.705   7.865 -0.0204 -0.6077  0.1917
  183SOPE  C21420949   6.015   2.624   7.890  0.6517 -0.2092 -0.9995
  183SOPE  H14R20950   6.085   2.644   7.806  1.1167  3.5656  0.0850
  183SOPE  H14S20951   6.050   2.532   7.941 -0.2880 -1.2925 -2.2285
  183SOPE  C21520952   6.034   2.752   7.980 -0.2449 -0.1372 -0.3584
  183SOPE  H15R20953   6.007   2.835   7.912  0.4786 -0.6159 -1.2501
  183SOPE  H15S20954   6.143   2.754   8.000  0.1367  2.5667 -2.1979
  183SOPE  C21620955   5.951   2.762   8.109  0.2378 -0.4415  0.2160
  183SOPE  H16R20956   5.974   2.674   8.173  1.2652 -1.0224 -0.8959
  183SOPE  H16S20957   5.842   2.773   8.092  0.2978  1.6623  0.9565
  183SOPE  C21720958   5.994   2.876   8.193 -0.7305 -0.3233  0.1376
  183SOPE  H17R20959   5.967   2.970   8.140  1.6306  0.1485 -0.3756
  183SOPE  H17S20960   6.104   2.871   8.208 -0.7107 -3.4499 -0.4947
  183SOPE  C21820961   5.927   2.892   8.327 -0.8747  0.7274 -0.5006
  183SOPE  H18R20962   5.958   2.985   8.380  2.4881 -0.5701  0.1055
  183SOPE  H18S20963   5.949   2.812   8.401 -2.1491  1.2197  0.4419
  183SOPE  H18T20964   5.817   2.897   8.319 -0.8715  0.8058 -0.4940
  183SOPE   C3320965   5.884   3.226   6.969 -0.8074 -0.6982 -0.3770
  183SOPE   H3X20966   5.836   3.316   6.926  0.5724 -0.2916 -1.1562
  183SOPE   H3Y20967   5.991   3.220   6.939 -0.6218 -0.1083  0.1463
  183SOPE   C3420968   5.871   3.222   7.126  0.0629  0.6039  0.0221
  183SOPE   H4X20969   5.923   3.133   7.168  0.8767  1.3580  0.6672
  183SOPE   H4Y20970   5.764   3.199   7.147  0.5950 -3.3663 -0.8365
  183SOPE   C3520971   5.910   3.353   7.198 -0.3475  0.0700  0.1150
  183SOPE   H5X20972   5.859   3.443   7.158 -0.0744  0.6296  0.9922
  183SOPE   H5Y20973   6.018   3.371   7.181 -0.4191 -0.9446 -1.5979
  183SOPE   C3620974   5.902   3.332   7.351  0.8568 -0.1736 -0.0623
  183SOPE   H6X20975   5.968   3.246   7.374  2.4197  0.5595 -1.6290
  183SOPE   H6Y20976   5.797   3.309   7.381 -0.3699  3.5223 -0.9837
  183SOPE   C3720977   5.934   3.460   7.425  0.7006 -0.3941 -0.3239
  183SOPE   H7X20978   5.863   3.543   7.405  2.6214  1.3923 -0.1462
  183SOPE   H7Y20979   6.035   3.494   7.394 -0.8074  2.3479 -2.7473
  183SOPE   C3820980   5.943   3.431   7.577  0.0809  0.4106 -0.5952
  183SOPE   H8X20981   6.033   3.374   7.610  0.2499  0.8313 -0.3313
  183SOPE   H8Y20982   5.870   3.355   7.612 -0.4213  1.4995  0.7557
  183SOPE   C3920983   5.943   3.558   7.656  0.3085 -0.5282  0.7070
  183SOPE   H9X20984   5.858   3.623   7.626  1.5729  0.7032 -0.2995
  183SOPE   H9Y20985   6.041   3.603   7.630  0.4632 -0.4888  1.3290
  183SOPE  C31020986   5.943   3.550   7.815 -0.5547 -0.0927  0.6926
  183SOPE  H10X20987   6.044   3.523   7.850  0.4902 -2.6360 -3.5418
  183SOPE  H10Y20988   5.874   3.466   7.841 -0.5862 -0.6017 -0.8879
  183SOPE  C31120989   5.906   3.677   7.883 -0.2043  0.5673 -0.4560
  183SOPE  H11X20990   5.836   3.650   7.965 -0.0354  2.8921  0.5398
  183SOPE  H11Y20991   5.839   3.742   7.823 -0.2890  0.8776 -0.0301
  183SOPE  C31220992   6.025   3.755   7.951 -0.4421  0.0788  0.3048
  183SOPE  H12X20993   6.115   3.779   7.891 -0.9057  0.2918 -0.3206
  183SOPE  H12Y20994   6.073   3.682   8.019 -0.0862 -0.6542 -0.7244
  183SOPE  C31320995   5.975   3.874   8.035 -0.4702 -0.0767  0.1856
  183SOPE  H13X20996   5.867   3.850   8.038 -0.0339 -2.2992 -0.3342
  183SOPE  H13Y20997   6.001   3.963   7.973 -2.9641  1.8814  1.7477
  183SOPE  C31420998   6.042   3.889   8.171  0.0118  0.5314  0.3292
  183SOPE  H14X20999   6.027   3.792   8.222 -2.4291  0.9657  0.5320
  183SOPE  H14Y21000   5.991   3.970   8.227 -0.1610  0.7209 -0.0945
  183SOPE  C31521001   6.187   3.936   8.155 -0.4339 -0.7512  0.1023
  183SOPE  H15X21002   6.185   4.038   8.110 -0.7777 -0.5136  0.6501
  183SOPE  H15Y21003   6.229   3.868   8.077 -0.2653 -3.2079  2.2187
  183SOPE  C31621004   6.266   3.934   8.290  0.0131 -0.6906 -0.3729
  183SOPE  H16X21005   6.197   3.941   8.376  0.4693  0.1415 -0.0640
  183SOPE  H16Y21006   6.334   4.021   8.297  0.7534 -1.3627  1.2468
  183SOPE  C31721007   6.361   3.814   8.290  0.4956  0.1665 -0.3645
  183SOPE  H17X21008   6.434   3.826   8.207  0.8280  3.3249  0.2758
  183SOPE  H17Y21009   6.306   3.720   8.265 -0.7421  0.8170 -0.1679
  183SOPE  C31821010   6.434   3.781   8.424 -0.5440 -0.0685  1.1388
  183SOPE  H18X21011   6.367   3.727   8.493 -0.1232 -0.2344  1.4222
  183SOPE  H18Y21012   6.474   3.876   8.467 -0.6698  0.5579 -0.0710
  183SOPE  H18Z21013   6.524   3.719   8.401 -1.6411 -0.8344 -1.4948
  184SOPE     N21014   0.141   3.088   5.963 -0.0226  0.9093  0.2956
  184SOPE   HN121015   0.127   3.020   5.885 -0.3533 -0.8537  1.8205
  184SOPE   HN221016   0.181   3.178   5.930  0.1600  0.3907 -0.9601
  184SOPE   HN321017   0.221   3.060   6.024 -0.7154  2.5374  2.0484
  184SOPE   C1221018   0.015   3.105   6.040  0.5907  0.2087  0.3108
  184SOPE  H12A21019  -0.023   3.003   6.062  2.5422 -0.7400 -0.4638
  184SOPE  H12B21020  -0.064   3.145   5.972 -0.6687  2.7158  3.0211
  184SOPE   C1121021   0.026   3.197   6.164  0.2025  0.0995  0.2628
  184SOPE  H11A21022   0.089   3.156   6.245  0.2030 -2.0169 -0.7532
  184SOPE  H11B21023  -0.080   3.197   6.198 -0.0283 -1.2177 -0.4163
  184SOPE     P21024   0.065   3.447   6.227 -0.0332 -0.2899  0.0302
  184SOPE   O1321025  -0.079   3.470   6.268 -0.5731 -0.0716  0.3716
  184SOPE   O1421026   0.121   3.561   6.150  0.1265  0.2517 -0.0669
  184SOPE   O1221027   0.073   3.328   6.126  0.2669 -0.4212  0.5870
  184SOPE   O1121028   0.158   3.410   6.358 -0.7008  0.0434  0.2132
  184SOPE    C121029   0.096   3.328   6.461 -0.6904 -0.1898  0.0231
  184SOPE    HA21030   0.130   3.224   6.441  0.5124  0.0072  0.9222
  184SOPE    HB21031  -0.015   3.335   6.460 -0.5986  3.2757  0.6485
  184SOPE    C221032   0.134   3.366   6.607 -0.3375  0.0052 -0.6841
  184SOPE    HS21033   0.089   3.466   6.626  0.3301  0.1986 -0.1123
  184SOPE   O2121034   0.274   3.357   6.633  0.6581 -0.5435 -0.2512
  184SOPE   C2121035   0.340   3.463   6.612 -0.0786 -0.2825  0.0216
  184SOPE   O2221036   0.304   3.574   6.578 -0.4252 -0.1799 -0.4324
  184SOPE   C2221037   0.481   3.426   6.636  0.0792  0.1896 -0.0181
  184SOPE   H2R21038   0.527   3.372   6.550  0.8998  1.5523 -0.4740
  184SOPE   H2S21039   0.493   3.368   6.729 -1.0164 -0.1008 -0.0563
  184SOPE    C321040   0.063   3.276   6.713 -0.8461 -0.2662 -0.4291
  184SOPE    HX21041   0.145   3.205   6.735 -0.1509  1.3332  2.7237
  184SOPE    HY21042  -0.026   3.231   6.664 -2.0096  0.9039  0.5401
  184SOPE   O3121043   0.021   3.344   6.832 -0.6422  0.4079 -0.1604
  184SOPE   C3121044   0.105   3.341   6.933 -0.7485 -0.0111  0.0820
  184SOPE   O3221045   0.221   3.301   6.927 -0.2548  0.0957  0.2068
  184SOPE   C3221046   0.053   3.398   7.063  0.1967 -0.0829  0.3235
  184SOPE   H2X21047  -0.037   3.343   7.099  0.1389  0.6730  1.3531
  184SOPE   H2Y21048   0.006   3.495   7.037 -3.6763 -1.1623  2.4198
  184SOPE   C2321049   0.578   3.548   6.646  0.6297 -0.3435  0.6129
  184SOPE   H3R21050   0.587   3.596   6.546  2.2483  1.2580  1.4729
  184SOPE   H3S21051   0.677   3.500   6.664  0.9039 -0.9446 -2.1024
  184SOPE   C2421052   0.543   3.658   6.746 -0.1546 -0.1936  0.1039
  184SOPE   H4R21053   0.635   3.721   6.748  0.8822 -1.6824  0.8534
  184SOPE   H4S21054   0.451   3.714   6.718  1.0834  0.7548 -2.4041
  184SOPE   C2521055   0.517   3.602   6.886 -0.4039  1.2642 -0.2112
  184SOPE   H5R21056   0.425   3.541   6.881 -0.2910  1.0750 -0.0187
  184SOPE   H5S21057   0.603   3.539   6.917 -0.2339  1.1007 -0.9932
  184SOPE   C2621058   0.486   3.703   6.991  0.3528  0.0140  0.3698
  184SOPE   H6R21059   0.553   3.791   6.979 -0.9226  0.6478 -3.5339
  184SOPE   H6S21060   0.385   3.749   6.982  0.3232 -0.1612 -0.2222
  184SOPE   C2721061   0.503   3.640   7.128  0.0877  0.6440 -0.0524
  184SOPE   H7R21062   0.436   3.552   7.128 -2.3062  2.3573 -0.5887
  184SOPE   H7S21063   0.611   3.617   7.139  0.5847  2.2998 -1.1648
  184SOPE   C2821064   0.458   3.731   7.252 -0.3451  0.3031 -0.4865
  184SOPE   H8R21065   0.488   3.837   7.233 -1.0600  1.1707  2.5979
  184SOPE   H8S21066   0.347   3.730   7.242 -0.4480  0.8635  0.4296
  184SOPE   C2921067   0.503   3.673   7.389 -0.1214 -0.1604 -0.1464
  184SOPE   H9121068   0.542   3.571   7.387 -1.0293 -0.5171 -0.4117
  184SOPE  C21021069   0.490   3.738   7.504  0.0387  0.2371 -0.2776
  184SOPE  H10121070   0.510   3.690   7.601  0.3370  2.9446  1.0941
  184SOPE  C21121071   0.440   3.872   7.529  0.2583  0.3443  0.3400
  184SOPE  H11R21072   0.421   3.928   7.435  1.1485  0.1571  0.0378
  184SOPE  H11S21073   0.517   3.934   7.579  0.9949  0.2142 -0.5912
  184SOPE  C21221074   0.299   3.874   7.597  0.5265 -0.6524 -0.0546
  184SOPE  H12R21075   0.226   3.822   7.531  0.3677  0.1839 -0.5626
  184SOPE  H12S21076   0.267   3.980   7.598  1.6836 -0.2913 -0.0901
  184SOPE  C21321077   0.290   3.829   7.743  0.3757  0.9493 -0.4173
  184SOPE  H13R21078   0.345   3.901   7.807  0.7136  0.6952 -0.4176
  184SOPE  H13S21079   0.342   3.732   7.760 -1.1761  0.0457 -0.6611
  184SOPE  C21421080   0.149   3.843   7.801  0.2619  0.2853 -0.3332
  184SOPE  H14R21081   0.081   3.762   7.768 -1.3922  1.1043  0.9003
  184SOPE  H14S21082   0.104   3.935   7.757  1.1174  0.5562 -0.6540
  184SOPE  C21521083   0.153   3.848   7.956  0.1049  0.2134  0.7556
  184SOPE  H15R21084   0.198   3.946   7.985 -1.9213  1.6712 -0.7306
  184SOPE  H15S21085   0.222   3.765   7.983  0.4560 -0.0589 -0.8451
  184SOPE  C21621086   0.013   3.832   8.017  0.3379  0.6552 -0.2466
  184SOPE  H16R21087  -0.036   3.740   7.976 -2.0423  2.2585 -1.2629
  184SOPE  H16S21088  -0.050   3.916   7.979  1.5185  1.8400  0.3640
  184SOPE  C21721089   0.017   3.848   8.167  0.1281  0.5435 -0.5492
  184SOPE  H17R21090   0.122   3.839   8.200  0.8937 -1.2597 -3.1124
  184SOPE  H17S21091  -0.046   3.766   8.209 -1.8272  1.2603 -1.8947
  184SOPE  C21821092  -0.043   3.982   8.211 -0.5444  0.1023  0.9987
  184SOPE  H18R21093  -0.139   3.986   8.157 -0.7313 -2.2337  1.0504
  184SOPE  H18S21094   0.030   4.055   8.170  0.2170 -1.2919 -0.2219
  184SOPE  H18T21095  -0.059   3.991   8.321  2.0109 -0.2462  1.4700
  184SOPE   C3321096   0.150   3.410   7.180 -0.1924 -0.4241 -0.5452
  184SOPE   H3X21097   0.225   3.491   7.168 -1.3174  0.5924 -0.9122
  184SOPE   H3Y21098   0.207   3.315   7.182 -1.7574 -1.4077 -0.1711
  184SOPE   C3421099   0.081   3.425   7.313  0.0349 -0.3362 -0.3340
  184SOPE   H4X21100   0.011   3.339   7.322  0.1744 -0.4520 -0.3564
  184SOPE   H4Y21101   0.024   3.519   7.331  3.0203  1.1271  2.6691
  184SOPE   C3521102   0.171   3.435   7.441  0.3294 -0.0930  0.6955
  184SOPE   H5X21103   0.215   3.538   7.443  0.5333 -0.0713 -1.6434
  184SOPE   H5Y21104   0.256   3.364   7.443  0.0042 -0.4954  0.3159
  184SOPE   C3621105   0.072   3.410   7.563  0.1814 -0.7274 -1.0733
  184SOPE   H6X21106   0.026   3.309   7.562  2.1597 -1.7193  0.2272
  184SOPE   H6Y21107  -0.014   3.480   7.552  0.8044  0.3534  0.5116
  184SOPE   C3721108   0.138   3.433   7.703  0.6086  0.6392 -0.0423
  184SOPE   H7X21109   0.179   3.536   7.705 -3.1028  2.3077 -1.0563
  184SOPE   H7Y21110   0.227   3.373   7.732  1.2791  2.3413  1.6089
  184SOPE   C3821111   0.050   3.407   7.825  0.6369 -0.1266  0.3174
  184SOPE   H8X21112   0.025   3.299   7.825 -0.5616  0.1301 -0.7290
  184SOPE   H8Y21113  -0.039   3.473   7.817 -0.1194 -0.9418  1.7159
  184SOPE   C3921114   0.124   3.443   7.960 -0.7110 -0.2658  0.2677
  184SOPE   H9X21115   0.176   3.540   7.946 -0.1224 -0.4649  1.0185
  184SOPE   H9Y21116   0.192   3.357   7.980 -2.7110 -1.8578  0.5452
  184SOPE  C31021117   0.033   3.455   8.084  0.6610  0.4056  0.3261
  184SOPE  H10X21118  -0.023   3.359   8.093  1.6840 -0.2609 -0.2924
  184SOPE  H10Y21119  -0.042   3.537   8.072  0.7684  0.5659  0.7238
  184SOPE  C31121120   0.126   3.491   8.201 -0.2111  0.5200 -0.4945
  184SOPE  H11X21121   0.168   3.594   8.198 -3.4492  2.1077  2.1140
  184SOPE  H11Y21122   0.204   3.414   8.219 -0.1666  0.7936  0.5034
  184SOPE  C31221123   0.049   3.485   8.332 -0.1867  0.1472 -0.2144
  184SOPE  H12X21124   0.022   3.380   8.354  1.0020  0.1887  1.6598
  184SOPE  H12Y21125  -0.053   3.529   8.331 -0.5964 -0.6508  1.6741
  184SOPE  C31321126   0.137   3.530   8.449  1.2734 -0.6678 -0.4629
  184SOPE  H13X21127   0.073   3.550   8.539  1.1240 -0.6855 -0.5642
  184SOPE  H13Y21128   0.180   3.629   8.424  0.8513 -0.3253  0.1122
  184SOPE  C31421129   0.260   3.436   8.470  0.2815 -1.4469  0.1155
  184SOPE  H14X21130   0.330   3.464   8.388 -0.5280 -2.8019 -1.0846
  184SOPE  H14Y21131   0.237   3.328   8.468 -0.7695 -1.2477  0.5768
  184SOPE  C31521132   0.335   3.464   8.600  0.1863  0.1133  0.4710
  184SOPE  H15X21133   0.331   3.574   8.616 -1.8483  0.0488  0.5521
  184SOPE  H15Y21134   0.443   3.442   8.584  0.3507  1.4057 -0.3803
  184SOPE  C31621135   0.257   3.392   8.709  0.0140  0.1984 -0.2393
  184SOPE  H16X21136   0.255   3.282   8.699  0.1906  0.3244 -1.9229
  184SOPE  H16Y21137   0.158   3.443   8.704  0.5230  1.2061 -0.2412
  184SOPE  C31721138   0.312   3.427   8.849 -0.1905 -0.0212 -0.3618
  184SOPE  H17X21139   0.333   3.536   8.854 -0.5670  0.1528 -1.9377
  184SOPE  H17Y21140   0.413   3.381   8.857 -0.9786 -1.6499  0.7924
  184SOPE  C31821141   0.223   3.360   8.958  0.0200 -0.4931 -0.9185
  184SOPE  H18X21142   0.196   3.256   8.931 -2.6518  0.5139 -2.4963
  184SOPE  H18Y21143   0.126   3.412   8.969  0.3897 -0.0022  0.2947
  184SOPE  H18Z21144   0.283   3.364   9.052  0.4115 -0.0582 -1.1836
  185SAPI   C1221145   3.685   5.978  11.044 -0.0453 -0.1224  0.4144
  185SAPI    H221146   3.727   5.972  10.941 -1.9803 -1.5989 -0.3666
  185SAPI    O221147   3.745   5.864  11.118  0.4062 -0.2839 -0.2684
  185SAPI   HO221148   3.696   5.786  11.092 -1.8911  1.5000 -1.7472
  185SAPI   C1321149   3.718   6.113  11.108  0.0589 -0.0255  0.4662
  185SAPI    H321150   3.660   6.182  11.044 -1.8959 -1.6457  0.3815
  185SAPI    O321151   3.859   6.134  11.101  0.4659 -0.1575  1.1004
  185SAPI   HO321152   3.885   6.068  11.165 -2.0274 -2.8361 -0.3885
  185SAPI   C1421153   3.665   6.123  11.252 -0.0495 -0.0172  1.2128
  185SAPI    H421154   3.708   6.049  11.322  0.2962  1.1285  2.2531
  185SAPI    O421155   3.698   6.250  11.317 -0.6876  0.5035  0.1284
  185SAPI   HO421156   3.793   6.250  11.331 -0.5880  1.0602 -0.5044
  185SAPI   C1521157   3.515   6.103  11.248 -0.1507 -0.4046  0.2699
  185SAPI    H521158   3.479   6.186  11.184 -1.1529 -0.6537  0.4817
  185SAPI    O521159   3.459   6.115  11.383 -0.1083  0.4134 -0.3266
  185SAPI   HO521160   3.427   6.203  11.404 -0.9082 -0.0237  0.3560
  185SAPI   C1621161   3.472   5.973  11.174  0.0350 -0.1202 -0.0954
  185SAPI    H621162   3.504   5.883  11.232  1.5752  0.8507  0.6225
  185SAPI    O621163   3.333   5.966  11.162  0.3317  0.0271  0.3872
  185SAPI   HO621164   3.314   5.954  11.068  1.4458  0.4284  0.0929
  185SAPI   C1121165   3.532   5.967  11.034 -0.1342 -0.3739 -0.1128
  185SAPI    H121166   3.505   6.055  10.972  1.8143  1.6094  1.6972
  185SAPI     P21167   3.400   5.838  10.845 -0.1804 -0.1552 -0.0842
  185SAPI   O1321168   3.287   5.917  10.907 -0.2543  0.9415  0.4044
  185SAPI   O1421169   3.381   5.696  10.819 -0.1488  0.0262  0.5329
  185SAPI   O1221170   3.511   5.843  10.964  0.2464  0.0232 -0.2986
  185SAPI   O1121171   3.463   5.917  10.720  0.1191  0.4901 -0.7674
  185SAPI    C121172   3.577   5.846  10.663 -0.3517 -0.4353  0.2927
  185SAPI    HA21173   3.658   5.921  10.651 -0.6830  0.2488  2.0582
  185SAPI    HB21174   3.617   5.759  10.719 -1.2552 -1.5487 -0.7336
  185SAPI    C221175   3.562   5.785  10.516  0.0432 -0.0025 -0.5160
  185SAPI    HS21176   3.665   5.746  10.498 -0.1214 -1.1616  0.8642
  185SAPI   O2121177   3.533   5.886  10.427  0.2661 -0.2420 -0.4082
  185SAPI   C2121178   3.553   5.877  10.305 -0.4028  0.6912  0.0658
  185SAPI   O2221179   3.627   5.793  10.250 -0.1666 -0.1373  0.6895
  185SAPI   C2221180   3.487   5.991  10.224  0.0924  0.0603  1.2281
  185SAPI   H2R21181   3.410   5.927  10.175  1.2381 -0.0467 -0.4898
  185SAPI   H2S21182   3.447   6.065  10.297  0.4492 -0.1431  1.6360
  185SAPI    C321183   3.456   5.666  10.507 -0.4520  0.0964  0.0449
  185SAPI    HX21184   3.352   5.703  10.508 -0.3103  0.5908 -1.2420
  185SAPI    HY21185   3.464   5.597  10.594 -1.5805 -0.4558 -0.2747
  185SAPI   O3121186   3.475   5.593  10.388  0.0164  0.4062 -0.2006
  185SAPI   C3121187   3.400   5.480  10.385  0.6051 -0.6554  1.1298
  185SAPI   O3221188   3.341   5.439  10.479  0.1253  0.2995 -0.9733
  185SAPI   C3221189   3.396   5.415  10.246 -0.2915 -1.0120 -0.7179
  185SAPI   H2X21190   3.341   5.320  10.260  0.2067 -1.2849 -0.5720
  185SAPI   H2Y21191   3.497   5.372  10.231  0.7473  0.8495  0.4555
  185SAPI   C2321192   3.559   6.054  10.100 -0.3776 -0.2847  0.4011
  185SAPI   H3R21193   3.583   5.973  10.028 -0.2366  1.0946 -1.1818
  185SAPI   H3S21194   3.660   6.090  10.129 -0.1669  0.3000 -0.9750
  185SAPI   C2421195   3.492   6.169  10.031 -0.0343  0.2483 -0.0409
  185SAPI   H4R21196   3.568   6.214   9.963 -0.4657  2.8507  1.0988
  185SAPI   H4S21197   3.461   6.249  10.101 -2.3227 -0.4074 -0.2357
  185SAPI   C2521198   3.375   6.112   9.957  0.0866  0.3511  0.1922
  185SAPI   H5R21199   3.293   6.074  10.018 -1.8990  2.0675 -1.2540
  185SAPI   C2621200   3.360   6.106   9.826  0.6567 -0.4456  0.5549
  185SAPI   H6R21201   3.260   6.075   9.794 -0.2951  1.3277  1.6302
  185SAPI   C2721202   3.452   6.148   9.722 -0.0111 -0.6391 -0.0293
  185SAPI   H7R21203   3.505   6.234   9.770  0.2915  0.0833 -1.5852
  185SAPI   H7S21204   3.401   6.189   9.632  1.0047 -1.3857 -0.9785
  185SAPI   C2821205   3.563   6.058   9.690 -0.1654  0.5293 -0.0812
  185SAPI   H8R21206   3.602   5.987   9.765 -2.0508 -0.1501  0.3303
  185SAPI   C2921207   3.630   6.048   9.572 -0.2053  0.0460  0.1418
  185SAPI   H9R21208   3.712   5.975   9.559  0.1345  0.1634  1.5475
  185SAPI  C21021209   3.598   6.126   9.442  0.5309 -0.3499 -0.0438
  185SAPI  H10R21210   3.488   6.117   9.433  0.7025 -1.2737 -1.5319
  185SAPI  H10S21211   3.646   6.077   9.355  1.7365  1.3364 -0.3732
  185SAPI  C21121212   3.633   6.271   9.454  0.2022 -0.3375  0.2286
  185SAPI  H11R21213   3.695   6.295   9.542  0.5601 -0.3194 -0.0277
  185SAPI  C21221214   3.608   6.372   9.366 -0.0227  0.2367 -0.5521
  185SAPI  H12R21215   3.630   6.476   9.392  0.2891  0.6559 -2.3670
  185SAPI  C21321216   3.520   6.355   9.243 -0.4382 -0.7157 -0.5026
  185SAPI  H13R21217   3.414   6.362   9.277 -0.4748  0.6551 -0.8336
  185SAPI  H13S21218   3.540   6.254   9.202  0.5603  0.6000 -3.5288
  185SAPI  C21421219   3.543   6.460   9.137 -0.3605 -0.3282  1.1142
  185SAPI  H14R21220   3.455   6.523   9.115  1.5099  1.8453 -0.6559
  185SAPI  C21521221   3.633   6.459   9.038 -0.2925  0.1725  0.0236
  185SAPI  H15R21222   3.628   6.529   8.954  4.0731  0.9180  0.1760
  185SAPI  C21621223   3.746   6.367   9.033  0.5667  0.6133  0.1371
  185SAPI  H16R21224   3.739   6.290   9.113  0.0156 -0.3777 -0.8436
  185SAPI  H16S21225   3.848   6.411   9.035  0.7064  0.2755  1.4586
  185SAPI  C21721226   3.746   6.285   8.901 -0.5876  0.1961 -0.4331
  185SAPI  H17R21227   3.728   6.345   8.810 -1.5282  1.6875  0.6937
  185SAPI  H17S21228   3.646   6.237   8.904  0.4253 -2.2649 -2.2261
  185SAPI  C21821229   3.859   6.189   8.882 -0.9155 -0.6302 -0.5842
  185SAPI  H18R21230   3.891   6.141   8.977 -0.1661 -0.0666 -0.5425
  185SAPI  H18S21231   3.947   6.243   8.839  0.1010 -1.7090  0.0804
  185SAPI  C21921232   3.840   6.084   8.774  0.3493 -0.3249 -0.1813
  185SAPI  H19R21233   3.811   6.139   8.682  0.7666  0.6109  0.2306
  185SAPI  H19S21234   3.761   6.011   8.803 -0.7159  0.8395 -0.0597
  185SAPI  C22021235   3.970   6.005   8.737  0.4387  0.6173 -0.2704
  185SAPI  H20R21236   4.019   5.969   8.830  0.1811  0.9982  0.0129
  185SAPI  H20S21237   4.036   6.075   8.681  0.1454  1.8157  0.8362
  185SAPI  H20T21238   3.933   5.918   8.678  0.0368  1.1690 -0.8434
  185SAPI   C3321239   3.331   5.517  10.144 -0.4867  0.0015  0.6296
  185SAPI   H3X21240   3.367   5.621  10.161 -0.6432  0.3806 -1.1611
  185SAPI   H3Y21241   3.221   5.527  10.150 -0.5855 -0.0642 -0.6257
  185SAPI   C3421242   3.395   5.482  10.004  0.2606  0.2906 -0.2282
  185SAPI   H4X21243   3.317   5.417   9.959  1.0838 -0.7214 -0.2220
  185SAPI   H4Y21244   3.491   5.427  10.010  0.3495  0.3957 -0.6905
  185SAPI   C3521245   3.423   5.600   9.912  0.2634 -0.3364  0.1959
  185SAPI   H5X21246   3.515   5.649   9.951  1.3549 -0.5687 -1.9727
  185SAPI   H5Y21247   3.346   5.678   9.927  0.1108 -0.8317  2.3729
  185SAPI   C3621248   3.436   5.554   9.769  0.4318  0.1126  0.1518
  185SAPI   H6X21249   3.338   5.533   9.722  0.5718  3.0533 -1.7386
  185SAPI   H6Y21250   3.499   5.463   9.762  0.8175  0.3255  0.8069
  185SAPI   C3721251   3.490   5.658   9.680  0.4646 -0.8116  0.0200
  185SAPI   H7X21252   3.586   5.689   9.724 -1.1760  1.2678  2.4110
  185SAPI   H7Y21253   3.437   5.754   9.697 -0.4813 -1.5849  1.6417
  185SAPI   C3821254   3.468   5.633   9.527 -0.9119 -0.5996 -0.1067
  185SAPI   H8X21255   3.359   5.648   9.513 -1.5021 -1.2461  3.0641
  185SAPI   H8Y21256   3.499   5.534   9.486 -0.9973 -0.7865  0.2763
  185SAPI   C3921257   3.549   5.737   9.439  1.0938  0.2337  0.0195
  185SAPI   H9X21258   3.658   5.717   9.446  1.0962  0.7678  4.3827
  185SAPI   H9Y21259   3.540   5.842   9.476  0.2306 -0.2423  1.2304
  185SAPI  C31021260   3.511   5.740   9.293  0.6736  0.5014 -0.7684
  185SAPI  H10X21261   3.407   5.778   9.278 -0.3087 -0.4894  2.6539
  185SAPI  H10Y21262   3.525   5.638   9.253  0.2938  1.4222 -3.4527
  185SAPI  C31121263   3.611   5.825   9.207 -0.4906  0.1193 -0.2702
  185SAPI  H11X21264   3.719   5.814   9.234  0.2625  1.6284 -2.3834
  185SAPI  H11Y21265   3.571   5.928   9.213 -1.8054 -0.3999  0.3314
  185SAPI  C31221266   3.611   5.780   9.062  0.8524  0.3549  0.0314
  185SAPI  H12X21267   3.626   5.670   9.063 -0.1246  0.1819 -1.2188
  185SAPI  H12Y21268   3.696   5.825   9.007  1.4078  1.6166  1.8200
  185SAPI  C31321269   3.477   5.814   8.996  0.1519  0.5774  0.3475
  185SAPI  H13X21270   3.455   5.922   9.008  1.1579  0.8484 -0.1535
  185SAPI  H13Y21271   3.398   5.751   9.041  0.1562 -1.2371 -1.9773
  185SAPI  C31421272   3.465   5.786   8.843  0.0753  0.2779 -0.8655
  185SAPI  H14X21273   3.473   5.677   8.823  1.6121  0.1066  0.5116
  185SAPI  H14Y21274   3.553   5.834   8.796  0.4578  0.3905 -0.0528
  185SAPI  C31521275   3.343   5.852   8.776  0.3227 -0.0883  0.2565
  185SAPI  H15X21276   3.374   5.878   8.672 -2.2744 -2.4606 -1.2832
  185SAPI  H15Y21277   3.298   5.936   8.833  0.1073 -0.3592  0.4863
  185SAPI  C31621278   3.228   5.753   8.743  0.0231 -0.1165 -0.2258
  185SAPI  H16X21279   3.251   5.665   8.681  0.1386 -1.2184  1.3146
  185SAPI  H16Y21280   3.160   5.812   8.677  0.5875  0.3125 -0.4300
  185SAPI  C31721281   3.145   5.702   8.863  0.5166 -0.1231 -0.2824
  185SAPI  H17X21282   3.132   5.790   8.929  1.1409  0.3462 -0.7776
  185SAPI  H17Y21283   3.217   5.648   8.927  1.7336  0.4345 -1.1523
  185SAPI  C31821284   3.023   5.620   8.830  0.5786  0.6598  0.1882
  185SAPI  H18X21285   3.048   5.546   8.751  0.0159  0.2421  0.3934
  185SAPI  H18Y21286   2.940   5.680   8.788  0.7726  0.1831 -0.9047
  185SAPI  H18Z21287   2.988   5.568   8.922 -0.0048 -1.2560 -1.0515
  186SAPI   C1221288   5.450   5.639  10.912  0.5893  0.6440 -0.4935
  186SAPI    H221289   5.437   5.672  11.018  1.3828  0.6969 -0.4054
  186SAPI    O221290   5.577   5.678  10.868  0.0869 -0.2583 -0.3276
  186SAPI   HO221291   5.574   5.771  10.844  0.0038  0.1163  1.0898
  186SAPI   C1321292   5.422   5.491  10.904 -0.5135 -0.5866  0.2361
  186SAPI    H321293   5.327   5.468  10.956  0.5994 -0.0783  2.6197
  186SAPI    O321294   5.522   5.435  10.987 -0.2109  0.3665  0.3510
  186SAPI   HO321295   5.606   5.462  10.949  1.0577  0.5813  3.0702
  186SAPI   C1421296   5.434   5.449  10.760 -0.6700 -0.1898  0.4831
  186SAPI    H421297   5.537   5.461  10.721 -2.0925  2.6052 -2.9916
  186SAPI    O421298   5.416   5.300  10.758  0.1600 -0.1265  0.5662
  186SAPI   HO421299   5.494   5.262  10.799 -0.1944 -0.6868  0.7315
  186SAPI   C1521300   5.328   5.515  10.677 -0.1334 -0.3598  0.5033
  186SAPI    H521301   5.226   5.484  10.710 -0.2772  1.1967  1.6381
  186SAPI    O521302   5.334   5.479  10.539  0.0357 -0.0117  0.1200
  186SAPI   HO521303   5.283   5.549  10.497 -2.2709  0.2021  2.9302
  186SAPI   C1621304   5.337   5.671  10.695  0.1626  0.0903 -0.1813
  186SAPI    H621305   5.428   5.718  10.653 -0.2427  1.2058  0.1474
  186SAPI    O621306   5.227   5.731  10.626 -0.1766  0.6244 -0.0485
  186SAPI   HO621307   5.237   5.826  10.633  0.0795  0.6515 -0.7139
  186SAPI   C1121308   5.336   5.712  10.844  1.0331  0.0207 -0.3979
  186SAPI    H121309   5.239   5.680  10.889 -0.7790  3.0147 -1.8218
  186SAPI     P21310   5.231   5.962  10.882 -0.4597 -0.2352 -0.0291
  186SAPI   O1321311   5.300   6.084  10.935  0.4985 -0.3024 -0.2220
  186SAPI   O1421312   5.124   5.907  10.960  0.0849 -0.6637 -0.7718
  186SAPI   O1221313   5.351   5.850  10.860 -0.5513  0.3885 -0.0287
  186SAPI   O1121314   5.183   5.980  10.726  0.2292  0.0579  0.0531
  186SAPI    C121315   5.184   6.112  10.659 -0.1481  0.5723 -1.0642
  186SAPI    HA21316   5.076   6.138  10.649 -0.3129 -0.2539 -1.5229
  186SAPI    HB21317   5.226   6.194  10.721 -1.7833 -0.4885  1.6187
  186SAPI    C221318   5.250   6.099  10.524  0.6132  0.1171 -0.2661
  186SAPI    HS21319   5.265   6.204  10.490  0.2611  1.0689  2.2756
  186SAPI   O2121320   5.161   6.025  10.430 -0.3664  0.1455  0.9686
  186SAPI   C2121321   5.060   6.097  10.392  0.3091 -0.0812  0.0348
  186SAPI   O2221322   5.049   6.218  10.411  0.1844  0.1804 -0.0760
  186SAPI   C2221323   4.964   6.017  10.322  0.4994 -0.3283 -0.3571
  186SAPI   H2R21324   5.020   5.935  10.273  1.4672 -0.7708  1.4055
  186SAPI   H2S21325   4.894   5.974  10.397  1.1152 -0.1515  0.3235
  186SAPI    C321326   5.389   6.029  10.529  0.4331 -0.2045  0.0628
  186SAPI    HX21327   5.386   5.930  10.580 -2.5730  0.0541  0.5605
  186SAPI    HY21328   5.456   6.094  10.588 -0.0821  1.0262 -0.6592
  186SAPI   O3121329   5.447   6.019  10.398 -0.6459  0.1119  0.6209
  186SAPI   C3121330   5.495   6.134  10.335  0.3706  0.4375  0.1577
  186SAPI   O3221331   5.498   6.244  10.384  0.1846  0.2092 -0.4043
  186SAPI   C3221332   5.538   6.101  10.197  0.0795  0.6719 -0.4163
  186SAPI   H2X21333   5.449   6.081  10.134  1.4122 -1.2786 -1.8232
  186SAPI   H2Y21334   5.603   6.011  10.190 -0.4274  0.3388 -1.0176
  186SAPI   C2321335   4.881   6.094  10.214 -0.4168  0.6794  0.1710
  186SAPI   H3R21336   4.820   6.179  10.250 -2.3758  0.2538 -1.8777
  186SAPI   H3S21337   4.814   6.016  10.170  0.9383 -1.1048  1.1354
  186SAPI   C2421338   4.973   6.160  10.109 -0.5655 -0.6839  0.6239
  186SAPI   H4R21339   5.068   6.103  10.099  0.7890  1.5421 -0.0103
  186SAPI   H4S21340   5.019   6.249  10.157 -0.4442 -0.0955 -0.5411
  186SAPI   C2521341   4.909   6.200   9.977  0.3046 -0.1428  0.0752
  186SAPI   H5R21342   4.812   6.245  10.004  0.7516  0.3965  0.8164
  186SAPI   C2621343   4.948   6.194   9.846  0.0989  0.5685  0.2775
  186SAPI   H6R21344   4.864   6.209   9.776 -1.7725 -2.3104  1.6976
  186SAPI   C2721345   5.071   6.135   9.794 -0.1203  1.3751 -0.8102
  186SAPI   H7R21346   5.062   6.110   9.687  2.0561 -2.0472 -0.3747
  186SAPI   H7S21347   5.088   6.039   9.848 -0.7425  1.8129  0.1974
  186SAPI   C2821348   5.191   6.215   9.819 -0.6878  0.1912 -0.5314
  186SAPI   H8R21349   5.234   6.226   9.920 -0.0272 -0.0285 -0.7826
  186SAPI   C2921350   5.262   6.283   9.724 -0.5556  0.4313  0.4362
  186SAPI   H9R21351   5.344   6.344   9.763  1.1680 -0.9514 -0.8879
  186SAPI  C21021352   5.224   6.293   9.578 -0.2507 -0.0602  0.1564
  186SAPI  H10R21353   5.233   6.397   9.539  1.5678  0.2030  1.1186
  186SAPI  H10S21354   5.117   6.270   9.565 -0.8472  2.8396 -0.8334
  186SAPI  C21121355   5.301   6.192   9.497 -0.3152  0.4041 -0.2743
  186SAPI  H11R21356   5.294   6.090   9.537 -0.5566 -0.5933 -2.6611
  186SAPI  C21221357   5.349   6.204   9.369  0.2059 -0.2615 -0.1724
  186SAPI  H12R21358   5.395   6.115   9.325 -1.9425 -0.8373 -1.4049
  186SAPI  C21321359   5.329   6.318   9.276  0.1944  0.0993  0.6072
  186SAPI  H13R21360   5.333   6.414   9.332 -1.7579  0.8628 -0.4633
  186SAPI  H13S21361   5.221   6.318   9.250 -0.0554  1.8331  1.4865
  186SAPI  C21421362   5.415   6.330   9.157 -0.3411  0.3068  0.1875
  186SAPI  H14R21363   5.513   6.376   9.176  0.1179 -0.6082  0.0710
  186SAPI  C21521364   5.377   6.304   9.024 -0.4391  0.0972 -0.5288
  186SAPI  H15R21365   5.450   6.324   8.945 -0.5924 -0.0315 -0.7040
  186SAPI  C21621366   5.243   6.249   8.985 -0.4128 -0.3634  0.1583
  186SAPI  H16R21367   5.156   6.282   9.046  0.0575  1.0738  0.0814
  186SAPI  H16S21368   5.247   6.138   8.992  2.3211 -0.5539 -2.5567
  186SAPI  C21721369   5.195   6.301   8.849 -0.4269  0.2309  0.3405
  186SAPI  H17R21370   5.107   6.242   8.815 -0.4333  0.5733 -0.2644
  186SAPI  H17S21371   5.263   6.269   8.768  0.4721  0.7438  0.8762
  186SAPI  C21821372   5.177   6.453   8.848  0.3198  0.7728 -0.7660
  186SAPI  H18R21373   5.275   6.496   8.817  0.1772  2.9134  1.4610
  186SAPI  H18S21374   5.145   6.483   8.950 -0.3356 -0.2066 -0.6725
  186SAPI  C21921375   5.050   6.489   8.768 -0.1378  0.4748  0.3942
  186SAPI  H19R21376   5.010   6.588   8.801 -0.9594 -0.5254  2.6655
  186SAPI  H19S21377   4.979   6.416   8.812  0.1334  0.6412  1.1353
  186SAPI  C22021378   5.058   6.481   8.619  0.4684  0.6903 -0.3570
  186SAPI  H20R21379   5.101   6.385   8.586 -0.9644  0.4296 -1.5616
  186SAPI  H20S21380   5.128   6.547   8.563  1.4332 -1.1134 -1.3565
  186SAPI  H20T21381   4.961   6.494   8.566  0.2955  1.8402  0.2024
  186SAPI   C3321382   5.623   6.218  10.144  0.4339  0.6923  0.0469
  186SAPI   H3X21383   5.703   6.237  10.219 -1.1325  1.1455  1.6452
  186SAPI   H3Y21384   5.568   6.314  10.140  1.3208  1.3183  1.8715
  186SAPI   C3421385   5.684   6.201  10.005 -0.1523  0.2401 -0.1925
  186SAPI   H4X21386   5.612   6.151   9.936  0.7976  0.4147 -1.3349
  186SAPI   H4Y21387   5.780   6.146   9.999  0.9120  1.9180  0.7230
  186SAPI   C3521388   5.716   6.337   9.940  0.5033 -0.3264 -0.1231
  186SAPI   H5X21389   5.766   6.397  10.020  0.0414 -0.0756 -0.0195
  186SAPI   H5Y21390   5.624   6.395   9.918  0.9813 -0.2095 -1.9238
  186SAPI   C3621391   5.792   6.334   9.803  0.3249  0.1506  0.0851
  186SAPI   H6X21392   5.885   6.273   9.803  2.0202  2.6053 -0.2230
  186SAPI   H6Y21393   5.832   6.434   9.774  0.8511 -0.0647  0.0663
  186SAPI   C3721394   5.706   6.284   9.683  0.0699 -0.3959 -0.0585
  186SAPI   H7X21395   5.629   6.362   9.663 -0.2919 -0.5723  0.6328
  186SAPI   H7Y21396   5.647   6.195   9.712 -1.2647 -0.0650 -1.6626
  186SAPI   C3821397   5.785   6.255   9.557  0.1185  0.3447  0.2627
  186SAPI   H8X21398   5.841   6.347   9.530  1.9116 -1.1576 -1.4750
  186SAPI   H8Y21399   5.716   6.245   9.471  0.0928  2.7445 -0.0844
  186SAPI   C3921400   5.869   6.132   9.553  0.7528 -0.6264 -0.0079
  186SAPI   H9X21401   5.797   6.050   9.575  0.3642 -1.8527 -4.7450
  186SAPI   H9Y21402   5.962   6.128   9.614 -0.0285  0.2912  1.2781
  186SAPI  C31021403   5.902   6.105   9.408  0.1494 -0.5350  0.4162
  186SAPI  H10X21404   5.814   6.105   9.340  1.0662  0.1039 -0.8082
  186SAPI  H10Y21405   5.944   6.002   9.398  0.7222 -0.3580  0.9791
  186SAPI  C31121406   6.013   6.197   9.351 -0.3209 -0.0040  0.0312
  186SAPI  H11X21407   6.106   6.157   9.396 -0.9819 -1.9998 -0.2676
  186SAPI  H11Y21408   6.002   6.306   9.369  1.9796  1.1695 -4.2945
  186SAPI  C31221409   6.031   6.185   9.194 -0.4542  0.0285 -0.7432
  186SAPI  H12X21410   6.050   6.079   9.168  1.9051  0.6313 -1.7888
  186SAPI  H12Y21411   6.125   6.234   9.160 -0.7448 -0.1028 -1.7678
  186SAPI  C31321412   5.917   6.241   9.111  0.0079 -0.0501 -0.1187
  186SAPI  H13X21413   5.887   6.341   9.147  1.6501 -0.4464  2.6462
  186SAPI  H13Y21414   5.829   6.173   9.112  0.3291 -0.4949 -0.8387
  186SAPI  C31421415   5.958   6.253   8.964 -0.6667  0.4947  0.8501
  186SAPI  H14X21416   5.869   6.260   8.897 -0.0144 -1.3855 -0.2896
  186SAPI  H14Y21417   5.997   6.156   8.925 -0.4958  0.3490  1.3731
  186SAPI  C31521418   6.051   6.373   8.929  0.9894  0.0048  0.0429
  186SAPI  H15X21419   6.145   6.367   8.988  1.3542  2.1284 -0.2523
  186SAPI  H15Y21420   5.995   6.459   8.972 -0.7537 -1.1051  0.0931
  186SAPI  C31621421   6.071   6.403   8.780 -0.0506 -0.0624  0.0882
  186SAPI  H16X21422   5.985   6.384   8.712  1.6214 -2.3674 -1.5498
  186SAPI  H16Y21423   6.150   6.332   8.748  0.5033  0.5333  0.1080
  186SAPI  C31721424   6.118   6.555   8.756  0.0450 -0.1020 -0.4048
  186SAPI  H17X21425   6.225   6.571   8.780 -0.2322  1.9814 -0.3582
  186SAPI  H17Y21426   6.051   6.615   8.821  0.3604 -0.8894  0.6804
  186SAPI  C31821427   6.115   6.592   8.614  1.1696  0.4896 -0.4605
  186SAPI  H18X21428   6.163   6.522   8.542 -1.2936 -0.5201 -1.2532
  186SAPI  H18Y21429   6.145   6.698   8.604  2.1613  0.3029  0.3926
  186SAPI  H18Z21430   6.014   6.592   8.567  0.1718 -0.7026  1.5240
  187SAPI   C1221431   6.046   1.100   5.995 -0.4337 -0.1284  0.4889
  187SAPI    H221432   6.016   1.015   6.060 -1.5717 -0.1974 -0.0952
  187SAPI    O221433   6.185   1.075   5.973 -0.4981 -0.7484 -0.5165
  187SAPI   HO221434   6.219   1.017   6.042  0.5792  0.0323 -0.3625
  187SAPI   C1321435   5.981   1.096   5.856 -0.7142  0.4549  0.0276
  187SAPI    H321436   5.871   1.114   5.864 -0.4501  1.7022  1.1367
  187SAPI    O321437   5.991   0.969   5.781  0.0369  0.0079  0.2790
  187SAPI   HO321438   5.952   0.902   5.838 -0.6204 -1.2766 -1.5827
  187SAPI   C1421439   6.031   1.212   5.772 -0.2676  0.4911 -0.5082
  187SAPI    H421440   6.140   1.193   5.765  0.0007  1.7095  0.0995
  187SAPI    O421441   5.981   1.211   5.637 -0.2645  0.2293 -0.3462
  187SAPI   HO421442   5.904   1.154   5.632 -1.3018  1.1941  2.5861
  187SAPI   C1521443   6.017   1.350   5.829 -0.1422  0.6035 -0.0787
  187SAPI    H521444   5.909   1.377   5.824 -0.1843  0.9859  2.1161
  187SAPI    O521445   6.096   1.443   5.755  0.7465  0.0197  0.3622
  187SAPI   HO521446   6.058   1.450   5.667 -0.2018  0.2206  0.7799
  187SAPI   C1621447   6.068   1.346   5.970  0.8692 -0.0392 -0.7998
  187SAPI    H621448   6.176   1.320   5.962  0.7278 -1.5293  1.3802
  187SAPI    O621449   6.041   1.464   6.044 -0.2445  0.5887 -0.2841
  187SAPI   HO621450   6.047   1.441   6.137  2.3067 -2.4077 -1.0200
  187SAPI   C1121451   6.012   1.238   6.054 -0.0655 -0.4134 -0.1809
  187SAPI    H121452   5.901   1.245   6.052  0.0091  0.6663 -1.0246
  187SAPI     P21453   5.969   1.245   6.322 -0.2801 -0.5109 -0.2050
  187SAPI   O1321454   5.840   1.311   6.287  0.0152 -0.0692  0.2853
  187SAPI   O1421455   6.045   1.315   6.432  0.7559 -0.1430 -0.0701
  187SAPI   O1221456   6.062   1.245   6.193 -0.3716  0.1715  0.0751
  187SAPI   O1121457   5.947   1.094   6.349 -0.0733  0.0766  0.1240
  187SAPI    C121458   6.037   1.024   6.427 -0.7561 -0.0023  0.2839
  187SAPI    HA21459   6.087   0.954   6.357  1.5047  0.9447  0.8627
  187SAPI    HB21460   6.111   1.087   6.481 -0.9278 -0.2006  0.7628
  187SAPI    C221461   5.966   0.941   6.529  0.5269 -0.2135  0.1662
  187SAPI    HS21462   5.890   0.888   6.468  0.0766  0.8025 -0.1745
  187SAPI   O2121463   5.911   1.033   6.631 -0.0005  0.0074 -0.5258
  187SAPI   C2121464   5.791   1.001   6.666 -0.1113 -0.2768  0.4153
  187SAPI   O2221465   5.732   0.898   6.643  0.3307 -0.8335 -0.3635
  187SAPI   C2221466   5.736   1.106   6.750  0.3528 -0.2338 -0.4099
  187SAPI   H2R21467   5.807   1.192   6.755 -0.1587  0.2483 -1.1707
  187SAPI   H2S21468   5.650   1.151   6.696  0.0573 -2.5026 -1.9625
  187SAPI    C321469   6.061   0.834   6.592 -0.0325 -0.1738  0.3047
  187SAPI    HX21470   6.131   0.885   6.661  0.0077  0.2422 -0.0392
  187SAPI    HY21471   6.120   0.790   6.509  1.1256 -0.1853  1.1177
  187SAPI   O3121472   5.987   0.741   6.666 -0.1564 -0.3460 -0.0705
  187SAPI   C3121473   6.055   0.637   6.710  0.0003 -0.1689 -0.1634
  187SAPI   O3221474   6.172   0.622   6.706  0.5009  0.2696 -0.3149
  187SAPI   C3221475   5.955   0.532   6.751  0.0190  0.2755 -0.2213
  187SAPI   H2X21476   6.010   0.435   6.755 -1.9036 -0.8403  0.3020
  187SAPI   H2Y21477   5.882   0.516   6.669 -1.7512  4.1918  0.3569
  187SAPI   C2321478   5.698   1.063   6.901  0.3591 -0.4934  0.3604
  187SAPI   H3R21479   5.668   0.956   6.901  1.4649 -0.8263 -0.3265
  187SAPI   H3S21480   5.620   1.125   6.949  2.0888  0.5516  1.9729
  187SAPI   C2421481   5.825   1.076   6.985  0.8255  0.6458 -0.0141
  187SAPI   H4R21482   5.864   1.179   6.998 -0.4621  1.3955 -1.6987
  187SAPI   H4S21483   5.896   1.018   6.923 -1.3793 -1.1920 -0.9631
  187SAPI   C2521484   5.816   1.018   7.121 -0.5355 -0.2386 -0.5015
  187SAPI   H5R21485   5.827   0.908   7.125  1.0330 -0.2092 -2.5034
  187SAPI   C2621486   5.800   1.089   7.236 -0.2377  0.1989 -0.2837
  187SAPI   H6R21487   5.799   1.024   7.325 -0.2645  1.6976  0.8300
  187SAPI   C2721488   5.789   1.235   7.271 -0.2414 -0.4498  0.1973
  187SAPI   H7R21489   5.702   1.235   7.341 -1.3071  0.7902 -1.0555
  187SAPI   H7S21490   5.753   1.296   7.186  1.8325 -1.7030 -1.6536
  187SAPI   C2821491   5.921   1.290   7.341 -0.1536  0.0050 -0.4371
  187SAPI   H8R21492   6.005   1.273   7.271 -0.4536  1.0272 -1.0646
  187SAPI   C2921493   5.943   1.330   7.467 -0.2767 -0.3959 -0.5876
  187SAPI   H9R21494   6.045   1.352   7.501 -0.5795 -1.4339  1.0842
  187SAPI  C21021495   5.844   1.336   7.579  0.4834 -0.3911 -0.0194
  187SAPI  H10R21496   5.882   1.249   7.637  0.5939 -1.2545 -1.3365
  187SAPI  H10S21497   5.741   1.311   7.545  1.0507 -0.2170 -1.9775
  187SAPI  C21121498   5.864   1.467   7.652 -0.3631 -1.0507 -0.2902
  187SAPI  H11R21499   5.902   1.554   7.596  0.2815 -0.8673  0.4190
  187SAPI  C21221500   5.809   1.491   7.775 -0.3929  0.3024 -0.3899
  187SAPI  H12R21501   5.840   1.579   7.832 -1.8400 -0.1399  1.1443
  187SAPI  C21321502   5.735   1.379   7.858 -0.2307  0.5661 -0.0214
  187SAPI  H13R21503   5.693   1.300   7.793 -1.2015  0.0329  1.2275
  187SAPI  H13S21504   5.654   1.425   7.918  0.7343 -0.0709  1.8590
  187SAPI  C21421505   5.843   1.306   7.945  0.3003  0.4295  0.5983
  187SAPI  H14R21506   5.909   1.239   7.888  0.1795  0.3450  0.5568
  187SAPI  C21521507   5.861   1.310   8.079  0.4444 -0.1677 -0.1002
  187SAPI  H15R21508   5.947   1.251   8.114  1.5319 -0.4845 -2.9668
  187SAPI  C21621509   5.783   1.395   8.169  0.0436 -0.0462  0.1181
  187SAPI  H16R21510   5.728   1.322   8.233 -0.7110  0.7455  0.3803
  187SAPI  H16S21511   5.702   1.447   8.114  1.1058  1.0578 -0.4274
  187SAPI  C21721512   5.867   1.490   8.254  0.0820  1.2848  0.0318
  187SAPI  H17R21513   5.958   1.445   8.299  0.3839  2.1365  0.2942
  187SAPI  H17S21514   5.803   1.528   8.336 -0.2264  0.0778  0.3743
  187SAPI  C21821515   5.907   1.615   8.170  0.6252 -0.4276 -0.3565
  187SAPI  H18R21516   5.812   1.649   8.123  1.8626  0.4077 -2.4268
  187SAPI  H18S21517   5.965   1.585   8.080 -1.4306 -0.3600 -1.7747
  187SAPI  C21921518   5.973   1.735   8.236  0.1116 -0.1770 -0.1347
  187SAPI  H19R21519   6.010   1.705   8.336  0.4571  0.4342 -0.0728
  187SAPI  H19S21520   5.902   1.816   8.262 -3.4786 -2.7545 -1.2120
  187SAPI  C22021521   6.092   1.793   8.155 -0.7209 -0.0961 -0.2441
  187SAPI  H20R21522   6.162   1.710   8.135  0.5650  0.7532  0.5770
  187SAPI  H20S21523   6.148   1.865   8.220 -0.6533 -0.8452  0.5423
  187SAPI  H20T21524   6.047   1.830   8.061 -2.4983  2.0285  1.3158
  187SAPI   C3321525   5.869   0.560   6.883 -0.5634 -0.3220  0.2441
  187SAPI   H3X21526   5.775   0.502   6.870 -1.3011  0.9801 -0.4562
  187SAPI   H3Y21527   5.836   0.666   6.870 -2.0227 -0.8867 -0.8949
  187SAPI   C3421528   5.960   0.549   7.003  1.0268 -0.1834 -1.1553
  187SAPI   H4X21529   6.035   0.629   6.986  1.0232  0.0476 -0.1958
  187SAPI   H4Y21530   5.992   0.444   7.021 -1.3765 -1.1617 -2.1333
  187SAPI   C3521531   5.887   0.585   7.140 -0.5109 -0.3096 -0.1151
  187SAPI   H5X21532   5.816   0.505   7.170 -0.5655  0.1811  1.1223
  187SAPI   H5Y21533   5.837   0.684   7.139 -2.4355 -1.1344  2.3640
  187SAPI   C3621534   5.974   0.585   7.271 -0.3161  0.8303 -0.2413
  187SAPI   H6X21535   6.068   0.643   7.260  0.9462 -0.8366  1.1341
  187SAPI   H6Y21536   6.007   0.480   7.287 -2.4256  0.1969  0.2572
  187SAPI   C3721537   5.900   0.632   7.393 -0.7095 -0.2745  0.3572
  187SAPI   H7X21538   5.813   0.566   7.414  0.2587 -1.3974  1.0006
  187SAPI   H7Y21539   5.869   0.737   7.373  2.0391  0.6087  0.2910
  187SAPI   C3821540   5.988   0.615   7.512 -0.5644  0.3314  0.6317
  187SAPI   H8X21541   6.079   0.679   7.502 -0.8294  0.3906 -1.9640
  187SAPI   H8Y21542   6.025   0.511   7.502 -1.4777  0.2005 -2.5443
  187SAPI   C3921543   5.923   0.633   7.645  0.3670 -0.0362  0.5608
  187SAPI   H9X21544   5.827   0.579   7.639 -0.0804  0.8837 -2.2604
  187SAPI   H9Y21545   5.906   0.743   7.643  0.2449 -0.0527 -1.3122
  187SAPI  C31021546   6.009   0.594   7.759 -0.0779 -0.1928 -0.7604
  187SAPI  H10X21547   6.101   0.656   7.746 -0.4104  0.2748 -0.9112
  187SAPI  H10Y21548   6.044   0.489   7.748 -1.1709 -0.7860  1.0563
  187SAPI  C31121549   5.945   0.612   7.900  0.1909 -0.9992 -0.8053
  187SAPI  H11X21550   5.920   0.719   7.916  0.7154 -0.6157 -2.3309
  187SAPI  H11Y21551   6.029   0.604   7.972  1.7967  1.3470 -2.2304
  187SAPI  C31221552   5.833   0.511   7.935 -0.0070  0.1701  0.0347
  187SAPI  H12X21553   5.887   0.415   7.925  0.3258  0.4505 -0.9577
  187SAPI  H12Y21554   5.750   0.519   7.861  0.3614  2.7141 -0.1933
  187SAPI  C31321555   5.775   0.525   8.078  0.1672 -0.1454  0.1278
  187SAPI  H13X21556   5.857   0.536   8.153  1.7691  1.3513 -1.7463
  187SAPI  H13Y21557   5.722   0.430   8.103 -1.4360  0.6951  0.0849
  187SAPI  C31421558   5.677   0.642   8.090 -0.5782  0.2361  0.1655
  187SAPI  H14X21559   5.605   0.623   8.007  0.7832  0.2527 -1.0512
  187SAPI  H14Y21560   5.730   0.737   8.071  0.9517 -0.3816  1.2053
  187SAPI  C31521561   5.623   0.661   8.231  0.2511  0.9398 -0.5293
  187SAPI  H15X21562   5.578   0.762   8.242  1.0693  1.0531  2.8497
  187SAPI  H15Y21563   5.699   0.655   8.312  1.5680  0.7800 -1.7284
  187SAPI  C31621564   5.500   0.567   8.258 -0.3440 -0.3604  1.2340
  187SAPI  H16X21565   5.529   0.460   8.258  2.3255  0.2897  1.3666
  187SAPI  H16Y21566   5.411   0.575   8.193  0.6650 -0.0380 -0.1681
  187SAPI  C31721567   5.463   0.587   8.403  0.3159 -0.6679  0.8697
  187SAPI  H17X21568   5.468   0.696   8.423  0.8106 -0.8193  1.6133
  187SAPI  H17Y21569   5.539   0.538   8.467 -0.4037 -1.0743  1.4400
  187SAPI  C31821570   5.326   0.538   8.445 -0.6750 -0.5187  0.4294
  187SAPI  H18X21571   5.333   0.427   8.441  1.8412 -0.3973 -2.7250
  187SAPI  H18Y21572   5.244   0.570   8.377 -0.0927 -0.4148 -0.2388
  187SAPI  H18Z21573   5.307   0.557   8.553 -2.9055  0.4136 -0.0700
  188SAPI   C1221574   1.739   1.620   6.462  0.4081 -0.3203 -0.1439
  188SAPI    H221575   1.729   1.525   6.405 -1.6319 -2.1746  3.0006
  188SAPI    O221576   1.788   1.577   6.583 -0.4645  0.0300  0.4479
  188SAPI   HO221577   1.709   1.562   6.636  1.5743  0.4104  3.9607
  188SAPI   C1321578   1.825   1.726   6.395 -0.1137 -0.0483 -0.1437
  188SAPI    H321579   1.793   1.745   6.291 -0.8172 -0.1828  0.0486
  188SAPI    O321580   1.958   1.676   6.386  0.3498  0.3515  0.9023
  188SAPI   HO321581   1.958   1.581   6.376 -0.6474  0.5581 -2.0667
  188SAPI   C1421582   1.830   1.856   6.482 -0.0892  0.3066  0.6096
  188SAPI    H421583   1.847   1.830   6.589  1.1398 -1.1803  0.0923
  188SAPI    O421584   1.923   1.949   6.440  0.0096 -0.5273 -0.0957
  188SAPI   HO421585   1.884   2.021   6.390  2.2715  1.2713  0.5808
  188SAPI   C1521586   1.683   1.900   6.496 -0.5122  0.3291  0.7764
  188SAPI    H521587   1.648   1.910   6.391 -2.0195 -2.0415  0.9879
  188SAPI    O521588   1.683   2.033   6.557 -0.9385 -0.4226 -0.5477
  188SAPI   HO521589   1.711   2.102   6.497  1.1994  0.0758  0.8915
  188SAPI   C1621590   1.590   1.798   6.559 -0.1421 -0.2400 -0.1718
  188SAPI    H621591   1.616   1.777   6.665 -1.2348  1.1881  0.4077
  188SAPI    O621592   1.455   1.849   6.568  0.3131 -0.1366  0.6034
  188SAPI   HO621593   1.412   1.846   6.483 -0.4088  2.7017  0.7733
  188SAPI   C1121594   1.591   1.665   6.480 -0.7537 -0.0679  0.5705
  188SAPI    H121595   1.555   1.697   6.380  0.4257  1.8418  0.6966
  188SAPI     P21596   1.423   1.467   6.449  0.0278 -0.5174  0.1928
  188SAPI   O1321597   1.435   1.518   6.318 -0.1062  0.2619  0.6907
  188SAPI   O1421598   1.280   1.448   6.494 -0.2691 -0.1281 -0.5608
  188SAPI   O1221599   1.509   1.570   6.550  0.1871  0.5089 -0.6707
  188SAPI   O1121600   1.510   1.342   6.460 -0.0568  0.1552 -0.0841
  188SAPI    C121601   1.467   1.230   6.534  0.3283 -0.2569 -0.8963
  188SAPI    HA21602   1.363   1.199   6.511  0.0734  0.0756 -0.2235
  188SAPI    HB21603   1.525   1.142   6.500 -0.6390 -0.5738 -1.7843
  188SAPI    C221604   1.485   1.248   6.692  0.4931  0.3655 -0.3560
  188SAPI    HS21605   1.428   1.339   6.718 -0.8096 -0.8155  1.1004
  188SAPI   O2121606   1.630   1.264   6.714  0.3492 -0.4588 -0.0901
  188SAPI   C2121607   1.655   1.338   6.828  0.0192 -0.1958  0.0313
  188SAPI   O2221608   1.572   1.411   6.880  0.4778 -0.5354  0.1093
  188SAPI   C2221609   1.803   1.317   6.869 -0.0779 -0.1637  0.6828
  188SAPI   H2R21610   1.813   1.209   6.892 -0.8689 -1.0287 -2.5176
  188SAPI   H2S21611   1.865   1.343   6.780  0.3342 -2.9029  0.0920
  188SAPI    C321612   1.438   1.124   6.762  0.1059  0.3368  0.1872
  188SAPI    HX21613   1.502   1.040   6.730  0.5271  1.1879 -1.2834
  188SAPI    HY21614   1.339   1.089   6.726  0.3080 -1.2628  1.0816
  188SAPI   O3121615   1.445   1.137   6.902  0.5857  0.6268 -0.1050
  188SAPI   C3121616   1.327   1.125   6.965  0.4704 -0.3796 -0.1825
  188SAPI   O3221617   1.216   1.130   6.917  0.8804  0.2377 -0.0975
  188SAPI   C3221618   1.359   1.089   7.110 -0.1806  0.2529  0.1515
  188SAPI   H2X21619   1.464   1.053   7.116  0.0314  0.9127  0.4314
  188SAPI   H2Y21620   1.296   1.006   7.149  1.4652 -1.2720 -0.2606
  188SAPI   C2321621   1.835   1.406   6.987  0.9160 -0.3579  0.2655
  188SAPI   H3R21622   1.756   1.387   7.062 -1.6160  0.3274 -2.0873
  188SAPI   H3S21623   1.815   1.514   6.970  2.1714 -0.2161 -0.4563
  188SAPI   C2421624   1.976   1.381   7.048  0.1857 -0.1957  0.6055
  188SAPI   H4R21625   1.987   1.459   7.126 -0.2575 -0.8131  1.2986
  188SAPI   H4S21626   2.041   1.406   6.961 -1.0823  1.1383 -0.0114
  188SAPI   C2521627   1.999   1.243   7.101 -0.6378  0.8618 -0.4983
  188SAPI   H5R21628   2.027   1.166   7.028 -1.1200 -0.4660  0.6709
  188SAPI   C2621629   1.995   1.198   7.225 -0.1384 -0.2951 -0.4410
  188SAPI   H6R21630   2.013   1.095   7.259  3.0635  0.7378  1.4032
  188SAPI   C2721631   1.958   1.280   7.345 -0.2238 -0.0211  0.6176
  188SAPI   H7R21632   1.964   1.389   7.322  1.8607 -0.2755 -0.3129
  188SAPI   H7S21633   2.029   1.273   7.430 -0.1538  0.3297  0.5898
  188SAPI   C2821634   1.815   1.251   7.385 -0.3412  0.0350  0.2733
  188SAPI   H8R21635   1.741   1.286   7.312 -1.4090  0.3374  1.4591
  188SAPI   C2921636   1.775   1.177   7.494 -0.4797 -0.2688 -0.8515
  188SAPI   H9R21637   1.667   1.160   7.499 -0.8669  1.9373 -0.6496
  188SAPI  C21021638   1.871   1.105   7.588  0.1545  0.0415 -0.1336
  188SAPI  H10R21639   1.977   1.140   7.586  0.1884 -0.0157  0.3431
  188SAPI  H10S21640   1.880   0.998   7.560  1.4424 -0.6071  2.4293
  188SAPI  C21121641   1.816   1.103   7.728 -0.4185  0.5799 -0.4351
  188SAPI  H11R21642   1.741   1.023   7.740  0.7300 -0.3421  0.9874
  188SAPI  C21221643   1.855   1.185   7.826 -0.3712  0.9446 -0.2453
  188SAPI  H12R21644   1.826   1.158   7.929  2.2525 -0.8165  0.1033
  188SAPI  C21321645   1.957   1.298   7.822 -0.5127  0.6528  0.0076
  188SAPI  H13R21646   1.961   1.349   7.723 -2.4968 -3.7271 -2.6285
  188SAPI  H13S21647   2.059   1.255   7.814 -0.2404  1.5153 -1.7368
  188SAPI  C21421648   1.964   1.411   7.919  0.0441 -0.3356 -0.0224
  188SAPI  H14R21649   1.946   1.515   7.888  3.0825  0.5298  0.8074
  188SAPI  C21521650   2.009   1.396   8.044  0.3100  0.5582  0.2924
  188SAPI  H15R21651   2.006   1.489   8.104 -1.6487  0.7044  0.0449
  188SAPI  C21621652   2.039   1.267   8.116  0.3522 -0.2552  0.4537
  188SAPI  H16R21653   2.055   1.182   8.046 -2.1782 -0.9524  0.5872
  188SAPI  H16S21654   1.946   1.232   8.167 -0.9985 -0.6519 -2.1253
  188SAPI  C21721655   2.156   1.290   8.209 -0.2830  0.8503  0.6568
  188SAPI  H17R21656   2.108   1.347   8.292 -2.0437  0.5685 -0.1188
  188SAPI  H17S21657   2.243   1.343   8.164  0.3279  0.2511  1.1009
  188SAPI  C21821658   2.218   1.156   8.252  0.0490 -0.7668 -0.7221
  188SAPI  H18R21659   2.263   1.117   8.158  0.3045 -1.7864 -0.1903
  188SAPI  H18S21660   2.146   1.080   8.287  1.4144 -1.9004 -0.2672
  188SAPI  C21921661   2.336   1.167   8.354  0.4104 -0.4487  0.0815
  188SAPI  H19R21662   2.298   1.176   8.458  1.0645 -3.4332  0.6716
  188SAPI  H19S21663   2.381   1.266   8.331 -0.6915 -0.0616 -0.5027
  188SAPI  C22021664   2.442   1.062   8.344 -0.8469 -0.0546 -0.2750
  188SAPI  H20R21665   2.402   0.962   8.369 -0.7844 -0.0858 -0.3024
  188SAPI  H20S21666   2.525   1.100   8.407 -0.7838  2.2787 -1.6521
  188SAPI  H20T21667   2.475   1.054   8.239 -2.0498 -0.2273 -0.6598
  188SAPI   C3321668   1.347   1.218   7.195  0.1479  0.3445  0.4591
  188SAPI   H3X21669   1.238   1.240   7.204 -0.1109  0.5847 -2.2239
  188SAPI   H3Y21670   1.391   1.305   7.142 -1.4751  1.1030  0.2907
  188SAPI   C3421671   1.422   1.206   7.328  0.1222  0.5360 -0.7231
  188SAPI   H4X21672   1.392   1.291   7.393  0.6966 -0.2513  0.6213
  188SAPI   H4Y21673   1.532   1.212   7.312  0.7159  0.3005  2.5863
  188SAPI   C3521674   1.391   1.082   7.408 -0.6948 -0.1115  0.6472
  188SAPI   H5X21675   1.461   0.998   7.389 -2.1609 -1.1031 -0.6523
  188SAPI   H5Y21676   1.296   1.034   7.374 -1.4361  2.1960 -0.7583
  188SAPI   C3621677   1.387   1.106   7.560 -0.0049 -0.7863  0.6062
  188SAPI   H6X21678   1.283   1.135   7.585  0.2295  1.7271 -1.0117
  188SAPI   H6Y21679   1.448   1.195   7.589 -2.0205  0.8630  0.0117
  188SAPI   C3721680   1.437   0.993   7.653  0.6685 -0.1969  0.0243
  188SAPI   H7X21681   1.535   0.954   7.619  1.0100  0.1603  0.5880
  188SAPI   H7Y21682   1.353   0.923   7.636 -0.2330  0.6969  0.7149
  188SAPI   C3821683   1.438   1.041   7.801  0.5225 -0.4969 -0.7130
  188SAPI   H8X21684   1.333   1.066   7.825  0.7386 -0.7643  0.5975
  188SAPI   H8Y21685   1.489   1.140   7.803 -0.0084 -0.2309  0.1136
  188SAPI   C3921686   1.480   0.932   7.904 -0.1767 -0.7090  0.2067
  188SAPI   H9X21687   1.513   0.970   8.002  2.4193 -3.5680  0.6036
  188SAPI   H9Y21688   1.568   0.881   7.859  2.1203  0.7036  2.8390
  188SAPI  C31021689   1.363   0.836   7.933 -0.6704 -0.2903 -0.4039
  188SAPI  H10X21690   1.331   0.792   7.836 -0.0517 -1.4387 -0.1027
  188SAPI  H10Y21691   1.277   0.895   7.973  0.7176  2.1833 -0.8273
  188SAPI  C31121692   1.412   0.721   8.021  0.1321  0.1112 -0.2404
  188SAPI  H11X21693   1.506   0.679   7.981  0.7916  0.6224  0.7460
  188SAPI  H11Y21694   1.330   0.646   8.030 -1.8463  2.1639 -0.2892
  188SAPI  C31221695   1.452   0.766   8.164  0.3143  0.0345 -0.1187
  188SAPI  H12X21696   1.369   0.829   8.203 -0.0595 -0.1405 -0.6139
  188SAPI  H12Y21697   1.544   0.827   8.174  0.7086 -0.7132  0.9509
  188SAPI  C31321698   1.482   0.646   8.261  0.8534 -0.2193 -0.0187
  188SAPI  H13X21699   1.550   0.572   8.212 -0.2855 -0.7765 -0.8104
  188SAPI  H13Y21700   1.387   0.592   8.283 -1.6558  2.1931 -3.6575
  188SAPI  C31421701   1.546   0.699   8.390 -0.7449 -0.0652 -0.0520
  188SAPI  H14X21702   1.503   0.796   8.423 -0.0172  0.1205  0.3810
  188SAPI  H14Y21703   1.650   0.729   8.367 -1.5100  0.1621 -3.8566
  188SAPI  C31521704   1.534   0.610   8.513 -0.1784  0.5673 -0.5964
  188SAPI  H15X21705   1.437   0.555   8.511 -0.3808  0.8488  0.6898
  188SAPI  H15Y21706   1.541   0.662   8.611 -3.5555  0.1606  0.0031
  188SAPI  C31621707   1.656   0.513   8.518 -0.4371 -0.3163 -0.0831
  188SAPI  H16X21708   1.749   0.573   8.528 -0.7171  0.2335 -0.7138
  188SAPI  H16Y21709   1.657   0.448   8.429 -1.0423  1.2348 -1.2631
  188SAPI  C31721710   1.648   0.406   8.631  0.7001 -0.2522 -0.3579
  188SAPI  H17X21711   1.564   0.338   8.607 -0.0408  0.6502 -0.4084
  188SAPI  H17Y21712   1.634   0.454   8.730  0.1635 -1.2270  0.0532
  188SAPI  C31821713   1.786   0.340   8.644 -0.7460  0.0116  0.2310
  188SAPI  H18X21714   1.815   0.279   8.556 -0.7504  1.7003 -0.9895
  188SAPI  H18Y21715   1.784   0.267   8.727 -1.1853 -0.3426 -0.0827
  188SAPI  H18Z21716   1.867   0.409   8.674  1.4881 -1.8332 -1.2829
  189POPC     N21717   4.403   3.863  10.997 -0.2348 -0.2296 -0.2665
  189POPC   C1221718   4.288   3.838  10.902  0.2215  0.1596 -0.2043
  189POPC  H12A21719   4.310   3.891  10.810  0.3751 -0.0170 -0.2671
  189POPC  H12B21720   4.195   3.885  10.931 -0.1485 -0.3538 -0.5340
  189POPC   C1321721   4.423   3.751  11.090  0.1677  0.1494 -0.1120
  189POPC  H13A21722   4.501   3.767  11.163 -1.3889  0.8685  1.4597
  189POPC  H13B21723   4.332   3.745  11.148 -0.6798  1.7790 -1.2155
  189POPC  H13C21724   4.456   3.659  11.043  3.1390  0.0356  1.9308
  189POPC   C1421725   4.527   3.871  10.907  0.6220 -0.3841  0.3839
  189POPC  H14A21726   4.532   3.795  10.830 -1.8483  2.1603 -2.6012
  189POPC  H14B21727   4.530   3.965  10.853  1.3760 -0.3617  0.4555
  189POPC  H14C21728   4.623   3.869  10.956  0.6140 -1.2507  0.3748
  189POPC   C1521729   4.388   3.991  11.073 -0.0262 -0.0037  0.2170
  189POPC  H15A21730   4.472   4.009  11.137 -0.7840 -0.2763  1.3181
  189POPC  H15B21731   4.303   3.982  11.139 -0.7836 -3.2322 -1.0097
  189POPC  H15C21732   4.366   4.081  11.018  0.9847 -0.6108 -1.2203
  189POPC   C1121733   4.266   3.689  10.861  0.1938  0.4178 -0.0097
  189POPC  H11A21734   4.181   3.697  10.789  1.1717  1.7345 -1.0742
  189POPC  H11B21735   4.239   3.634  10.953  0.6419  0.2099  0.0018
  189POPC     P21736   4.436   3.497  10.815  0.6892 -0.1642 -0.1473
  189POPC   O1321737   4.365   3.412  10.920  0.2971 -0.5678 -0.5762
  189POPC   O1421738   4.582   3.512  10.822 -0.3383 -0.0908 -0.0453
  189POPC   O1221739   4.385   3.641  10.799  0.3281  0.1865  0.2240
  189POPC   O1121740   4.406   3.426  10.680 -0.0999  0.0418  0.1552
  189POPC    C121741   4.355   3.489  10.563  0.2544 -0.6686  0.0790
  189POPC    HA21742   4.331   3.597  10.575  0.2657 -0.6557 -0.0135
  189POPC    HB21743   4.264   3.436  10.526 -0.5974  1.3723 -0.9410
  189POPC    C221744   4.446   3.485  10.439  0.4608  0.2549 -0.3096
  189POPC    HS21745   4.518   3.569  10.453 -0.5353  1.2272 -0.9053
  189POPC   O2121746   4.365   3.503  10.324  0.2500  0.3126  0.3753
  189POPC   C2121747   4.433   3.552  10.218 -0.4951 -0.0421 -0.2914
  189POPC   O2221748   4.554   3.578  10.222  0.1062 -0.0193 -0.1434
  189POPC   C2221749   4.340   3.568  10.099 -0.4411 -0.2758 -0.5626
  189POPC   H2R21750   4.283   3.661  10.121  0.3394  0.1552 -0.2991
  189POPC   H2S21751   4.268   3.483  10.095 -0.5498 -0.1370 -1.9730
  189POPC    C321752   4.517   3.346  10.430  0.2660 -0.6864 -0.0660
  189POPC    HX21753   4.440   3.266  10.421 -0.0248 -0.3712 -0.3920
  189POPC    HY21754   4.564   3.328  10.529 -1.6826  2.7351  1.6629
  189POPC   O3121755   4.619   3.354  10.332 -0.1445 -0.1215  0.1709
  189POPC   C3121756   4.641   3.249  10.256  0.1943  0.1918  0.5570
  189POPC   O3221757   4.586   3.146  10.264 -0.6183  0.6788 -0.6524
  189POPC   C3221758   4.744   3.283  10.149  0.8242 -0.0114 -0.5585
  189POPC   H2X21759   4.846   3.260  10.186  0.3439 -0.3250  0.5871
  189POPC   H2Y21760   4.743   3.393  10.136  1.3649  0.1347  0.5485
  189POPC   C2321761   4.411   3.583   9.959 -0.5737 -0.2740 -0.2903
  189POPC   H3R21762   4.491   3.507   9.956 -1.6693 -1.4451 -2.9317
  189POPC   H3S21763   4.456   3.685   9.953  0.5292 -0.5985  1.4771
  189POPC   C2421764   4.316   3.569   9.850  0.6445  0.0646 -0.2403
  189POPC   H4R21765   4.246   3.655   9.844  0.4992 -0.0841 -0.7913
  189POPC   H4S21766   4.255   3.477   9.865  0.6091 -0.1024 -1.3186
  189POPC   C2521767   4.384   3.552   9.712  0.0727 -0.6399 -0.4635
  189POPC   H5R21768   4.449   3.463   9.708 -0.8218 -1.5246  2.2258
  189POPC   H5S21769   4.449   3.634   9.676 -0.7460 -0.1381 -0.8373
  189POPC   C2621770   4.293   3.539   9.589 -0.1908  0.1148 -0.2671
  189POPC   H6R21771   4.291   3.631   9.526 -2.8448  0.7250  0.5737
  189POPC   H6S21772   4.193   3.532   9.637 -2.1566 -0.0093 -3.9986
  189POPC   C2721773   4.309   3.405   9.513 -0.1613  1.3647 -0.8247
  189POPC   H7R21774   4.293   3.319   9.581  3.3955  0.5867 -0.7599
  189POPC   H7S21775   4.414   3.392   9.478  0.0486 -0.0741  0.2816
  189POPC   C2821776   4.216   3.384   9.392 -0.3639 -0.2506 -0.0426
  189POPC   H8R21777   4.111   3.412   9.412 -0.7957 -1.3341 -0.6915
  189POPC   H8S21778   4.224   3.279   9.358  1.3021  0.0515 -0.6754
  189POPC   C2921779   4.274   3.477   9.285  0.7135 -0.2784 -0.4406
  189POPC   H9121780   4.366   3.438   9.238  1.3074 -0.7703  1.0739
  189POPC  C21021781   4.213   3.596   9.255  0.0150  0.2509  0.3744
  189POPC  H10121782   4.253   3.647   9.167  2.0608  0.4313  1.3446
  189POPC  C21121783   4.080   3.650   9.314 -0.9724  0.3921 -0.6275
  189POPC  H11R21784   4.089   3.760   9.314 -0.5066  0.3769  1.0683
  189POPC  H11S21785   4.064   3.611   9.417 -1.2814  1.2593 -0.3452
  189POPC  C21221786   3.948   3.627   9.237 -0.3190 -0.7846 -0.1652
  189POPC  H12R21787   3.867   3.662   9.303 -0.5738 -0.7966 -0.4674
  189POPC  H12S21788   3.935   3.517   9.225 -0.9027 -0.6148 -1.2977
  189POPC  C21321789   3.958   3.689   9.096  0.2957 -0.1655  0.2502
  189POPC  H13R21790   4.046   3.654   9.038 -0.4932  2.6773 -2.9522
  189POPC  H13S21791   3.966   3.799   9.103  1.7599  0.0069 -2.8437
  189POPC  C21421792   3.839   3.643   9.007 -0.8413  0.2362 -1.2560
  189POPC  H14R21793   3.807   3.539   9.030  0.5868  0.3340  1.5462
  189POPC  H14S21794   3.871   3.645   8.901  1.0224 -2.5056 -0.8444
  189POPC  C21521795   3.721   3.740   9.029 -0.6232 -0.1721  0.0288
  189POPC  H15R21796   3.750   3.845   9.006  2.2705 -0.7810  0.5497
  189POPC  H15S21797   3.698   3.723   9.136 -1.3279 -1.2346 -0.2757
  189POPC  C21621798   3.609   3.719   8.934  0.0827 -0.1230 -0.9463
  189POPC  H16R21799   3.524   3.783   8.965 -0.3226 -1.1503  0.1452
  189POPC  H16S21800   3.565   3.618   8.946 -1.9698  0.7163 -1.0959
  189POPC  C21721801   3.642   3.755   8.795 -0.3345  0.4025 -0.3601
  189POPC  H17R21802   3.700   3.672   8.749 -0.3049 -0.0850  0.5316
  189POPC  H17S21803   3.698   3.850   8.790 -0.3283  0.3258 -2.1319
  189POPC  C21821804   3.514   3.768   8.711  0.4322 -0.0599  1.0199
  189POPC  H18R21805   3.475   3.667   8.686  1.6262 -0.1134 -0.8151
  189POPC  H18S21806   3.553   3.811   8.616  2.4146 -0.6542  1.5129
  189POPC  H18T21807   3.435   3.833   8.755 -0.9824  0.6128 -2.2475
  189POPC   C3321808   4.703   3.224  10.010 -0.3985  0.5205  0.4731
  189POPC   H3X21809   4.615   3.286   9.983  0.0169  1.3284  0.9586
  189POPC   H3Y21810   4.678   3.116  10.012 -2.0291  0.8017 -1.2505
  189POPC   C3421811   4.790   3.252   9.893  0.4459  0.8336  0.5512
  189POPC   H4X21812   4.884   3.192   9.899  1.0684  1.7862  0.4093
  189POPC   H4Y21813   4.814   3.358   9.870 -0.0479  0.3922 -2.3083
  189POPC   C3521814   4.724   3.212   9.755  0.3881 -0.0560 -0.0715
  189POPC   H5X21815   4.619   3.250   9.747 -0.2082 -1.5508  0.3339
  189POPC   H5Y21816   4.723   3.102   9.742 -0.6640 -0.5069  2.9650
  189POPC   C3621817   4.795   3.272   9.636  0.6743 -0.3982  0.6417
  189POPC   H6X21818   4.897   3.234   9.612 -0.1721 -1.2409 -1.9230
  189POPC   H6Y21819   4.785   3.383   9.637 -1.4330 -0.5538  0.2736
  189POPC   C3721820   4.700   3.239   9.511 -0.3702  0.0829 -0.1975
  189POPC   H7X21821   4.596   3.278   9.518 -0.1964  0.3611  1.0877
  189POPC   H7Y21822   4.693   3.128   9.505  0.2134  0.0006  0.5599
  189POPC   C3821823   4.754   3.281   9.370  0.2831  0.3095 -0.4597
  189POPC   H8X21824   4.775   3.390   9.365 -1.5302  0.6410 -3.8143
  189POPC   H8Y21825   4.677   3.268   9.291 -0.9484  1.7276  0.4592
  189POPC   C3921826   4.889   3.219   9.341  0.3967 -0.2425  0.2090
  189POPC   H9X21827   4.976   3.251   9.402 -0.6273  0.8405  1.1381
  189POPC   H9Y21828   4.916   3.250   9.237 -0.2042 -1.0173 -0.1951
  189POPC  C31021829   4.883   3.064   9.332  0.0763  0.1706  0.0991
  189POPC  H10X21830   4.775   3.043   9.318 -0.1284  1.4240 -0.3771
  189POPC  H10Y21831   4.927   3.030   9.429  0.0158  1.1274  0.4728
  189POPC  C31121832   4.954   2.995   9.213  0.4012  0.4876  0.1025
  189POPC  H11X21833   4.957   2.885   9.229 -0.1000  0.4106 -0.2864
  189POPC  H11Y21834   5.058   3.029   9.231  1.0787 -1.7591  0.8668
  189POPC  C31221835   4.903   3.037   9.070 -0.4406  0.3869 -0.6590
  189POPC  H12X21836   4.962   2.980   8.997 -2.7734 -1.4236 -1.2534
  189POPC  H12Y21837   4.927   3.145   9.061  3.0449  0.0158  1.9682
  189POPC  C31321838   4.755   3.020   9.038  0.2118 -0.4519 -0.0266
  189POPC  H13X21839   4.687   3.082   9.100 -1.0267  1.5439 -3.1411
  189POPC  H13Y21840   4.729   2.912   9.035  1.8280 -0.8631 -2.2947
  189POPC  C31421841   4.736   3.055   8.892  0.2252 -0.0782 -0.1158
  189POPC  H14X21842   4.794   2.992   8.821 -2.0772  1.9941 -4.2413
  189POPC  H14Y21843   4.771   3.160   8.882  0.7354 -0.0191  1.8824
  189POPC  C31521844   4.584   3.047   8.863 -0.4483  0.0636  0.1563
  189POPC  H15X21845   4.532   3.102   8.945 -1.4927 -0.9692  0.2152
  189POPC  H15Y21846   4.542   2.944   8.865 -2.5871  0.8812 -0.0109
  189POPC  C31621847   4.551   3.119   8.737  0.6279 -0.5160 -0.1109
  189POPC  H16X21848   4.443   3.111   8.715  0.7809 -1.0370 -0.6966
  189POPC  H16Y21849   4.597   3.058   8.657  1.4662 -1.0651  0.7683
  189POPC  H16Z21850   4.576   3.228   8.742 -0.0685 -0.4105  2.3233
  190POPC     N21851   3.082   6.375  11.195 -0.3381 -0.8956 -0.3745
  190POPC   C1221852   3.225   6.352  11.165  0.3864 -0.0458 -0.7640
  190POPC  H12A21853   3.232   6.275  11.089 -1.3177  0.0090 -1.0080
  190POPC  H12B21854   3.275   6.324  11.256  0.6321 -0.3469 -0.9901
  190POPC   C1321855   3.001   6.394  11.070 -0.3135  0.2798 -0.3919
  190POPC  H13A21856   3.017   6.306  11.009  0.1277  0.4475 -0.5256
  190POPC  H13B21857   2.895   6.394  11.089 -0.3926 -1.2874 -0.7187
  190POPC  H13C21858   3.026   6.486  11.018  0.7904  0.6529  0.7438
  190POPC   C1421859   3.020   6.257  11.265 -0.4877 -0.5180  0.1592
  190POPC  H14A21860   3.086   6.222  11.343  0.4773  1.6567  0.3864
  190POPC  H14B21861   2.927   6.291  11.310  0.6650 -0.0006  2.2827
  190POPC  H14C21862   2.997   6.173  11.202  1.8621 -0.2511 -1.1431
  190POPC   C1521863   3.059   6.498  11.274 -0.3015 -0.1816  1.1796
  190POPC  H15A21864   3.136   6.505  11.350  1.5336 -0.5597 -0.5659
  190POPC  H15B21865   2.958   6.510  11.311 -1.0590  1.7679 -1.2218
  190POPC  H15C21866   3.079   6.578  11.203 -0.0710 -2.5297 -1.5751
  190POPC   C1121867   3.295   6.470  11.100  0.2647  0.0936  0.0398
  190POPC  H11A21868   3.282   6.566  11.154  0.9128 -0.8739  2.0388
  190POPC  H11B21869   3.244   6.495  11.005 -0.9256 -0.0723  0.6080
  190POPC     P21870   3.499   6.418  10.950 -0.4170  0.6793 -0.0455
  190POPC   O1321871   3.457   6.291  10.895  0.4603 -0.1302  0.2037
  190POPC   O1421872   3.643   6.438  10.976  0.0201 -0.4480  0.2773
  190POPC   O1221873   3.429   6.440  11.093  0.2038 -0.2146  0.1359
  190POPC   O1121874   3.439   6.550  10.880 -0.2282 -0.1813  0.0589
  190POPC    C121875   3.536   6.636  10.811  0.3067 -0.2677 -0.2202
  190POPC    HA21876   3.644   6.616  10.826  0.4881  0.4587 -0.5647
  190POPC    HB21877   3.535   6.740  10.849 -0.5343 -0.9576  1.7779
  190POPC    C221878   3.502   6.642  10.659  0.7050 -0.1600 -0.4077
  190POPC    HS21879   3.391   6.640  10.650  0.6989  0.2699 -0.4405
  190POPC   O2121880   3.567   6.533  10.602  0.0938  0.2258 -0.1857
  190POPC   C2121881   3.516   6.480  10.489  0.1686 -0.4254  0.2093
  190POPC   O2221882   3.412   6.521  10.439 -0.4826 -0.3592 -0.0253
  190POPC   C2221883   3.605   6.371  10.428  0.7165 -0.0446  0.2283
  190POPC   H2R21884   3.580   6.367  10.320  0.1967 -1.3870  0.3854
  190POPC   H2S21885   3.560   6.274  10.458 -0.6966 -0.5182 -3.0560
  190POPC    C321886   3.557   6.770  10.593 -0.0870  0.2996  0.4059
  190POPC    HX21887   3.659   6.785  10.635  1.0139 -1.7730 -1.3508
  190POPC    HY21888   3.492   6.848  10.639 -1.4214 -1.0767  0.9614
  190POPC   O3121889   3.563   6.772  10.442  0.3276 -0.4661 -0.3146
  190POPC   C3121890   3.459   6.823  10.384 -0.6121  0.1129 -0.3881
  190POPC   O3221891   3.353   6.844  10.435  0.2695 -0.1675  0.4030
  190POPC   C3221892   3.499   6.832  10.237  0.1798  0.3543  0.8498
  190POPC   H2X21893   3.602   6.868  10.219  0.2790 -0.5839 -0.6011
  190POPC   H2Y21894   3.430   6.910  10.198 -2.7127 -2.5046 -0.1957
  190POPC   C2321895   3.750   6.389  10.461 -0.2146  0.8242  0.0013
  190POPC   H3R21896   3.801   6.299  10.421 -1.2511  0.6908 -1.1182
  190POPC   H3S21897   3.784   6.384  10.566  2.5893  0.5007 -0.8585
  190POPC   C2421898   3.802   6.527  10.405 -0.3429 -0.4639 -0.2742
  190POPC   H4R21899   3.900   6.532  10.458 -1.2822  1.8239  1.3917
  190POPC   H4S21900   3.743   6.615  10.440 -1.4234 -1.3193  0.1002
  190POPC   C2521901   3.821   6.543  10.248  0.1900  0.0676  0.1864
  190POPC   H5R21902   3.881   6.636  10.235  0.8100 -0.7155 -4.0517
  190POPC   H5S21903   3.732   6.563  10.185  2.2715  0.3727 -2.9024
  190POPC   C2621904   3.897   6.440  10.173  0.4280 -0.0030 -0.0265
  190POPC   H6R21905   3.820   6.368  10.139  2.0795 -1.2844 -1.1850
  190POPC   H6S21906   3.963   6.378  10.236  0.0374 -1.2096 -0.7817
  190POPC   C2721907   3.979   6.504  10.054 -0.0287 -0.1819 -0.6905
  190POPC   H7R21908   4.042   6.422  10.013  1.9629  1.5554 -1.3182
  190POPC   H7S21909   4.056   6.570  10.100 -0.8455  0.7335 -0.6161
  190POPC   C2821910   3.898   6.584   9.951 -0.2234 -0.0269  0.0443
  190POPC   H8R21911   3.958   6.644   9.880 -0.9174  1.7273  0.8810
  190POPC   H8S21912   3.842   6.660  10.010  1.6403  1.0282  0.5137
  190POPC   C2921913   3.795   6.495   9.885 -0.7472  0.0491 -0.0421
  190POPC   H9121914   3.743   6.419   9.946  0.4862 -0.6523  0.1729
  190POPC  C21021915   3.774   6.487   9.753  0.1289 -0.4660 -0.2845
  190POPC  H10121916   3.694   6.419   9.719 -0.7091  0.4384 -0.1777
  190POPC  C21121917   3.829   6.568   9.635 -0.3939  0.2022  0.2446
  190POPC  H11R21918   3.877   6.659   9.679 -1.2678  0.6722  0.2523
  190POPC  H11S21919   3.750   6.601   9.564 -0.2456 -1.5483 -0.7674
  190POPC  C21221920   3.929   6.488   9.540  0.4538 -0.1434 -0.1888
  190POPC  H12R21921   3.883   6.403   9.485  0.5184 -2.1881  2.6546
  190POPC  H12S21922   4.022   6.468   9.598  0.6054  0.9143 -0.0515
  190POPC  C21321923   3.955   6.578   9.418  0.1943 -0.7041  0.3009
  190POPC  H13R21924   3.996   6.676   9.450  0.5196 -0.6394 -0.3132
  190POPC  H13S21925   3.857   6.600   9.371 -0.7683 -0.5829  2.2597
  190POPC  C21421926   4.049   6.524   9.317  0.0915 -0.0253 -0.1795
  190POPC  H14R21927   4.000   6.431   9.280 -1.6165  1.2520 -1.2948
  190POPC  H14S21928   4.147   6.504   9.366  1.7718  0.9075 -2.8933
  190POPC  C21521929   4.082   6.621   9.204 -0.0327 -0.2953 -0.0809
  190POPC  H15R21930   4.125   6.708   9.258 -1.6633  0.5415 -0.0887
  190POPC  H15S21931   3.991   6.650   9.148  0.0431  1.3790  0.6116
  190POPC  C21621932   4.191   6.576   9.100  0.2520 -0.1115  0.0694
  190POPC  H16R21933   4.294   6.576   9.143 -0.1916  2.7515  1.3830
  190POPC  H16S21934   4.191   6.659   9.026  0.1003  1.1709  1.4437
  190POPC  C21721935   4.154   6.452   9.015  0.3675 -0.2481  0.3533
  190POPC  H17R21936   4.066   6.473   8.951  0.7677 -3.5423 -1.4958
  190POPC  H17S21937   4.116   6.378   9.089 -1.3883  0.7806  0.5345
  190POPC  C21821938   4.264   6.413   8.918 -0.0057  0.1117 -0.6736
  190POPC  H18R21939   4.357   6.401   8.976 -1.3155 -0.0467  1.4953
  190POPC  H18S21940   4.282   6.490   8.839 -0.5269 -1.8179 -2.7915
  190POPC  H18T21941   4.245   6.320   8.860  1.4408 -0.0748 -0.8680
  190POPC   C3321942   3.475   6.693  10.171  0.0606  0.9517  0.5995
  190POPC   H3X21943   3.366   6.673  10.167  0.4456 -1.0715 -0.6608
  190POPC   H3Y21944   3.529   6.617  10.231  1.7655  0.7532 -1.0788
  190POPC   C3421945   3.536   6.685  10.033  0.1535 -0.6664  0.2719
  190POPC   H4X21946   3.515   6.583   9.994  0.2922  0.2587 -2.4312
  190POPC   H4Y21947   3.645   6.705  10.031  0.1191 -0.4770  0.3445
  190POPC   C3521948   3.471   6.779   9.928  0.5339  0.3255 -0.5080
  190POPC   H5X21949   3.498   6.885   9.948  1.5031 -0.1352  0.7843
  190POPC   H5Y21950   3.361   6.768   9.919  0.4077 -0.5208  1.4969
  190POPC   C3621951   3.521   6.744   9.787 -0.1081  0.0657 -0.6649
  190POPC   H6X21952   3.481   6.644   9.760 -1.0053  0.1746  0.2107
  190POPC   H6Y21953   3.632   6.735   9.795 -0.1393 -0.3455 -0.6553
  190POPC   C3721954   3.482   6.842   9.672 -0.3363  0.8580  0.2229
  190POPC   H7X21955   3.516   6.940   9.711  1.1527  0.4649 -0.0138
  190POPC   H7Y21956   3.371   6.838   9.669 -0.3347 -0.2213  1.1313
  190POPC   C3821957   3.541   6.800   9.540 -0.1743  0.6331  0.7303
  190POPC   H8X21958   3.512   6.693   9.530 -0.7630  0.7632  1.0304
  190POPC   H8Y21959   3.651   6.807   9.553 -0.2036  0.3872  1.1312
  190POPC   C3921960   3.491   6.878   9.422 -0.0173 -0.1739 -0.1760
  190POPC   H9X21961   3.498   6.987   9.440  0.0197 -0.3553  0.9843
  190POPC   H9Y21962   3.382   6.855   9.413 -0.0840 -0.7833  1.7289
  190POPC  C31021963   3.559   6.839   9.292  0.6659 -0.4771 -0.0409
  190POPC  H10X21964   3.540   6.731   9.279 -3.6242 -0.0863  1.4849
  190POPC  H10Y21965   3.667   6.863   9.297  0.1011  2.1981  2.4030
  190POPC  C31121966   3.508   6.914   9.171  0.6858 -0.4892  0.3947
  190POPC  H11X21967   3.558   7.013   9.161 -0.3902  0.0536  0.2629
  190POPC  H11Y21968   3.399   6.934   9.182  1.0540  1.2138  1.3859
  190POPC  C31221969   3.535   6.858   9.035 -0.2626 -0.0799  0.1235
  190POPC  H12X21970   3.500   6.923   8.952 -2.3752 -2.2349 -0.7950
  190POPC  H12Y21971   3.476   6.766   9.018  0.4075 -0.4009 -0.5283
  190POPC  C31321972   3.672   6.810   9.001  0.1281  0.3613  0.2983
  190POPC  H13X21973   3.716   6.721   9.050  1.3932  0.1738 -1.1191
  190POPC  H13Y21974   3.741   6.895   9.021  0.6498 -0.2765  1.3370
  190POPC  C31421975   3.681   6.779   8.850 -0.1780 -0.4527 -0.6514
  190POPC  H14X21976   3.657   6.875   8.800 -1.4517 -0.3980  0.0163
  190POPC  H14Y21977   3.598   6.715   8.815  0.3276 -0.0322 -2.7573
  190POPC  C31521978   3.827   6.731   8.815  0.6840  0.0241 -0.0722
  190POPC  H15X21979   3.866   6.644   8.872 -0.6227 -0.5152  0.0205
  190POPC  H15Y21980   3.901   6.810   8.842  0.6851  0.7067 -1.8972
  190POPC  C31621981   3.854   6.705   8.667 -0.0079 -0.6322  0.3731
  190POPC  H16X21982   3.758   6.686   8.613 -0.5750  0.8926  0.8017
  190POPC  H16Y21983   3.929   6.625   8.652 -0.6459 -1.2370  0.3055
  190POPC  H16Z21984   3.896   6.793   8.616  1.7731 -0.8185  1.4339
  191POPC     N21985   4.609   1.302   6.207  0.6253 -0.0576 -0.2975
  191POPC   C1221986   4.499   1.372   6.290  0.5805 -0.0828 -0.2640
  191POPC  H12A21987   4.417   1.398   6.224  0.7403  0.8351 -0.1182
  191POPC  H12B21988   4.531   1.470   6.322 -2.1811  0.6719  0.5146
  191POPC   C1321989   4.727   1.272   6.284 -0.5494 -0.2720 -0.6777
  191POPC  H13A21990   4.762   1.365   6.328  5.4311 -1.7897 -1.3304
  191POPC  H13B21991   4.703   1.214   6.372 -0.9553  0.3104 -0.3959
  191POPC  H13C21992   4.803   1.210   6.239 -0.2711 -1.0680  0.8181
  191POPC   C1421993   4.561   1.168   6.158 -0.8419  0.0239  0.4471
  191POPC  H14A21994   4.487   1.187   6.082  0.2144  0.6029 -0.4648
  191POPC  H14B21995   4.639   1.111   6.109  1.3749  0.0074  3.7006
  191POPC  H14C21996   4.511   1.119   6.240  1.2381  1.1997  2.5525
  191POPC   C1521997   4.652   1.388   6.089 -1.0537  0.3048  0.3827
  191POPC  H15A21998   4.703   1.477   6.124  1.0475 -0.1781 -1.2577
  191POPC  H15B21999   4.573   1.417   6.021  1.1737 -0.7347 -2.8822
  191POPC  H15C22000   4.726   1.347   6.022  1.0154  1.0138  2.1305
  191POPC   C1122001   4.432   1.302   6.417  0.2102  0.2305  0.0642
  191POPC  H11A22002   4.372   1.372   6.478  2.3734  0.1180  2.4480
  191POPC  H11B22003   4.513   1.278   6.488  0.5149 -1.0547 -0.6785
  191POPC     P22004   4.219   1.182   6.295 -0.3210 -0.0880  0.2963
  191POPC   O1322005   4.249   1.172   6.147  1.0656  1.1107 -0.3579
  191POPC   O1422006   4.129   1.295   6.343 -0.2332 -0.2346 -0.3279
  191POPC   O1222007   4.348   1.185   6.385 -0.6251  0.0196 -0.5268
  191POPC   O1122008   4.145   1.055   6.340 -0.3245 -0.4409  0.1426
  191POPC    C122009   4.213   0.935   6.390  0.4230 -0.3079 -0.3950
  191POPC    HA22010   4.324   0.942   6.387  0.3215  2.3741 -0.3194
  191POPC    HB22011   4.168   0.856   6.326 -1.4938  1.2735 -1.1334
  191POPC    C222012   4.175   0.902   6.542 -0.3349  0.0763  0.3113
  191POPC    HS22013   4.168   0.792   6.558  1.5245  0.0326  1.1233
  191POPC   O2122014   4.061   0.972   6.578  0.4501  0.1878 -0.1184
  191POPC   C2122015   3.949   0.930   6.521 -0.0737  0.0808  0.1883
  191POPC   O2222016   3.936   0.839   6.436  0.1197  0.2211 -0.8546
  191POPC   C2222017   3.838   1.027   6.557  0.4593 -0.1864  0.4525
  191POPC   H2R22018   3.746   1.007   6.498  0.8743  0.6728 -0.5112
  191POPC   H2S22019   3.865   1.134   6.545 -1.0503  0.4428  2.1916
  191POPC    C322020   4.287   0.951   6.638  0.1726  0.2777 -0.0290
  191POPC    HX22021   4.280   1.062   6.628  0.9197  0.2442 -1.0806
  191POPC    HY22022   4.389   0.922   6.605 -0.7768 -0.2049 -2.7070
  191POPC   O3122023   4.265   0.923   6.783 -0.6585 -0.4129  0.3036
  191POPC   C3122024   4.273   0.792   6.818  0.1035  0.1115  0.2648
  191POPC   O3222025   4.293   0.701   6.743 -0.3879 -0.1447  0.0601
  191POPC   C3222026   4.235   0.769   6.963 -0.0292 -0.0580  0.7084
  191POPC   H2X22027   4.316   0.773   7.039 -2.1898 -2.6188  3.3827
  191POPC   H2Y22028   4.193   0.667   6.971 -0.3338 -0.0408 -0.5117
  191POPC   C2322029   3.792   1.009   6.700  0.1448  0.8421 -0.1351
  191POPC   H3R22030   3.701   1.071   6.716 -0.1238  0.2203  0.8160
  191POPC   H3S22031   3.878   1.042   6.763  0.3396  0.9379 -0.4498
  191POPC   C2422032   3.734   0.868   6.737  0.0841 -0.3762  0.1286
  191POPC   H4R22033   3.816   0.794   6.747 -0.5023 -1.0602 -0.0626
  191POPC   H4S22034   3.685   0.831   6.644  2.1652 -0.4020 -1.0288
  191POPC   C2522035   3.641   0.870   6.859  0.3535 -0.3879  0.5740
  191POPC   H5R22036   3.614   0.764   6.875  0.6957 -0.3410  1.5135
  191POPC   H5S22037   3.544   0.923   6.847  0.0153 -0.9844  0.6407
  191POPC   C2622038   3.705   0.897   6.992 -0.5909 -0.1668  0.6266
  191POPC   H6R22039   3.755   0.997   6.996 -0.3828 -0.0170 -2.8324
  191POPC   H6S22040   3.785   0.821   7.006 -0.3668  0.1065  0.8532
  191POPC   C2722041   3.611   0.883   7.114  0.2714  0.2421 -0.7735
  191POPC   H7R22042   3.577   0.778   7.132 -3.3152  1.5895  1.3680
  191POPC   H7S22043   3.521   0.938   7.081  0.3247  1.5281  1.0691
  191POPC   C2822044   3.664   0.937   7.253  0.2324  0.0032  0.1459
  191POPC   H8R22045   3.700   1.042   7.242  0.5656 -0.1243  0.0127
  191POPC   H8S22046   3.757   0.877   7.268  0.4178  0.3562  0.4220
  191POPC   C2922047   3.572   0.907   7.368 -0.2539  0.5001  0.2711
  191POPC   H9122048   3.473   0.954   7.367  0.0433  1.5127  3.9239
  191POPC  C21022049   3.605   0.838   7.478  0.8193 -0.1495  0.3889
  191POPC  H10122050   3.529   0.828   7.557  1.0390 -1.3409  0.4755
  191POPC  C21122051   3.727   0.769   7.520 -0.5246 -0.4709  0.5688
  191POPC  H11R22052   3.810   0.778   7.447 -0.5072 -1.7027  0.4055
  191POPC  H11S22053   3.704   0.662   7.542 -1.6737  0.0850  2.2644
  191POPC  C21222054   3.774   0.826   7.658 -0.0809  0.3874  0.4765
  191POPC  H12R22055   3.794   0.935   7.655  0.7687  0.2108 -0.4814
  191POPC  H12S22056   3.871   0.780   7.684 -0.6422 -2.1594 -1.5431
  191POPC  C21322057   3.682   0.802   7.784 -0.1096 -0.3942 -0.2859
  191POPC  H13R22058   3.676   0.691   7.790  0.9529 -0.4619 -0.2837
  191POPC  H13S22059   3.578   0.835   7.766 -0.1858 -0.1409  0.5998
  191POPC  C21422060   3.742   0.859   7.910 -0.7271  0.1705  0.3571
  191POPC  H14R22061   3.746   0.970   7.898 -1.4553  0.5289  2.7364
  191POPC  H14S22062   3.849   0.832   7.916 -1.1611 -1.5094  1.1160
  191POPC  C21522063   3.685   0.815   8.044 -0.1013  0.8010 -0.1008
  191POPC  H15R22064   3.684   0.704   8.054  1.8879  0.6360 -1.1823
  191POPC  H15S22065   3.578   0.845   8.044 -0.0056  1.1865  1.1109
  191POPC  C21622066   3.768   0.876   8.155 -0.2591  0.9452  0.1770
  191POPC  H16R22067   3.783   0.985   8.138  0.5784  0.8557  0.3090
  191POPC  H16S22068   3.871   0.834   8.163  0.0943  1.9178  0.9872
  191POPC  C21722069   3.706   0.872   8.290 -0.0808 -0.0856  0.1085
  191POPC  H17R22070   3.718   0.766   8.322  0.3954 -0.2282 -0.5126
  191POPC  H17S22071   3.597   0.887   8.274 -0.3183  1.7745  2.8951
  191POPC  C21822072   3.766   0.978   8.388 -0.0364  1.0259 -0.5081
  191POPC  H18R22073   3.774   1.078   8.340 -0.6356  0.4813 -1.8007
  191POPC  H18S22074   3.867   0.944   8.418 -0.0740 -0.3395 -1.8011
  191POPC  H18T22075   3.694   0.987   8.473 -0.3955  2.3303 -0.9255
  191POPC   C3322076   4.128   0.875   7.002 -0.4940  0.0069  0.2556
  191POPC   H3X22077   4.047   0.871   6.926  1.0842  0.4683 -1.5247
  191POPC   H3Y22078   4.178   0.973   6.985 -1.6124  0.3853 -0.9904
  191POPC   C3422079   4.057   0.867   7.145 -0.5403 -0.4111  0.0986
  191POPC   H4X22080   4.010   0.768   7.164 -0.5274 -0.0175  2.4507
  191POPC   H4Y22081   3.982   0.948   7.157  0.5985  0.4661  1.7168
  191POPC   C3522082   4.160   0.883   7.256  0.2787  0.0655  0.3136
  191POPC   H5X22083   4.196   0.988   7.265  0.9601 -0.1856  0.6614
  191POPC   H5Y22084   4.251   0.826   7.224 -1.0482 -1.8345 -0.2815
  191POPC   C3622085   4.114   0.824   7.390 -0.0898  0.7907  0.0437
  191POPC   H6X22086   4.078   0.722   7.364 -0.1764  0.5139  1.1793
  191POPC   H6Y22087   4.030   0.883   7.432  0.7806  1.9366  0.2228
  191POPC   C3722088   4.227   0.803   7.494  0.6721  0.1813 -0.0820
  191POPC   H7X22089   4.296   0.890   7.490  0.9847 -0.0600  0.0407
  191POPC   H7Y22090   4.281   0.715   7.453  1.2722 -0.0276  1.1232
  191POPC   C3822091   4.170   0.770   7.639  0.2106 -0.1477  0.7357
  191POPC   H8X22092   4.103   0.682   7.626  1.9168 -1.1573 -2.3502
  191POPC   H8Y22093   4.098   0.846   7.676 -0.3815  0.2014 -1.0376
  191POPC   C3922094   4.280   0.726   7.731  1.2613 -0.1761 -0.5576
  191POPC   H9X22095   4.365   0.796   7.730  0.8206  0.3792 -1.7130
  191POPC   H9Y22096   4.333   0.639   7.686  0.7750 -1.0932  0.5792
  191POPC  C31022097   4.248   0.688   7.872 -0.2983  0.2172 -0.5616
  191POPC  H10X22098   4.170   0.609   7.878 -2.1509  2.0165  0.1104
  191POPC  H10Y22099   4.204   0.770   7.932  0.3696 -0.9852  1.6902
  191POPC  C31122100   4.375   0.632   7.948  0.1224 -1.1238 -0.2937
  191POPC  H11X22101   4.445   0.718   7.960 -0.4669 -0.4981 -1.2005
  191POPC  H11Y22102   4.436   0.562   7.887  0.2128  0.0687 -1.6555
  191POPC  C31222103   4.343   0.589   8.089  0.7817  0.6396  0.5370
  191POPC  H12X22104   4.293   0.490   8.090 -1.1667  1.4876 -2.2392
  191POPC  H12Y22105   4.280   0.671   8.129  0.0819  0.5452 -0.3591
  191POPC  C31322106   4.468   0.591   8.182  0.4824  0.5366  0.3576
  191POPC  H13X22107   4.484   0.692   8.226 -0.2324  1.1986 -0.8509
  191POPC  H13Y22108   4.557   0.566   8.120  0.0724 -0.1602  0.0416
  191POPC  C31422109   4.447   0.498   8.301  0.3004 -0.0529 -0.3234
  191POPC  H14X22110   4.448   0.391   8.273  0.4909 -0.6384  1.8006
  191POPC  H14Y22111   4.346   0.525   8.338  0.3213 -1.9796  1.2757
  191POPC  C31522112   4.543   0.522   8.419  0.1942  0.2141 -0.0127
  191POPC  H15X22113   4.554   0.629   8.449  2.9210  0.0723 -0.2298
  191POPC  H15Y22114   4.645   0.493   8.385  0.0859  1.9697 -2.0365
  191POPC  C31622115   4.497   0.436   8.537  0.6526 -0.4269 -0.6779
  191POPC  H16X22116   4.572   0.432   8.619 -1.2047  1.5948  1.2581
  191POPC  H16Y22117   4.473   0.338   8.492 -2.6902  0.2567 -0.6598
  191POPC  H16Z22118   4.395   0.464   8.572 -0.6358 -0.9492 -3.7126
  192POPC     N22119   3.626   1.517   5.890 -0.1146  0.0603  0.4073
  192POPC   C1222120   3.633   1.508   6.045  0.0486 -0.0668  0.5144
  192POPC  H12A22121   3.732   1.468   6.061  0.1581 -0.6512 -1.3653
  192POPC  H12B22122   3.565   1.434   6.085 -0.7347  0.8091  0.8452
  192POPC   C1322123   3.604   1.373   5.841 -0.2757 -0.7160  0.6872
  192POPC  H13A22124   3.684   1.307   5.869  1.0067  1.1608  1.6631
  192POPC  H13B22125   3.509   1.337   5.877  0.6661 -1.5254  2.4847
  192POPC  H13C22126   3.594   1.379   5.734  2.4660 -0.1308  0.3927
  192POPC   C1422127   3.525   1.614   5.831 -0.0834 -0.1198 -0.1205
  192POPC  H14A22128   3.516   1.596   5.725 -2.2140 -0.1817  0.0263
  192POPC  H14B22129   3.432   1.619   5.885  0.8225  0.8536  1.4323
  192POPC  H14C22130   3.560   1.714   5.853 -2.2514  0.7048 -0.2287
  192POPC   C1522131   3.764   1.563   5.842  0.5650  0.1890  0.6099
  192POPC  H15A22132   3.789   1.650   5.900 -1.3740  1.1302  0.1292
  192POPC  H15B22133   3.757   1.579   5.736 -1.1957  0.3799  0.7136
  192POPC  H15C22134   3.835   1.488   5.873  0.8246  0.5575  0.9088
  192POPC   C1122135   3.618   1.647   6.109  0.2331  0.4921 -0.1924
  192POPC  H11A22136   3.619   1.638   6.219 -2.1249  0.3295 -0.1440
  192POPC  H11B22137   3.520   1.698   6.100  0.6612  1.3622 -0.0277
  192POPC     P22138   3.852   1.759   6.162  0.1838 -0.1742 -0.0084
  192POPC   O1322139   3.944   1.836   6.074  0.1538  0.4238  0.5787
  192POPC   O1422140   3.902   1.631   6.220 -0.0997 -1.1028  0.0231
  192POPC   O1222141   3.726   1.735   6.074  0.0950  0.0840 -0.3521
  192POPC   O1122142   3.811   1.857   6.281  0.0459 -0.8924 -0.6965
  192POPC    C122143   3.692   1.946   6.271 -0.2186  0.1153 -0.0834
  192POPC    HA22144   3.630   1.943   6.363 -1.1276  1.3120 -0.6429
  192POPC    HB22145   3.626   1.914   6.188 -0.0129 -0.6584  0.0437
  192POPC    C222146   3.740   2.096   6.258  0.2121 -0.6557 -0.2472
  192POPC    HS22147   3.811   2.088   6.173  1.2215 -2.0596  0.6820
  192POPC   O2122148   3.810   2.136   6.380 -0.1612 -0.2388 -0.3026
  192POPC   C2122149   3.895   2.231   6.377 -0.2414 -0.2581 -1.2735
  192POPC   O2222150   3.937   2.292   6.279  0.9020  0.2168 -0.3459
  192POPC   C2222151   3.955   2.249   6.510 -1.5735 -0.0530 -0.6989
  192POPC   H2R22152   3.983   2.357   6.509 -0.1728 -0.3970 -0.3609
  192POPC   H2S22153   4.041   2.181   6.525 -1.2418  0.6011  0.4901
  192POPC    C322154   3.629   2.190   6.218  0.2805 -0.5067 -0.3809
  192POPC    HX22155   3.587   2.148   6.124  0.0163 -1.9964  0.3702
  192POPC    HY22156   3.676   2.288   6.193  0.1570 -0.1460  0.7463
  192POPC   O3122157   3.512   2.192   6.312 -0.1181 -0.3630  0.4945
  192POPC   C3122158   3.513   2.294   6.392  0.0572  0.4633  0.4119
  192POPC   O3222159   3.595   2.385   6.400 -0.2229  1.1473 -0.3165
  192POPC   C3222160   3.373   2.298   6.449  0.1680  0.2660  0.2045
  192POPC   H2X22161   3.312   2.206   6.439 -1.0664  1.0762 -0.0314
  192POPC   H2Y22162   3.320   2.378   6.392 -1.2342 -0.9965 -0.3199
  192POPC   C2322163   3.877   2.229   6.642 -0.6483 -1.0784  0.0016
  192POPC   H3R22164   3.840   2.125   6.641  1.0367 -1.7057 -0.3566
  192POPC   H3S22165   3.778   2.280   6.646 -0.1042  0.0707 -0.6119
  192POPC   C2422166   3.968   2.243   6.768 -0.3246  0.5804 -0.8602
  192POPC   H4R22167   3.985   2.351   6.786 -1.1367  0.7244 -0.9520
  192POPC   H4S22168   4.065   2.192   6.750 -0.1196 -0.2139  1.9874
  192POPC   C2522169   3.918   2.195   6.902  0.4848  0.7407  0.3528
  192POPC   H5R22170   3.912   2.085   6.888  0.5143  0.9524 -1.5752
  192POPC   H5S22171   3.818   2.238   6.922  0.7083  0.8534  1.2479
  192POPC   C2622172   4.022   2.230   7.015  0.2944  0.2550 -0.7228
  192POPC   H6R22173   4.018   2.341   7.016 -0.5612  0.2486  1.7977
  192POPC   H6S22174   4.119   2.182   6.989 -1.4706 -3.0281 -1.8219
  192POPC   C2722175   3.971   2.172   7.145 -0.2096 -0.2223 -0.0743
  192POPC   H7R22176   3.965   2.062   7.133 -1.2175 -0.1350 -0.4634
  192POPC   H7S22177   3.866   2.206   7.160  0.3705  0.5999  2.7446
  192POPC   C2822178   4.059   2.210   7.258  0.1049 -0.2437 -0.2001
  192POPC   H8R22179   4.167   2.194   7.237  0.1217  0.1401 -0.4112
  192POPC   H8S22180   4.038   2.148   7.348  0.5306 -0.0234  0.0574
  192POPC   C2922181   4.053   2.354   7.292  0.1335 -0.5328 -0.1533
  192POPC   H9122182   4.116   2.413   7.223 -0.0385 -1.3094 -0.9946
  192POPC  C21022183   3.992   2.415   7.392 -0.0350 -0.0899  0.3759
  192POPC  H10122184   3.993   2.525   7.395 -0.9930 -0.0730  0.4545
  192POPC  C21122185   3.906   2.349   7.493 -0.1788  0.0585  0.2256
  192POPC  H11R22186   3.863   2.253   7.458  0.3755  0.0093 -0.3317
  192POPC  H11S22187   3.814   2.411   7.498 -0.8165 -0.9398  1.2051
  192POPC  C21222188   3.967   2.320   7.631 -0.2500 -0.1453 -0.1170
  192POPC  H12R22189   4.053   2.250   7.619 -2.1652 -2.8676  1.1135
  192POPC  H12S22190   3.901   2.254   7.691  0.4391 -2.5707 -1.8455
  192POPC  C21322191   3.981   2.446   7.719  0.1792 -0.3494  0.9054
  192POPC  H13R22192   3.878   2.488   7.728  1.6469  4.0992 -0.5991
  192POPC  H13S22193   4.032   2.528   7.664 -0.5472  0.2924  1.1558
  192POPC  C21422194   4.027   2.399   7.859  0.1150  0.9080  0.4015
  192POPC  H14R22195   3.983   2.298   7.875  0.6720  0.0809 -2.6017
  192POPC  H14S22196   3.987   2.470   7.934 -0.7860  0.2360  0.5733
  192POPC  C21522197   4.177   2.396   7.874 -0.2715  0.3502  0.4469
  192POPC  H15R22198   4.219   2.492   7.838  0.4820  0.0273  0.4470
  192POPC  H15S22199   4.222   2.318   7.809  0.3906  0.1014  1.1973
  192POPC  C21622200   4.217   2.385   8.021  0.2155 -0.0734  0.3564
  192POPC  H16R22201   4.191   2.284   8.057  1.7288  0.2403  2.4923
  192POPC  H16S22202   4.153   2.458   8.074 -0.1598 -1.5911  2.0756
  192POPC  C21722203   4.358   2.420   8.046 -0.4543  0.3242 -0.3918
  192POPC  H17R22204   4.361   2.531   8.048 -4.4709  0.5876 -0.9175
  192POPC  H17S22205   4.425   2.384   7.964  0.4879  0.3636  0.3459
  192POPC  C21822206   4.406   2.367   8.183  0.6313 -0.1014 -0.1585
  192POPC  H18R22207   4.343   2.284   8.222 -1.3260  0.3798 -2.0475
  192POPC  H18S22208   4.404   2.447   8.260 -1.2381 -0.7142  0.4884
  192POPC  H18T22209   4.512   2.338   8.171  0.2035 -1.8481  0.0382
  192POPC   C3322210   3.377   2.339   6.599 -0.4078  0.3976 -0.7213
  192POPC   H3X22211   3.277   2.387   6.601  0.0944  1.4807  1.0020
  192POPC   H3Y22212   3.454   2.416   6.623 -0.9321  0.2390  1.7357
  192POPC   C3422213   3.372   2.228   6.706  0.0366 -0.1517  0.0325
  192POPC   H4X22214   3.465   2.168   6.697  1.1807  1.8319 -2.3550
  192POPC   H4Y22215   3.290   2.160   6.675 -0.4672  0.5517 -0.1963
  192POPC   C3522216   3.335   2.288   6.842 -0.6976  0.1991 -0.5744
  192POPC   H5X22217   3.256   2.366   6.829  0.1166  1.2072  0.3445
  192POPC   H5Y22218   3.425   2.338   6.883 -0.4368  0.2972 -1.2493
  192POPC   C3622219   3.290   2.187   6.942  0.1151 -0.0856  0.5505
  192POPC   H6X22220   3.369   2.114   6.970 -0.7687 -2.3900 -2.3628
  192POPC   H6Y22221   3.209   2.124   6.901 -0.0303  0.7483 -0.4881
  192POPC   C3722222   3.237   2.253   7.070  0.6277  0.0335  0.9269
  192POPC   H7X22223   3.144   2.309   7.044  0.2277 -1.7611 -1.9511
  192POPC   H7Y22224   3.317   2.319   7.111  0.5967 -0.1023  1.2037
  192POPC   C3822225   3.205   2.155   7.182 -0.7004 -0.2251  0.2514
  192POPC   H8X22226   3.292   2.106   7.229 -1.3341 -0.0126  1.7058
  192POPC   H8Y22227   3.146   2.069   7.145 -0.3362 -0.3387 -0.0645
  192POPC   C3922228   3.123   2.208   7.303  0.1665 -0.1199  0.0514
  192POPC   H9X22229   3.018   2.238   7.283  0.7382  0.3538 -2.4684
  192POPC   H9Y22230   3.170   2.304   7.333  0.5585 -0.3211  0.0978
  192POPC  C31022231   3.122   2.120   7.426 -0.8279 -0.7810 -0.2956
  192POPC  H10X22232   3.222   2.093   7.465 -1.5848 -2.1768  0.7809
  192POPC  H10Y22233   3.074   2.024   7.400  0.9569 -1.7912 -0.0444
  192POPC  C31122234   3.054   2.192   7.544 -0.6751  0.1764  0.7408
  192POPC  H11X22235   2.962   2.249   7.516  0.0817  2.1420  2.0175
  192POPC  H11Y22236   3.131   2.269   7.568  2.3523 -0.9685 -3.9454
  192POPC  C31222237   3.022   2.092   7.656 -0.5174  0.1801  0.4871
  192POPC  H12X22238   3.104   2.022   7.681 -1.9693 -1.0467  2.0654
  192POPC  H12Y22239   2.938   2.028   7.621 -2.4816  2.0932  1.5026
  192POPC  C31322240   3.005   2.167   7.786  0.2013 -0.7051  0.2871
  192POPC  H13X22241   2.941   2.118   7.862  0.9607  1.3692  2.3649
  192POPC  H13Y22242   2.971   2.269   7.757 -0.9335 -0.8445  1.0552
  192POPC  C31422243   3.126   2.162   7.878  0.6531 -0.7871  0.4051
  192POPC  H14X22244   3.216   2.179   7.816  1.6161 -2.1992  1.3570
  192POPC  H14Y22245   3.127   2.061   7.923  0.4368  0.2866  2.9687
  192POPC  C31522246   3.107   2.264   7.989  0.6120  0.1002 -0.4611
  192POPC  H15X22247   3.029   2.220   8.054  1.2226  1.0161  0.9314
  192POPC  H15Y22248   3.064   2.361   7.955  0.1563  0.3040  0.6730
  192POPC  C31622249   3.227   2.281   8.074  0.2144 -0.3046 -0.4345
  192POPC  H16X22250   3.274   2.184   8.101  1.4181  0.8489  1.9245
  192POPC  H16Y22251   3.204   2.340   8.165 -0.5253 -0.3007 -0.6229
  192POPC  H16Z22252   3.306   2.340   8.023  2.1840 -1.0968  1.5407
  193SOD    SOD22253   2.458   6.509   5.122  0.0004 -0.0335  0.5297
  194SOD    SOD22254   5.245   6.093  12.065  0.6204  0.5573 -0.3239
  195SOD    SOD22255   6.284   5.933   5.773 -0.0069 -0.1710 -0.2150
  196SOD    SOD22256   0.560   5.195   2.478  0.0775  0.6327 -0.0147
  197SOD    SOD22257   6.530   6.583  11.329  0.0979 -0.2812 -0.3361
  198SOD    SOD22258   4.355   2.910   0.167  0.3689  0.2937  0.4347
  199SOD    SOD22259   3.203   0.569  11.491  0.1371 -0.1929  0.1111
  200SOD    SOD22260   5.466   2.796  14.771 -0.1134  0.5402 -0.1669
  201SOD    SOD22261   1.088   6.020   0.462  0.0533 -0.0873  0.0821
  202SOD    SOD22262   3.871   3.754  15.058 -0.1816 -0.4698 -0.5233
  203SOD    SOD22263   5.118   3.347   1.166  0.2221  0.0967 -0.1541
  204SOD    SOD22264   5.736   5.294   0.719  0.1654 -0.1194 -0.1678
  205SOD    SOD22265   5.230   1.459  10.513 -0.2276  0.2520 -0.0877
  206SOD    SOD22266   5.472   2.372   5.716 -0.6331  0.3854 -0.2843
  207SOD    SOD22267   3.681   6.751  11.268  0.4297  0.3547 -0.8059
  208SOD    SOD22268   6.062   6.492   2.291 -0.2784 -0.2770 -0.5151
  209SOD    SOD22269   2.722   5.300  10.548 -0.0838 -0.6440 -0.0483
  210SOD    SOD22270   0.216   5.343  12.783  0.2884  0.4509 -0.1164
  211SOD    SOD22271   0.882   6.258  14.637 -0.2236  0.1999 -0.1227
  212SOD    SOD22272   1.113   1.652  15.937 -0.2734 -0.1175  0.1167
  213SOD    SOD22273   2.586   6.482  13.180  0.3578 -0.0137  0.4185
  214SOD    SOD22274   3.154   2.957  10.815  0.0681  0.3221  0.4556
  215SOD    SOD22275   1.313   6.045  15.875 -0.3515 -0.3940  0.7084
  216SOD    SOD22276   4.040   1.554  14.455 -0.6114  0.4145  0.2038
  217SOD    SOD22277   6.042   2.688  14.372  0.0248  0.7890  0.2421
  218SOD    SOD22278   3.221   5.680  12.746  0.2859  0.1228  0.2185
  219SOD    SOD22279   3.739   3.993   6.134 -0.1750 -0.5887  0.5124
  220SOD    SOD22280   0.455   2.655  15.420 -0.0103  0.4544  0.0230
  221SOD    SOD22281   1.504   5.318  16.232 -0.0707  0.1229  0.1940
  222SOD    SOD22282   1.953   5.522   4.490  0.6673 -0.5274  0.2706
  223SOD    SOD22283   4.734   5.510  15.750  0.6097  0.4686  0.0969
  224SOD    SOD22284   4.769   1.102   5.064 -0.0098  0.5433 -0.0603
  225SOD    SOD22285   0.365   3.142  13.026 -0.0755  0.3556  0.4895
  226SOD    SOD22286   1.065   3.845  16.946 -0.1619  0.1043  0.0830
  227SOD    SOD22287   4.184   0.296   1.060  0.6030 -0.2093 -0.4542
  228SOD    SOD22288   1.925   0.971   2.416 -0.7215 -0.3045 -0.4337
  229SOD    SOD22289   5.351   5.228  13.167  0.0578 -0.0906 -0.7309
  230SOD    SOD22290   1.474   4.203   6.088  0.2305 -0.0356 -0.3760
  231SOD    SOD22291   2.376   2.486   6.181  0.1755  0.1715  0.1647
  232SOD    SOD22292   1.186   2.606   4.232  0.5333  0.6577 -0.3101
  233SOD    SOD22293   2.718   3.357   5.076  0.0564 -0.1315  0.4478
  234SOD    SOD22294   0.111   1.277   0.884  0.1548 -0.0983 -0.0800
  235SOD    SOD22295   1.615   4.753  13.652 -0.0228  0.3191 -0.0963
  236SOD    SOD22296   3.597   4.243  16.052  0.1101 -0.0827  0.1488
  237SOD    SOD22297   0.998   4.419  12.368  0.0731  0.0631 -0.0785
  238SOD    SOD22298   0.971   1.552  15.365  0.1434  0.0114  0.0343
  239SOD    SOD22299   1.383   0.773  12.809  0.0258 -0.1161 -0.4449
  240SOD    SOD22300   0.509   0.037   5.981 -0.2923 -0.3009  0.4282
  241SOD    SOD22301   0.738   3.346  13.860 -0.4725 -0.1022 -0.0471
  242SOD    SOD22302   3.932   5.443   6.539  0.0652 -0.3017  0.0435
  243SOD    SOD22303   6.253   2.254   3.737  0.2436 -0.0130  0.3655
  244SOD    SOD22304   4.435   4.625  10.993 -0.0436  0.2193 -0.4395
  245SOD    SOD22305   1.119   2.652   5.267  0.2141 -0.0266  0.1288
  246SOD    SOD22306   4.427   4.441  13.168 -0.6346  0.0890 -0.5264
  247SOD    SOD22307   1.751   2.121   5.048 -0.8532 -0.1848 -0.1070
  248SOD    SOD22308   4.530   1.976   2.012  0.9130 -0.4394 -0.4225
  249SOD    SOD22309   5.675   3.504   1.305 -0.3120 -0.2944 -0.0014
  250SOD    SOD22310   3.356   5.246   6.550 -0.2813 -0.1670  0.3431
  251SOD    SOD22311   5.806   0.452  13.238 -0.0581 -0.2162  0.0120
  252SOD    SOD22312   6.461   6.297  17.048 -0.0969 -0.2010 -0.6952
  253SOD    SOD22313   1.154   1.804   1.930 -0.2985  0.6315 -0.7273
  254SOD    SOD22314   0.587   6.470   3.859  0.3960 -0.4186 -0.4681
  255SOD    SOD22315   1.055   1.123  12.178 -0.0502 -0.2140 -0.2239
  256SOD    SOD22316   4.080   5.652   5.435 -0.2014 -0.0940 -0.0542
  257SOD    SOD22317   2.136   1.486  15.876  0.5855 -0.1842  0.2373
  258SOD    SOD22318   2.898   6.720   2.982 -0.0025 -0.1267  0.9067
  259SOD    SOD22319   1.462   2.060   6.687 -0.5439 -0.1713 -0.4505
  260SOD    SOD22320   4.381   0.085   6.513  0.2286 -0.5637  0.2134
  261SOD    SOD22321   0.015   1.739  11.561  0.2553  0.1236  0.3482
  262SOD    SOD22322   5.871   4.190   2.007 -0.2013  0.0098  0.0433
  263SOD    SOD22323   3.271   3.406   2.187  0.4495  0.3177 -0.0381
  264SOD    SOD22324   1.778   4.024  11.183  0.3002  0.4924 -0.1751
  265SOD    SOD22325   1.544   3.712  14.379 -0.3330  0.2623  0.4014
  266SOD    SOD22326   4.947   5.216  10.639  0.0576  0.1438  0.0846
  267SOD    SOD22327   2.261   4.999   5.986 -0.3940 -0.1571 -0.1973
  268SOD    SOD22328   4.573   3.293  11.578  0.1138  0.2304 -0.0733
  269SOD    SOD22329   3.389   2.102   4.904 -0.2461  0.6653  0.2951
  270CLA    CLA22330   2.894   1.635  16.054  0.1639  0.0666 -0.0259
  271CLA    CLA22331   6.468   2.927  14.400  0.0230 -0.0205  0.5195
  272CLA    CLA22332   3.081   2.344   4.307  0.2374  0.0422  0.3211
  273CLA    CLA22333   2.632   1.921   1.604 -0.4388  0.2247 -0.1345
  274CLA    CLA22334   0.915   0.767  12.465  0.2191 -0.1868 -0.1007
  275CLA    CLA22335   4.602   3.554  11.660  0.1833 -0.1310  0.7231
  276CLA    CLA22336   6.068   3.811   1.471 -0.0492  0.2535 -0.1177
  277CLA    CLA22337   0.899   4.225  13.306 -0.1371 -0.1495 -0.0639
  278CLA    CLA22338   5.992   4.459  14.378  0.5806 -0.5397  0.2076
  279CLA    CLA22339   3.362   3.273  16.815  0.3763 -0.1933  0.4916
  280CLA    CLA22340   6.464   5.797   1.403 -0.0701  0.0270 -0.0951
  281CLA    CLA22341   6.443   5.322   0.878 -0.3137 -0.0898  0.1297
  282CLA    CLA22342   1.255   2.781   4.419 -0.4968  0.0047  0.0821
  283CLA    CLA22343   0.115   0.208   1.375 -0.0896  0.0361  0.0508
  284CLA    CLA22344   4.206   4.487   0.919 -0.0438 -0.2036  0.5438
  285CLA    CLA22345   2.722   5.505   0.657  0.0312  0.2899 -0.2432
  286CLA    CLA22346   6.642   3.914   1.584 -0.3484 -0.1744  0.1750
  287CLA    CLA22347   4.633   4.007  13.335 -0.2592  0.2533  0.3220
  288CLA    CLA22348   3.302   1.600   3.718  0.0735  0.4301 -0.0412
  289CLA    CLA22349   1.001   2.261   2.445  0.0120  0.1189 -0.3543
  290CLA    CLA22350   3.846   5.793  11.856 -0.0578  0.0478  0.1128
  291CLA    CLA22351   2.278   4.459   2.529 -0.0225  0.0050 -0.1071
  292CLA    CLA22352   5.595   5.339  13.702 -0.1698  0.2285 -0.0099
  293CLA    CLA22353   4.636   6.348  16.904  0.0231  0.1305  0.1140
  294CLA    CLA22354   6.594   6.481   3.867  0.0501 -0.4974 -0.1537
  295CLA    CLA22355   2.066   4.162  12.558  0.6608 -0.2542 -0.1386
  296CLA    CLA22356   1.302   2.012   2.767 -0.1820 -0.1514 -0.6538
  297CLA    CLA22357   5.652   1.008   5.336  0.1186 -0.1155  0.2094
  298CLA    CLA22358   1.779   2.192   3.455 -0.3261  0.1903  0.1121
  299CLA    CLA22359   6.739   2.399   4.719  0.1273 -0.4984  0.1408
  300CLA    CLA22360   2.539   5.603  15.551 -0.2823  0.1217  0.0542
  301CLA    CLA22361   1.845   3.594  15.830  0.0074 -0.0291  0.1957
  302CLA    CLA22362   0.062   3.925  12.244 -0.0228  0.1161 -0.3537
  303CLA    CLA22363   2.615   3.059  15.564  0.1218 -0.2447 -0.1974
  304CLA    CLA22364   5.475   6.578   3.993 -0.1354  0.4922 -0.2391
  305CLA    CLA22365   5.875   4.029  13.525 -0.0540 -0.1674 -0.2446
  306CLA    CLA22366   6.034   1.236  13.526  0.1270  0.0205  0.7791
  307CLA    CLA22367   3.188   6.295  13.111 -0.0653 -0.2130 -0.4171
  308CLA    CLA22368   5.456   6.027  13.496 -0.3864 -0.1991  0.7168
  309CLA    CLA22369   5.806   0.789   2.047 -0.1838 -0.3296 -0.0937
  310CLA    CLA22370   2.926   0.548  16.036 -0.5916  0.2704 -0.3903
  311CLA    CLA22371   4.444   0.440  15.624 -0.1507 -0.4024  0.3354
  312CLA    CLA22372   1.895   3.637   5.485  0.2070  0.1592 -0.2534
  313CLA    CLA22373   3.098   6.125   4.772 -0.1170 -0.1978  0.0090
  314CLA    CLA22374   0.933   0.675   4.063  0.1171  0.0960 -0.1850
  315CLA    CLA22375   3.190   2.232   2.662  0.1316 -0.0683  0.6429
  316CLA    CLA22376   6.186   2.208  14.755  0.2553 -0.1771 -0.1427
  317CLA    CLA22377   5.258   0.836   5.651 -0.0791 -0.0271  0.1589
  318CLA    CLA22378   2.548   1.450  14.158  0.5174  0.1039 -0.5268
  319CLA    CLA22379   6.355   6.093  11.859  0.2261 -0.3778 -0.1348
  320CLA    CLA22380   6.445   5.598  12.457 -0.0938 -0.2584  0.0198
  321CLA    CLA22381   6.320   2.571  15.392 -0.0093 -0.1686  0.1762
  322CLA    CLA22382   0.630   1.343  15.095  0.1892  0.1450 -0.3480
  323TIP3   OH222383   5.700   3.348   4.114 -0.4607  0.3711 -0.0552
  323TIP3    H122384   5.708   3.271   4.057 -1.1528  0.6262 -0.5108
  323TIP3    H222385   5.661   3.314   4.195  0.5882 -0.0051  0.3075
  324TIP3   OH222386   2.144   4.996  14.912  0.4795  0.8325 -0.7743
  324TIP3    H122387   2.220   4.996  14.854  1.5446  0.5801  0.5816
  324TIP3    H222388   2.180   5.003  15.000 -0.8871 -1.7540  0.0990
  325TIP3   OH222389   2.956   4.458  11.799 -0.4600  0.2649 -0.2488
  325TIP3    H122390   2.889   4.520  11.773 -0.2594  1.2127  1.4139
  325TIP3    H222391   3.002   4.500  11.872 -0.5568 -1.9759  1.1901
  326TIP3   OH222392   2.461   2.095  15.022 -0.3203  0.0023  0.4555
  326TIP3    H122393   2.366   2.096  15.006 -0.2948  1.3367  0.2930
  326TIP3    H222394   2.500   2.105  14.935  0.0391 -1.9788  0.3298
  327TIP3   OH222395   5.874   0.029   0.130  0.8334  0.1909 -0.3855
  327TIP3    H122396   5.826  -0.051   0.108 -1.2487  0.9272  1.1510
  327TIP3    H222397   5.886   0.024   0.225  2.2635  0.8937 -0.5121
  328TIP3   OH222398   1.570   0.404   4.409  0.5346  0.5208 -0.1140
  328TIP3    H122399   1.498   0.448   4.363  0.7239 -0.5096 -1.4864
  328TIP3    H222400   1.587   0.459   4.486 -1.3344  1.0962 -0.0461
  329TIP3   OH222401   6.205   2.490   0.412  0.2314 -0.2194  0.5243
  329TIP3    H122402   6.165   2.565   0.456  0.5463 -0.3058  0.9651
  329TIP3    H222403   6.135   2.425   0.408 -0.3121  0.3928 -0.6446
  330TIP3   OH222404   3.882   4.661   4.620 -0.1463  0.5378  0.3179
  330TIP3    H122405   3.819   4.614   4.675  0.1530  1.3587  1.3751
  330TIP3    H222406   3.884   4.610   4.539  1.0261 -2.0131  1.8066
  331TIP3   OH222407   6.558   2.836  11.215  1.0726 -0.0781 -0.5406
  331TIP3    H122408   6.528   2.905  11.155  1.4254  0.4293 -0.1438
  331TIP3    H222409   6.606   2.775  11.158  0.8605  0.0666 -0.8796
  332TIP3   OH222410   5.427   1.562   0.695  0.1760 -0.1911  0.4364
  332TIP3    H122411   5.369   1.638   0.690 -0.9913 -1.0802 -3.5037
  332TIP3    H222412   5.513   1.598   0.713 -0.7318  1.8116  0.9631
  333TIP3   OH222413   4.650   4.569   4.931  0.0713 -0.1654  0.1061
  333TIP3    H122414   4.695   4.611   4.858  1.2158 -1.1400  0.2237
  333TIP3    H222415   4.559   4.598   4.923  0.2650  0.1024 -1.4264
  334TIP3   OH222416   0.524   3.159   3.007  0.0656 -0.2459  0.1958
  334TIP3    H122417   0.590   3.212   3.053  0.1564  0.6023 -0.8875
  334TIP3    H222418   0.550   3.069   3.026 -0.2853  0.0454  2.3459
  335TIP3   OH222419   3.385   2.890   1.018  0.3404  0.0683 -0.0102
  335TIP3    H122420   3.295   2.919   1.032  0.5241  0.0068  1.4763
  335TIP3    H222421   3.398   2.820   1.081  1.3124 -0.2096 -0.4967
  336TIP3   OH222422   2.143   3.959  15.008  0.1724 -0.3784  0.6307
  336TIP3    H122423   2.208   3.945  15.076  1.2736  0.2660 -0.2627
  336TIP3    H222424   2.113   4.049  15.021 -0.5464 -0.6649  1.0280
  337TIP3   OH222425   0.043   4.238  14.732  0.4953 -0.4020  0.0583
  337TIP3    H122426   0.041   4.142  14.743 -0.2970 -0.4190 -0.2046
  337TIP3    H222427  -0.044   4.260  14.702 -0.4451  0.8022  3.2492
  338TIP3   OH222428   0.912   3.921  13.445 -0.6896  0.7243 -0.0360
  338TIP3    H122429   0.922   3.942  13.538  1.1720  0.6034 -0.1632
  338TIP3    H222430   0.924   4.005  13.400 -1.2589  0.7256 -0.1975
  339TIP3   OH222431   1.094   1.616  14.933  0.2197  0.0851 -0.3251
  339TIP3    H122432   1.026   1.558  14.899  1.4035 -0.2596 -2.2469
  339TIP3    H222433   1.080   1.699  14.886 -0.5245  0.9192  1.2906
  340TIP3   OH222434   5.360   5.317   5.394 -0.0017  0.2888 -0.4059
  340TIP3    H122435   5.441   5.267   5.385 -0.9700 -1.2331 -1.2023
  340TIP3    H222436   5.359   5.345   5.485  1.6333  0.7604 -0.5006
  341TIP3   OH222437   1.552   0.657  16.344 -0.4592  0.2963  0.4191
  341TIP3    H122438   1.591   0.606  16.415 -0.6813  0.9923  1.0479
  341TIP3    H222439   1.627   0.702  16.304  0.1547 -2.3763 -1.7650
  342TIP3   OH222440   0.143   1.815   2.147 -0.1961 -0.7883  0.3234
  342TIP3    H122441   0.177   1.816   2.057  1.2050 -0.6885  0.8172
  342TIP3    H222442   0.121   1.906   2.166 -2.0188 -1.0355 -0.4300
  343TIP3   OH222443   5.963   5.989   0.083 -0.1617 -0.2936 -0.4225
  343TIP3    H122444   5.887   6.013   0.030 -0.7614  0.7400  0.8488
  343TIP3    H222445   5.968   5.893   0.075 -2.3261 -0.5396  0.3612
  344TIP3   OH222446   5.797   6.354   1.818  0.0066  0.1676  0.0643
  344TIP3    H122447   5.892   6.369   1.817 -0.0824  0.7369 -0.1727
  344TIP3    H222448   5.786   6.276   1.872  0.4697  1.0672  1.5147
  345TIP3   OH222449   0.237   0.124   5.380 -0.3120 -0.6618 -0.2809
  345TIP3    H122450   0.310   0.061   5.379 -0.7750 -1.2065 -1.0185
  345TIP3    H222451   0.159   0.071   5.364 -0.7089  0.0970 -0.9794
  346TIP3   OH222452   2.032   3.041  14.424 -0.6348  0.4241 -0.3126
  346TIP3    H122453   1.977   3.067  14.497 -1.2658 -0.9360 -0.2692
  346TIP3    H222454   1.985   2.968  14.383  1.8816 -1.9815  0.7533
  347TIP3   OH222455   0.531   0.503  11.309  0.0882  0.1031  0.1086
  347TIP3    H122456   0.543   0.428  11.251  0.8583 -1.5195  2.2467
  347TIP3    H222457   0.589   0.570  11.273 -0.2187 -0.4730 -1.5419
  348TIP3   OH222458   3.045   2.605   3.622 -0.0171 -0.1604 -0.2919
  348TIP3    H122459   3.058   2.688   3.576 -0.2013 -0.3637 -0.7176
  348TIP3    H222460   3.094   2.541   3.571  0.0796 -0.3231  0.0051
  349TIP3   OH222461   5.875   5.120  13.130 -0.5452  0.0938  0.0534
  349TIP3    H122462   5.856   5.184  13.199 -0.6112  0.0354  0.0884
  349TIP3    H222463   5.869   5.170  13.048  1.1471  0.5561  0.1772
  350TIP3   OH222464   1.338   4.161   4.865 -0.1469 -0.3696 -0.0959
  350TIP3    H122465   1.299   4.165   4.952 -2.0876 -0.8528 -0.8795
  350TIP3    H222466   1.427   4.129   4.879 -0.3481 -0.2041  1.7126
  351TIP3   OH222467   4.377   3.008   5.399 -0.1750 -0.2597  0.3290
  351TIP3    H122468   4.381   3.096   5.438  1.4576 -0.5790  0.9497
  351TIP3    H222469   4.290   2.976   5.423 -1.1444  1.4668 -0.6155
  352TIP3   OH222470   5.318   3.534   1.536  0.4223 -0.2054 -0.0663
  352TIP3    H122471   5.320   3.499   1.625  2.2531  0.4349  0.1800
  352TIP3    H222472   5.230   3.571   1.527 -0.6145 -2.3600  0.6128
  353TIP3   OH222473   1.973   0.121  14.403 -0.4437 -0.2128 -0.2888
  353TIP3    H122474   1.994   0.094  14.314  1.3480  2.4194 -0.7710
  353TIP3    H222475   1.877   0.122  14.405 -0.5492  0.8369 -2.6107
  354TIP3   OH222476   4.223   0.941   6.009  0.4682 -0.5088 -0.1801
  354TIP3    H122477   4.212   1.015   6.069 -3.2270 -1.4013  0.4745
  354TIP3    H222478   4.267   0.874   6.061 -1.0498 -0.6206  1.0369
  355TIP3   OH222479   5.219   1.522  15.714  0.2220 -0.0753 -0.0841
  355TIP3    H122480   5.202   1.490  15.625  2.0987 -0.6965 -0.2633
  355TIP3    H222481   5.151   1.481  15.767  0.1467 -1.1294 -0.9598
  356TIP3   OH222482   4.994   5.574  12.559  0.0876  0.1567  0.0623
  356TIP3    H122483   5.077   5.602  12.520 -0.1782  0.2089 -0.4604
  356TIP3    H222484   5.021   5.530  12.640  0.6090  0.4359  0.0486
  357TIP3   OH222485   4.821   6.357  13.515  0.6643 -0.0628 -0.7083
  357TIP3    H122486   4.728   6.337  13.505  0.5605  0.3286 -0.5652
  357TIP3    H222487   4.864   6.272  13.521  0.2468 -0.2367 -0.1639
  358TIP3   OH222488   5.222   2.193   5.322 -0.2096  0.6090  0.0952
  358TIP3    H122489   5.254   2.268   5.272  0.4542 -0.7307 -1.5775
  358TIP3    H222490   5.301   2.151   5.355 -0.5138  0.0483  0.1180
  359TIP3   OH222491   0.280   2.178   5.474 -0.2845  0.4253 -0.3885
  359TIP3    H122492   0.362   2.211   5.437  0.8817 -0.6163  1.1116
  359TIP3    H222493   0.240   2.128   5.403  0.3595  0.9739 -1.1647
  360TIP3   OH222494   5.167   5.157   4.871  0.6488  0.1373 -0.0897
  360TIP3    H122495   5.191   5.194   4.957 -1.6392  2.0632 -0.1668
  360TIP3    H222496   5.228   5.198   4.810  1.0959  0.2151  0.3965
  361TIP3   OH222497   2.293   1.141   1.779  0.1045 -0.7316 -0.5292
  361TIP3    H122498   2.247   1.111   1.857  2.0137 -1.3859  0.3956
  361TIP3    H222499   2.385   1.131   1.799  0.7205  0.9347 -2.1553
  362TIP3   OH222500   5.636   4.815   2.515 -0.2877  0.1505  0.2819
  362TIP3    H122501   5.594   4.888   2.559 -0.7010 -0.4151  0.8498
  362TIP3    H222502   5.703   4.855   2.459 -1.3162  1.0510 -0.3560
  363TIP3   OH222503   3.339   1.184   2.285  0.9459  0.0894  0.5727
  363TIP3    H122504   3.313   1.271   2.256  0.4680 -0.9075 -2.2843
  363TIP3    H222505   3.266   1.154   2.339 -0.3042  0.3635 -0.8752
  364TIP3   OH222506   6.362   0.928   4.708  0.3859  0.1488 -0.4563
  364TIP3    H122507   6.301   0.941   4.635  1.4080  1.1510 -1.1642
  364TIP3    H222508   6.405   0.845   4.690 -0.8431 -0.6346  0.1189
  365TIP3   OH222509   1.472   1.039  17.258 -0.1872  0.2543 -0.1467
  365TIP3    H122510   1.483   0.973  17.326 -0.2147 -0.6468 -1.0043
  365TIP3    H222511   1.545   1.024  17.197 -1.2281 -0.2121 -1.3235
  366TIP3   OH222512   6.134   6.475   1.184 -0.4398  0.4715  0.3243
  366TIP3    H122513   6.183   6.486   1.102 -1.1974  2.3107  0.0772
  366TIP3    H222514   6.098   6.386   1.178 -0.5473  0.5851 -1.3822
  367TIP3   OH222515   4.031   1.671   3.601 -0.1966  0.5319  0.1510
  367TIP3    H122516   4.001   1.599   3.546  0.9494  0.0196  0.1664
  367TIP3    H222517   4.100   1.633   3.655 -0.1776  1.4302  0.7848
  368TIP3   OH222518   1.350   1.648   5.259  0.2151  0.1704 -0.2752
  368TIP3    H122519   1.277   1.587   5.269  1.0246 -0.6387  0.9321
  368TIP3    H222520   1.400   1.615   5.184 -0.7561  0.8631 -1.2539
  369TIP3   OH222521   0.497   3.398  15.283  0.4882  0.2841 -0.4570
  369TIP3    H122522   0.420   3.448  15.258 -1.1187 -1.1922  1.2194
  369TIP3    H222523   0.525   3.354  15.203 -0.8810  0.2630 -0.9487
  370TIP3   OH222524   1.185   3.855  13.456  1.2227  0.0091  0.1318
  370TIP3    H122525   1.174   3.764  13.481 -1.5904 -0.1004 -1.0874
  370TIP3    H222526   1.101   3.880  13.417  2.3634  2.6990 -0.9178
  371TIP3   OH222527   6.109   2.139  11.574  0.3259  0.2007 -0.0988
  371TIP3    H122528   6.096   2.071  11.508 -0.3273 -0.5631  0.7956
  371TIP3    H222529   6.025   2.146  11.619  0.7412  0.7500  0.6202
  372TIP3   OH222530   0.709   5.880   4.425  0.7601  0.1474  0.0843
  372TIP3    H122531   0.614   5.879   4.436  0.6560  0.8877 -0.6273
  372TIP3    H222532   0.738   5.958   4.472  1.4176 -1.6690  2.9627
  373TIP3   OH222533   2.198   4.495   3.597  0.6711  0.2945 -0.0588
  373TIP3    H122534   2.221   4.423   3.537  0.2097 -0.2305  0.3742
  373TIP3    H222535   2.162   4.563   3.540  1.1759  0.2133 -0.4836
  374TIP3   OH222536   2.597   3.141   6.213 -0.8221 -0.3111 -0.1610
  374TIP3    H122537   2.621   3.214   6.270 -0.4499 -1.3052  0.9946
  374TIP3    H222538   2.650   3.068   6.244 -0.8520 -0.9742 -1.5902
  375TIP3   OH222539   1.601   4.110  15.680  0.2094  0.3448  0.2812
  375TIP3    H122540   1.605   4.020  15.646  0.4631  0.8736 -1.1585
  375TIP3    H222541   1.509   4.121  15.705  0.5539 -0.9489  2.3938
  376TIP3   OH222542   0.637   5.272  17.020  0.1889  0.3546 -0.0838
  376TIP3    H122543   0.663   5.182  17.042 -3.1383 -0.3043  1.9127
  376TIP3    H222544   0.622   5.314  17.105  0.2782  2.3432 -1.0043
  377TIP3   OH222545   2.120   4.933  12.200 -0.3911  0.5732 -0.3554
  377TIP3    H122546   2.091   4.903  12.286 -0.5344  1.3362 -0.1322
  377TIP3    H222547   2.054   4.899  12.140  0.6074 -1.4202 -0.4014
  378TIP3   OH222548   2.431   1.656  12.149  0.5190 -0.0382 -0.2164
  378TIP3    H122549   2.345   1.620  12.171  0.0684  1.5882  0.8143
  378TIP3    H222550   2.413   1.746  12.121  1.9779  0.7081  1.1111
  379TIP3   OH222551   6.539   1.469  11.905 -0.3449 -0.9713  0.2596
  379TIP3    H122552   6.557   1.403  11.972  1.9661 -0.9520 -0.2506
  379TIP3    H222553   6.546   1.422  11.822 -1.1837 -0.5865 -0.0370
  380TIP3   OH222554   0.854   1.473   3.379  0.4937  0.2594  0.0915
  380TIP3    H122555   0.864   1.548   3.320  2.2159 -0.2867 -0.3621
  380TIP3    H222556   0.940   1.462   3.419  0.4466 -1.7991 -0.2599
  381TIP3   OH222557   5.439   6.156   5.638 -0.3268 -0.1805 -0.2545
  381TIP3    H122558   5.462   6.094   5.708  0.5883 -1.4339 -1.6181
  381TIP3    H222559   5.503   6.227   5.648  1.5810 -1.6508 -1.4303
  382TIP3   OH222560   2.596   5.623  13.945  0.4546 -0.2315  0.4296
  382TIP3    H122561   2.586   5.678  13.868  3.6278 -0.8465 -0.5885
  382TIP3    H222562   2.552   5.670  14.016 -1.8352  0.7476 -1.5278
  383TIP3   OH222563   1.161   6.189   3.404  0.2863 -0.2643 -0.1379
  383TIP3    H122564   1.224   6.157   3.339  0.1628  2.1122 -1.5400
  383TIP3    H222565   1.198   6.272   3.433 -2.0008  1.0522 -0.7720
  384TIP3   OH222566   2.877   5.309  11.417  0.0525  0.0031 -0.0785
  384TIP3    H122567   2.793   5.264  11.408 -0.2575  0.7128 -0.8893
  384TIP3    H222568   2.933   5.268  11.351 -0.8757  2.1834 -2.3790
  385TIP3   OH222569   5.139   1.725  13.385  0.5265  0.1231  0.2432
  385TIP3    H122570   5.103   1.802  13.342  0.7140 -0.3535 -0.8216
  385TIP3    H222571   5.069   1.693  13.442  0.3636  0.9227  0.4969
  386TIP3   OH222572   6.772   4.145   0.001  0.2518 -0.1931  0.5215
  386TIP3    H122573   6.680   4.138  -0.026 -0.4328  1.3645  2.2498
  386TIP3    H222574   6.776   4.096   0.083  0.4021  1.5457  1.5990
  387TIP3   OH222575   2.772   2.238  15.938  0.7057  0.2601 -0.0633
  387TIP3    H122576   2.862   2.223  15.909  1.3056 -1.1315  2.3136
  387TIP3    H222577   2.724   2.161  15.907  0.6897  0.2183  0.0652
  388TIP3   OH222578   0.863   3.925  13.946  0.0919  0.0331  0.0714
  388TIP3    H122579   0.790   3.873  13.910  1.9320 -1.8550 -1.1933
  388TIP3    H222580   0.917   3.945  13.869  1.1122  1.0830  1.0358
  389TIP3   OH222581   2.187   1.372  14.327 -0.0380 -0.3611 -0.5695
  389TIP3    H122582   2.264   1.426  14.312  1.1784 -1.0924  2.3144
  389TIP3    H222583   2.171   1.379  14.421 -3.0791 -0.8423 -0.9433
  390TIP3   OH222584   1.147   2.738  15.355 -0.2553  0.7175  0.5496
  390TIP3    H122585   1.063   2.720  15.312  0.6242 -0.3733 -0.7777
  390TIP3    H222586   1.155   2.668  15.421 -0.2731  0.6702  0.5020
  391TIP3   OH222587   5.581   3.365  13.265  0.1775  0.4215 -0.1188
  391TIP3    H122588   5.498   3.397  13.300  0.3490  0.6627  0.0705
  391TIP3    H222589   5.647   3.423  13.303  0.6586 -1.0842  1.4515
  392TIP3   OH222590   0.072   1.726   1.582 -0.1392 -0.0858 -0.0625
  392TIP3    H122591  -0.011   1.687   1.609 -0.5062  1.9859  2.0969
  392TIP3    H222592   0.138   1.674   1.628 -0.3077 -0.8317 -0.6406
  393TIP3   OH222593   3.504   6.515  15.400 -0.1331 -0.1314 -0.3413
  393TIP3    H122594   3.463   6.497  15.485 -0.8751 -2.3550 -1.0733
  393TIP3    H222595   3.432   6.503  15.337  0.4832  1.1299 -1.3212
  394TIP3   OH222596   2.303   2.939  10.517  0.1788 -0.0420  0.3477
  394TIP3    H122597   2.373   2.984  10.564  1.3612 -0.2662 -1.1255
  394TIP3    H222598   2.349   2.873  10.464 -1.0886  0.1429 -1.0331
  395TIP3   OH222599   5.792   0.135   1.883 -0.4533  0.0547 -0.0853
  395TIP3    H122600   5.733   0.073   1.839  0.3595  0.3752 -1.6996
  395TIP3    H222601   5.759   0.139   1.972 -2.8807  0.2101 -0.9010
  396TIP3   OH222602   6.055   2.113   4.444 -0.2161 -0.1717 -0.4315
  396TIP3    H122603   5.972   2.141   4.408  0.5278  2.5817 -0.2624
  396TIP3    H222604   6.118   2.123   4.373  0.3072 -0.2360  0.0063
  397TIP3   OH222605   0.780   5.294   3.111 -0.2742 -0.4101  0.4467
  397TIP3    H122606   0.689   5.290   3.080 -0.2497 -1.4575  0.4715
  397TIP3    H222607   0.824   5.223   3.065  0.8314  0.7933 -0.4420
  398TIP3   OH222608   5.641   4.862  10.338 -0.2638 -0.0135  0.5571
  398TIP3    H122609   5.615   4.927  10.403 -0.2955 -0.0408  0.5718
  398TIP3    H222610   5.559   4.828  10.303 -0.2454  0.4838  0.0204
  399TIP3   OH222611   2.068   4.841   3.739  0.1649  0.2885  0.7730
  399TIP3    H122612   2.130   4.826   3.667 -0.8095 -2.0927  0.3217
  399TIP3    H222613   2.123   4.849   3.816  1.1274 -0.5132  0.2087
  400TIP3   OH222614   3.029   4.953   2.648 -0.2583  0.2505 -0.1031
  400TIP3    H122615   3.076   5.015   2.704 -1.2587  0.3570  0.6454
  400TIP3    H222616   2.980   4.898   2.709  0.6234 -1.3038 -0.7569
  401TIP3   OH222617   2.075   3.585   3.401  0.2251  0.4938  0.6337
  401TIP3    H122618   2.021   3.598   3.479 -0.4561 -1.1852  0.5081
  401TIP3    H222619   2.145   3.526   3.430  0.3253  0.3591  0.1265
  402TIP3   OH222620   2.077   6.104  12.403 -0.6038 -0.0324 -0.1358
  402TIP3    H122621   2.032   6.020  12.413 -0.0129 -0.3699 -0.2328
  402TIP3    H222622   2.045   6.139  12.321  2.0483 -2.0500 -2.2401
  403TIP3   OH222623   6.683   5.762   2.026  0.3777 -0.7389 -0.2409
  403TIP3    H122624   6.608   5.802   1.983  1.7254  1.9550 -0.2536
  403TIP3    H222625   6.737   5.729   1.954  2.5096  3.5397 -0.9052
  404TIP3   OH222626   1.734   4.980  12.541  0.2221 -0.0549 -0.2134
  404TIP3    H122627   1.801   5.039  12.575  0.6401 -0.1829 -0.8069
  404TIP3    H222628   1.761   4.893  12.571  0.7453 -0.2041 -1.0909
  405TIP3   OH222629   4.077   3.945  11.927  0.2467  0.1374 -0.4403
  405TIP3    H122630   4.044   3.873  11.981 -2.0134 -1.5533 -3.7289
  405TIP3    H222631   4.047   4.024  11.970  0.4636 -0.9643  1.8714
  406TIP3   OH222632   3.625   1.022   2.566  0.0247  0.2722  0.2494
  406TIP3    H122633   3.533   1.049   2.562  0.2682  1.3240  1.3701
  406TIP3    H222634   3.651   1.036   2.657  1.3864  0.3198 -0.1180
  407TIP3   OH222635   1.051   4.663  14.450  0.4069  0.4212  0.5204
  407TIP3    H122636   1.131   4.660  14.398  0.1024 -1.7564  0.0950
  407TIP3    H222637   0.980   4.673  14.386  0.2721  1.8495  0.8595
  408TIP3   OH222638   0.254   1.188   1.232 -0.3634  0.0189  0.0791
  408TIP3    H122639   0.181   1.156   1.284  0.3073 -1.3527  0.2283
  408TIP3    H222640   0.320   1.213   1.297 -0.1029 -0.2510 -0.0791
  409TIP3   OH222641   4.239   0.525   3.419 -0.0460 -0.5614 -0.3498
  409TIP3    H122642   4.289   0.486   3.491  0.2076  0.5595  0.0951
  409TIP3    H222643   4.303   0.575   3.369 -0.3046 -0.9708 -1.1203
  410TIP3   OH222644   1.466   1.018  15.433 -0.0149  0.0933  0.0752
  410TIP3    H122645   1.530   0.987  15.370 -1.0559 -0.2126 -0.8624
  410TIP3    H222646   1.390   0.961  15.421 -0.4795  0.4433  1.1567
  411TIP3   OH222647   1.250   2.717  14.372  0.1936 -0.0007 -0.0743
  411TIP3    H122648   1.297   2.795  14.343  0.0215  0.1258 -0.0161
  411TIP3    H222649   1.158   2.736  14.352  0.1332 -0.1262  0.0813
  412TIP3   OH222650   3.027   4.498   3.140  0.2553 -0.0682 -0.3245
  412TIP3    H122651   3.006   4.543   3.222 -1.2572  1.9279 -1.6972
  412TIP3    H222652   2.975   4.417   3.143 -0.2411  0.2642  0.4376
  413TIP3   OH222653   5.239   6.621   6.043 -0.1218  0.1467 -0.1797
  413TIP3    H122654   5.275   6.533   6.028  0.8445  0.5567 -0.3722
  413TIP3    H222655   5.186   6.638   5.965 -2.6782 -1.3595  1.1056
  414TIP3   OH222656   4.736   1.696  16.454 -0.9635  0.9927 -0.2811
  414TIP3    H122657   4.790   1.715  16.531 -0.2686  0.5250 -0.6385
  414TIP3    H222658   4.669   1.636  16.486 -1.5811  1.9531  0.2750
  415TIP3   OH222659   3.148   3.152   3.419 -0.0410 -0.5870 -0.3119
  415TIP3    H122660   3.060   3.176   3.389  0.0199  0.7483  0.4761
  415TIP3    H222661   3.150   3.181   3.511  1.1757 -0.7126 -0.2833
  416TIP3   OH222662   3.496   0.453   3.518 -0.1350 -0.0723  0.6328
  416TIP3    H122663   3.471   0.522   3.457  1.1588  0.0549  0.2246
  416TIP3    H222664   3.578   0.483   3.556 -0.4809 -0.5615  1.7972
  417TIP3   OH222665   3.835   0.282  15.312  0.6469  0.2678  1.2789
  417TIP3    H122666   3.815   0.375  15.300  1.0804  0.0119 -2.7443
  417TIP3    H222667   3.922   0.271  15.273 -0.4496 -2.1991 -0.7546
  418TIP3   OH222668   2.027   2.753  12.646 -0.1865 -0.0158 -0.6994
  418TIP3    H122669   2.043   2.752  12.552  2.9769 -0.6787 -0.2922
  418TIP3    H222670   2.061   2.838  12.675  0.1012 -0.3518 -0.0223
  419TIP3   OH222671   3.057   1.093   1.966  0.1759 -0.1471  0.1181
  419TIP3    H122672   3.143   1.053   1.976  0.4908  0.6285  0.5810
  419TIP3    H222673   3.034   1.123   2.054  0.7547  2.3042 -0.4972
  420TIP3   OH222674   4.208   2.050  17.110  0.4652 -0.1477 -0.0908
  420TIP3    H122675   4.119   2.017  17.119  0.6947 -1.4510 -2.0644
  420TIP3    H222676   4.245   2.002  17.036  2.4045  1.2554 -0.1301
  421TIP3   OH222677   0.773   2.902   0.028  0.1567  0.4204 -0.2439
  421TIP3    H122678   0.804   2.922  -0.060  1.1060  2.4915  0.4820
  421TIP3    H222679   0.687   2.945   0.034 -0.6036 -0.9902 -0.6043
  422TIP3   OH222680   4.873   4.327   4.755  0.3537 -0.4474  0.4320
  422TIP3    H122681   4.827   4.386   4.696  0.4298  0.1159  0.9310
  422TIP3    H222682   4.802   4.279   4.799  0.2871 -0.6014  0.1577
  423TIP3   OH222683   2.327   3.661   5.593  0.7220  0.1896 -0.4403
  423TIP3    H122684   2.274   3.727   5.637  2.2463  0.7380  0.6350
  423TIP3    H222685   2.307   3.672   5.500  0.5441  1.7947 -0.2328
  424TIP3   OH222686   5.658   0.049  12.336 -0.3519  0.0109 -0.4514
  424TIP3    H122687   5.664   0.128  12.390 -0.8598 -1.0084  1.1825
  424TIP3    H222688   5.607   0.076  12.260 -2.1020  0.8516  0.9463
  425TIP3   OH222689   5.258   4.382   6.684 -0.6030  0.0001  0.0671
  425TIP3    H122690   5.336   4.342   6.645  0.3207  0.8740  0.9631
  425TIP3    H222691   5.286   4.409   6.771 -1.9862  0.1174  0.4930
  426TIP3   OH222692   3.064   2.683   1.806  0.5230 -0.3002  0.1795
  426TIP3    H122693   3.020   2.764   1.832  1.0135 -0.1259  0.4760
  426TIP3    H222694   3.024   2.615   1.860 -0.8947 -0.5042 -1.0538
  427TIP3   OH222695   3.626   2.111   3.971 -1.0181  0.4791 -0.8022
  427TIP3    H122696   3.690   2.120   3.901 -0.0103  0.1774  0.0413
  427TIP3    H222697   3.579   2.194   3.973 -2.1225 -0.0466 -2.8051
  428TIP3   OH222698   5.842   4.605  17.027  0.0395  0.1795 -0.4349
  428TIP3    H122699   5.821   4.514  17.004  2.1062 -0.1764 -1.0948
  428TIP3    H222700   5.819   4.612  17.120  0.9965 -1.4287 -0.0350
  429TIP3   OH222701   3.497   4.092  11.892  0.3116  0.1194  0.4246
  429TIP3    H122702   3.590   4.093  11.867 -0.3807  0.5221 -2.4845
  429TIP3    H222703   3.482   4.004  11.926  1.5172 -0.3475 -0.1988
  430TIP3   OH222704   6.010   4.374  11.254 -0.1530 -0.0091 -0.4997
  430TIP3    H122705   5.959   4.328  11.321 -0.9372  0.4069 -0.7991
  430TIP3    H222706   6.019   4.311  11.183 -1.7362  0.4761 -1.1575
  431TIP3   OH222707   2.928   2.996   0.058  0.2521  0.4064 -0.0027
  431TIP3    H122708   2.977   2.975  -0.022 -0.8938 -1.8192 -0.2002
  431TIP3    H222709   2.977   2.952   0.128 -0.2381  0.0398  0.1123
  432TIP3   OH222710   3.341   3.167   4.503  0.2919  0.1285 -0.2521
  432TIP3    H122711   3.340   3.170   4.407  0.1879 -2.1957 -0.3661
  432TIP3    H222712   3.266   3.220   4.529  0.1097  0.4988 -1.4538
  433TIP3   OH222713   0.652   4.341  13.468  0.5872 -0.0559  0.1962
  433TIP3    H122714   0.735   4.296  13.449 -0.0820 -1.1601 -0.2555
  433TIP3    H222715   0.591   4.270  13.486 -0.1676  0.7651  0.9403
  434TIP3   OH222716   3.331   0.271   4.765 -0.1278  0.4059  0.7412
  434TIP3    H122717   3.397   0.329   4.725 -0.3293 -0.3055 -0.6871
  434TIP3    H222718   3.255   0.327   4.778 -0.1143  0.6232 -0.0581
  435TIP3   OH222719   4.444   6.548   0.037 -0.2305  0.8352 -0.7287
  435TIP3    H122720   4.371   6.603   0.008  0.6801  0.9860 -2.9322
  435TIP3    H222721   4.444   6.474  -0.024  0.8176  0.3050 -0.1075
  436TIP3   OH222722   5.063   6.678   1.144  0.3649 -0.5984 -0.3708
  436TIP3    H122723   5.012   6.600   1.164 -2.6405  1.2720 -0.0267
  436TIP3    H222724   5.138   6.674   1.203  1.0198 -3.7702 -1.2720
  437TIP3   OH222725   2.693   6.035   3.192 -0.3866  0.1186  0.6044
  437TIP3    H122726   2.733   6.111   3.150 -1.2768  0.0095 -0.4898
  437TIP3    H222727   2.637   6.071   3.260 -0.1385  0.3928  0.6616
  438TIP3   OH222728   2.660   2.383  10.456  0.5677 -0.8758 -0.5987
  438TIP3    H122729   2.667   2.476  10.481 -0.2740 -0.6494 -1.1464
  438TIP3    H222730   2.722   2.338  10.513 -0.0984 -0.1703  0.7400
  439TIP3   OH222731   1.283   1.861  12.552  0.1685 -0.1262 -0.7409
  439TIP3    H122732   1.268   1.948  12.589 -1.7185 -1.3301  1.5859
  439TIP3    H222733   1.338   1.817  12.616  2.0621 -0.3997 -2.4302
  440TIP3   OH222734   1.276   3.112   6.612 -0.6616 -0.0844 -0.9996
  440TIP3    H122735   1.206   3.133   6.673  0.6129 -0.4368  0.6741
  440TIP3    H222736   1.238   3.051   6.550 -1.6173 -0.9201  0.3770
  441TIP3   OH222737   1.324   0.585   5.947  0.2498 -0.4157  0.1111
  441TIP3    H122738   1.337   0.671   5.988 -1.7875 -0.5661  1.1804
  441TIP3    H222739   1.286   0.531   6.016 -1.0457 -1.3875 -1.2993
  442TIP3   OH222740   0.762   4.176   2.143 -0.0165  0.7028 -0.1354
  442TIP3    H122741   0.778   4.127   2.062  0.2536  2.3567 -1.1260
  442TIP3    H222742   0.736   4.109   2.206 -1.8232 -0.4952 -1.9874
  443TIP3   OH222743   6.400   0.145   1.178  0.2445  0.1573 -0.2916
  443TIP3    H122744   6.357   0.096   1.107 -0.8085 -2.8384  2.2171
  443TIP3    H222745   6.480   0.096   1.195  0.6398  1.0277  0.4114
  444TIP3   OH222746   2.749   1.598   3.290  0.5802  0.2496  0.2669
  444TIP3    H122747   2.669   1.621   3.338  0.9116 -0.2465  1.0900
  444TIP3    H222748   2.806   1.674   3.301  1.3206 -0.5124  2.1925
  445TIP3   OH222749   4.611   5.439  14.487 -0.2112 -0.4399  0.1031
  445TIP3    H122750   4.606   5.534  14.473  0.0560 -0.4944 -0.3949
  445TIP3    H222751   4.607   5.402  14.399  0.4048 -0.8521  0.2378
  446TIP3   OH222752   0.131   1.749  14.769  0.6822  0.0695  0.0334
  446TIP3    H122753   0.097   1.693  14.839  2.7067  1.0584  1.9578
  446TIP3    H222754   0.126   1.837  14.805 -1.8894  1.2227 -2.7025
  447TIP3   OH222755   0.675   4.731   2.610  0.4559  0.1992  0.3214
  447TIP3    H122756   0.632   4.667   2.553  0.1989  1.9656 -1.5834
  447TIP3    H222757   0.763   4.696   2.622  0.5138 -0.2716 -1.1894
  448TIP3   OH222758   6.504   4.004  17.272  0.2031 -0.0842  0.3305
  448TIP3    H122759   6.492   3.930  17.331  2.3524  0.2104  1.2098
  448TIP3    H222760   6.507   3.965  17.185 -1.2213 -0.7113  0.5284
  449TIP3   OH222761   2.222   1.578  16.992 -0.1449 -0.0343 -0.0638
  449TIP3    H122762   2.231   1.574  16.897 -0.9455  1.6493 -0.2472
  449TIP3    H222763   2.281   1.648  17.019  0.0581 -0.4834  0.7010
  450TIP3   OH222764   0.764   6.075  13.546  0.0504  0.4087  0.7435
  450TIP3    H122765   0.768   5.992  13.595  1.9115 -0.9342 -1.4515
  450TIP3    H222766   0.803   6.054  13.462 -0.3103  3.3469 -0.2559
  451TIP3   OH222767   2.293   1.781   0.665  0.0181  0.0252 -0.4822
  451TIP3    H122768   2.305   1.773   0.760 -2.3415  1.4368  0.0244
  451TIP3    H222769   2.341   1.860   0.641  0.9742 -0.5709 -0.5551
  452TIP3   OH222770   2.104   2.048  13.346 -0.3146 -0.6581  0.6951
  452TIP3    H122771   2.069   2.065  13.259 -0.9289 -1.3413  0.8007
  452TIP3    H222772   2.197   2.071  13.339 -0.3103 -0.8948 -0.1907
  453TIP3   OH222773   3.140   0.887  11.130 -0.1316 -0.6549  0.3371
  453TIP3    H122774   3.095   0.903  11.047  1.6586  0.8706 -0.4228
  453TIP3    H222775   3.073   0.903  11.197 -0.2840  4.1348 -0.6041
  454TIP3   OH222776   4.396   5.045   5.290 -0.3734  0.4773 -0.5883
  454TIP3    H122777   4.381   5.027   5.197 -2.7002 -0.1918 -0.1511
  454TIP3    H222778   4.314   5.020   5.333  1.4250 -1.5276  2.0018
  455TIP3   OH222779   0.006   4.513  14.012  0.3732  0.4358  0.3490
  455TIP3    H122780  -0.063   4.508  13.947  1.9893  0.7175 -1.4701
  455TIP3    H222781   0.043   4.601  14.002  3.2788 -0.8214 -1.2846
  456TIP3   OH222782   6.742   5.432  15.764  0.2853 -0.1318  0.9571
  456TIP3    H122783   6.750   5.356  15.707  1.4266  1.1710 -0.7455
  456TIP3    H222784   6.680   5.490  15.719  0.2943  0.4238  1.6426
  457TIP3   OH222785   4.803   1.317  17.074 -0.1467 -0.2537 -0.3639
  457TIP3    H122786   4.898   1.320  17.062 -0.3443  0.1291 -2.0711
  457TIP3    H222787   4.769   1.383  17.013 -1.6289 -1.8645 -1.3838
  458TIP3   OH222788   4.175   6.281  13.902  0.5859 -0.1369 -0.3541
  458TIP3    H122789   4.176   6.204  13.959  1.7915 -0.2523 -0.5151
  458TIP3    H222790   4.218   6.349  13.954 -0.7575  0.5397 -0.0867
  459TIP3   OH222791   2.530   2.906   5.102 -0.2634 -0.4362 -0.2652
  459TIP3    H122792   2.456   2.858   5.139  1.0776 -0.0385  3.3899
  459TIP3    H222793   2.607   2.860   5.134  1.0883  1.0023 -1.2702
  460TIP3   OH222794   5.329   4.807  14.375  0.3050  0.1209  0.3230
  460TIP3    H122795   5.262   4.805  14.307  0.8291 -0.3801 -0.1810
  460TIP3    H222796   5.357   4.716  14.385  1.0579  0.3545  0.3814
  461TIP3   OH222797   4.018   2.240   2.541  0.1509 -0.2213 -0.3399
  461TIP3    H122798   3.947   2.211   2.597  0.4989  0.1447  0.3084
  461TIP3    H222799   4.005   2.193   2.459 -0.1591 -1.0434  0.1670
  462TIP3   OH222800   5.618   2.999   4.197  0.4746  0.2643  0.4724
  462TIP3    H122801   5.550   2.994   4.264 -0.5731 -0.9498 -0.6195
  462TIP3    H222802   5.689   3.047   4.238 -0.5979  0.5800  2.0419
  463TIP3   OH222803   0.978   2.623  12.237 -0.0825 -0.6301 -0.6229
  463TIP3    H122804   1.039   2.697  12.239 -0.5152 -0.2694 -0.4251
  463TIP3    H222805   0.979   2.593  12.146  1.3887 -1.4889 -0.3501
  464TIP3   OH222806   3.174   5.442  12.363  0.4521 -0.6869  0.4451
  464TIP3    H122807   3.201   5.525  12.324  2.6934 -1.6101 -0.1561
  464TIP3    H222808   3.156   5.463  12.455  0.2882  0.5697  0.1404
  465TIP3   OH222809   0.825   5.465   1.900 -0.1982 -0.0863 -0.3184
  465TIP3    H122810   0.910   5.504   1.881 -0.0330  0.2461  1.0156
  465TIP3    H222811   0.795   5.430   1.816  1.9741 -1.6558 -0.5137
  466TIP3   OH222812   4.677   0.157   1.440  0.1397  0.1992 -0.1177
  466TIP3    H122813   4.773   0.166   1.442  0.0540  1.0953  0.4697
  466TIP3    H222814   4.662   0.064   1.424  1.1117  0.3208 -2.1604
  467TIP3   OH222815   6.029   1.656  16.161 -0.2121 -0.8747 -0.5346
  467TIP3    H122816   5.998   1.736  16.204 -1.8660 -2.1503  0.7937
  467TIP3    H222817   6.078   1.687  16.085 -1.1729  1.3775 -0.3092
  468TIP3   OH222818   6.207   5.067   3.528  0.6195 -0.3489 -0.4402
  468TIP3    H122819   6.122   5.095   3.560  1.0941  1.4678 -0.7000
  468TIP3    H222820   6.264   5.070   3.605  0.7935 -0.0803 -0.5789
  469TIP3   OH222821   6.239   2.248  10.560  0.0019  0.1480  0.4457
  469TIP3    H122822   6.283   2.280  10.481 -1.6818  2.1913  0.2691
  469TIP3    H222823   6.246   2.320  10.623 -0.1349 -0.8114  1.5950
  470TIP3   OH222824   6.128   3.532  13.702 -0.1741 -0.5271  0.2716
  470TIP3    H122825   6.122   3.620  13.667 -0.8043 -0.0307  1.5692
  470TIP3    H222826   6.181   3.540  13.781 -0.5654 -1.2301  0.6237
  471TIP3   OH222827   5.269   0.377  12.563 -0.0118 -0.0466  0.0449
  471TIP3    H122828   5.229   0.294  12.588  0.1858 -0.4810 -1.0501
  471TIP3    H222829   5.285   0.422  12.647 -0.8172 -0.7744  0.6022
  472TIP3   OH222830   2.053   5.009  13.890 -0.2464 -0.1953 -0.2336
  472TIP3    H122831   2.086   4.974  13.807  0.3696 -1.4421  0.5151
  472TIP3    H222832   2.009   4.935  13.932  0.0168  0.2452  0.8505
  473TIP3   OH222833   0.666   1.403   1.428 -0.0511  0.0354  0.1773
  473TIP3    H122834   0.638   1.330   1.483 -0.4586  0.3761  0.4310
  473TIP3    H222835   0.585   1.436   1.390 -0.0688  1.2852  1.2348
  474TIP3   OH222836   4.935   4.308  16.795 -0.5328  0.3572  0.2770
  474TIP3    H122837   4.934   4.249  16.870 -0.7477 -0.4434 -0.3437
  474TIP3    H222838   4.957   4.394  16.833  1.4159 -0.3897  0.9877
  475TIP3   OH222839   5.334   2.115   1.274 -0.1042 -0.2490 -0.0383
  475TIP3    H122840   5.328   2.021   1.255  2.2521 -0.3900 -0.4058
  475TIP3    H222841   5.391   2.149   1.205  0.3105  1.1806  0.9847
  476TIP3   OH222842   6.279   1.949  13.410 -0.0648 -0.2488 -0.0663
  476TIP3    H122843   6.316   1.872  13.367  1.2462  0.1297  0.3527
  476TIP3    H222844   6.272   1.924  13.502 -2.9849 -1.1055 -0.4086
  477TIP3   OH222845   4.118   0.990  13.588  0.5246  0.1540 -0.0675
  477TIP3    H122846   4.027   1.015  13.572  0.1902 -0.4364  0.8365
  477TIP3    H222847   4.115   0.895  13.602  1.7647 -0.5559 -3.4980
  478TIP3   OH222848   5.933   3.649  11.130 -0.2739  0.8036  0.2835
  478TIP3    H122849   5.982   3.593  11.070 -1.0627  0.5281 -0.1150
  478TIP3    H222850   6.001   3.693  11.182  0.3923 -1.6177  1.6482
  479TIP3   OH222851   2.502   3.548   6.007  0.3045  0.2490 -0.6888
  479TIP3    H122852   2.445   3.586   6.074  0.0840  1.1172 -1.3483
  479TIP3    H222853   2.501   3.454   6.024 -0.7957  0.3279 -0.2748
  480TIP3   OH222854   6.743   2.229   2.932  0.3771  0.0137 -0.3574
  480TIP3    H122855   6.765   2.322   2.936  0.2110  0.0525 -0.3361
  480TIP3    H222856   6.826   2.184   2.948  0.6340  0.1579 -1.2194
  481TIP3   OH222857   0.412   3.417   4.137 -0.6361 -0.4569  0.1693
  481TIP3    H122858   0.389   3.501   4.176 -0.9259 -0.2578 -0.4239
  481TIP3    H222859   0.507   3.423   4.122 -0.6647 -0.2077  0.0758
  482TIP3   OH222860   3.071   4.251   0.823  0.0926 -0.3321 -0.0970
  482TIP3    H122861   3.111   4.309   0.758  0.3630 -0.3227  0.0725
  482TIP3    H222862   2.978   4.251   0.802  0.0729  0.2470 -0.0404
  483TIP3   OH222863   6.003   1.267   2.356 -0.2380 -0.1840  0.1277
  483TIP3    H122864   6.069   1.228   2.299 -0.8625 -0.0125 -0.7198
  483TIP3    H222865   5.940   1.197   2.371  0.0371 -0.2949  0.7944
  484TIP3   OH222866   2.390   1.298   4.411  0.3372  0.0765  0.3042
  484TIP3    H122867   2.455   1.229   4.425 -1.1461 -1.2261  1.1460
  484TIP3    H222868   2.421   1.371   4.464  1.0444 -0.5760  0.8172
  485TIP3   OH222869   0.678   2.543  13.163  0.1626 -0.6040  0.4944
  485TIP3    H122870   0.664   2.632  13.130  1.5776  0.4471  2.4535
  485TIP3    H222871   0.773   2.531  13.158  0.3770 -0.6662  3.1994
  486TIP3   OH222872   6.197   0.052  12.367  0.1155 -0.3040  0.0670
  486TIP3    H122873   6.250   0.040  12.288  0.4787 -0.1562  0.2858
  486TIP3    H222874   6.116   0.091  12.335  1.5006  2.9504  0.0779
  487TIP3   OH222875   4.138   1.756   1.615 -0.1213  0.0844 -0.2810
  487TIP3    H122876   4.055   1.714   1.635 -1.0433  1.8085 -0.3243
  487TIP3    H222877   4.147   1.746   1.520  0.1577 -0.8127 -0.1768
  488TIP3   OH222878   0.248   2.026   3.736 -0.1187 -0.3552 -0.4700
  488TIP3    H122879   0.338   2.049   3.717 -0.4372  1.2904 -0.1768
  488TIP3    H222880   0.217   1.981   3.658  1.5438 -2.8967  0.2362
  489TIP3   OH222881   3.689   0.737   5.226  0.2477  0.1113  0.1767
  489TIP3    H122882   3.647   0.823   5.220 -0.8959 -0.4420 -0.1650
  489TIP3    H222883   3.778   0.752   5.196 -0.6564  0.7073 -2.4882
  490TIP3   OH222884   1.497   6.064  13.983 -0.2038  0.1390  0.2053
  490TIP3    H122885   1.564   6.113  14.032 -1.1627 -0.1633  1.8868
  490TIP3    H222886   1.520   5.972  13.995  1.4589  0.0260 -2.7581
  491TIP3   OH222887   1.877   5.987   5.863 -0.0868 -0.1362  0.5097
  491TIP3    H122888   1.853   6.064   5.812 -0.1284  0.4301  1.3701
  491TIP3    H222889   1.865   6.013   5.954  0.2335 -1.0466  0.8274
  492TIP3   OH222890   2.950   1.167   2.203 -0.2455  0.4214 -0.2229
  492TIP3    H122891   3.000   1.217   2.267 -1.4230  0.6233  0.5744
  492TIP3    H222892   2.905   1.100   2.255 -0.4236 -0.0605 -0.9830
  493TIP3   OH222893   6.558   6.362   0.498 -0.2132  0.3987  0.2445
  493TIP3    H122894   6.496   6.425   0.461 -2.0462 -1.0374  0.7239
  493TIP3    H222895   6.609   6.332   0.423  0.3321  2.0178 -0.0757
  494TIP3   OH222896   0.946   6.639  10.952 -0.2742 -0.3301 -0.1564
  494TIP3    H122897   0.862   6.661  10.911 -0.6050  2.5770  1.7410
  494TIP3    H222898   1.010   6.645  10.881 -1.1702  1.8479 -0.8776
  495TIP3   OH222899   5.638   6.222  17.277  0.3744  0.1122  0.6984
  495TIP3    H122900   5.642   6.167  17.355  1.6304 -1.0942 -0.1717
  495TIP3    H222901   5.563   6.279  17.292 -0.3779 -1.1720  2.0671
  496TIP3   OH222902   3.887   3.866  16.292 -0.2929  0.1815 -0.1157
  496TIP3    H122903   3.900   3.776  16.262  0.7257 -0.5029  2.1662
  496TIP3    H222904   3.806   3.864  16.342 -0.9686  0.8628 -1.1486
  497TIP3   OH222905   1.739   5.950  14.791 -0.0980  0.2135 -0.3328
  497TIP3    H122906   1.751   6.045  14.784 -0.7458  0.4378  1.1656
  497TIP3    H222907   1.793   5.925  14.865 -0.0573 -0.5747 -0.6226
  498TIP3   OH222908   0.171   1.301  13.849  0.1898 -0.7846 -0.2734
  498TIP3    H122909   0.144   1.310  13.757 -0.8480 -0.3299  0.0677
  498TIP3    H222910   0.204   1.211  13.854 -0.5328 -1.1052 -0.9090
  499TIP3   OH222911   4.661   6.019   0.542  0.3475 -0.5953 -0.1880
  499TIP3    H122912   4.668   6.091   0.604 -0.5968 -0.2685 -0.4425
  499TIP3    H222913   4.616   6.058   0.466  1.8397 -0.8662 -1.2591
  500TIP3   OH222914   6.704   5.556   3.740  0.2798  0.0562  0.2690
  500TIP3    H122915   6.794   5.523   3.731  0.3770  0.3684  0.0645
  500TIP3    H222916   6.713   5.631   3.799 -0.1397 -1.0884  1.8714
  501TIP3   OH222917   1.457   5.865   5.743  0.0314 -0.3012 -0.2509
  501TIP3    H122918   1.395   5.916   5.691  0.8592  1.6636  0.6161
  501TIP3    H222919   1.406   5.833   5.817  0.0374  1.3219  0.4752
  502TIP3   OH222920   3.803   2.759   5.957 -0.0413 -0.4299  0.2924
  502TIP3    H122921   3.720   2.807   5.959  0.4582  0.4261  0.3850
  502TIP3    H222922   3.784   2.677   6.004 -1.2644 -0.9361 -0.9892
  503TIP3   OH222923   1.861   0.481   1.734  0.4883 -0.2339 -0.0183
  503TIP3    H122924   1.850   0.488   1.639 -0.2161 -0.9057  0.0015
  503TIP3    H222925   1.939   0.428   1.746 -0.8006 -2.2793 -0.2667
  504TIP3   OH222926   0.113   4.267  15.485  0.3926 -0.0404  0.1454
  504TIP3    H122927   0.150   4.190  15.441  0.8813 -0.0737  0.6008
  504TIP3    H222928   0.137   4.341  15.429  2.6510  0.1538  1.2487
  505TIP3   OH222929   5.686   1.983   4.481 -0.4161 -0.3884  0.1885
  505TIP3    H122930   5.713   1.899   4.445  0.1458 -0.6773  1.2423
  505TIP3    H222931   5.737   2.048   4.432  1.6017 -0.8729  1.5414
  506TIP3   OH222932   0.812   5.717   4.034 -0.0255  0.2220  0.2947
  506TIP3    H122933   0.774   5.744   3.950 -1.5849 -1.7678  0.2949
  506TIP3    H222934   0.753   5.754   4.099 -0.5147 -0.7031  0.3894
  507TIP3   OH222935   1.864   2.975  14.628  0.2889  0.3669 -0.7621
  507TIP3    H122936   1.933   2.915  14.656 -0.5838 -1.4586 -2.3225
  507TIP3    H222937   1.856   3.038  14.700  2.4392 -0.3305  0.1593
  508TIP3   OH222938   5.709   6.254   3.166  0.1049 -0.2006 -0.5690
  508TIP3    H122939   5.731   6.316   3.236  2.7189 -2.3960  0.7416
  508TIP3    H222940   5.658   6.185   3.209  1.7208 -1.5693 -0.7360
  509TIP3   OH222941   3.894   4.833  14.852  0.0210  0.3860  0.1583
  509TIP3    H122942   3.819   4.855  14.908 -0.2648 -0.1153 -0.0207
  509TIP3    H222943   3.886   4.739  14.838  0.9607  0.2476  0.5194
  510TIP3   OH222944   0.112   4.695   2.866  0.2029 -0.1005  0.5024
  510TIP3    H122945   0.205   4.691   2.846  0.4073 -0.3520  1.4661
  510TIP3    H222946   0.107   4.684   2.961 -0.7184  1.1551  0.6274
  511TIP3   OH222947   6.014   3.170  15.779 -0.6396  0.0030 -0.0809
  511TIP3    H122948   5.984   3.202  15.693  0.2249 -1.8624 -1.1500
  511TIP3    H222949   5.945   3.197  15.840 -1.9217  0.2851 -1.5808
  512TIP3   OH222950   3.438   6.154  13.971  0.1269 -0.3554 -0.1555
  512TIP3    H122951   3.521   6.108  13.977  0.6752  0.7269  1.2737
  512TIP3    H222952   3.372   6.089  13.994  0.6768 -0.9508 -0.2442
  513TIP3   OH222953   1.878   1.128   3.076 -0.6721 -0.5141  0.0487
  513TIP3    H122954   1.973   1.141   3.077 -0.5131 -1.5815  0.8691
  513TIP3    H222955   1.843   1.199   3.130 -0.3643 -0.0090 -0.4080
  514TIP3   OH222956   2.474   5.579  11.311  0.3837 -0.6872 -0.1584
  514TIP3    H122957   2.420   5.537  11.244  0.7781 -0.4664 -0.6282
  514TIP3    H222958   2.417   5.587  11.387  0.1336 -1.5735 -0.2357
  515TIP3   OH222959   5.118   0.042  14.334 -0.1117  0.1020 -0.4866
  515TIP3    H122960   5.045  -0.020  14.328  1.0893 -1.3455 -0.9759
  515TIP3    H222961   5.175   0.006  14.402  0.9352  0.2912 -1.2290
  516TIP3   OH222962   3.581   4.025  15.538  0.2561 -0.3761  0.4739
  516TIP3    H122963   3.634   3.958  15.581  2.1448  0.8130  0.0673
  516TIP3    H222964   3.513   3.975  15.492  0.1766 -1.8518  2.0716
  517TIP3   OH222965   6.382   3.862  15.113 -0.3224 -0.0381 -0.0629
  517TIP3    H122966   6.444   3.791  15.098 -0.4595 -0.3038  0.5918
  517TIP3    H222967   6.428   3.941  15.084  0.5639 -0.1482  1.0201
  518TIP3   OH222968   5.100   4.927   4.569 -0.0740 -0.1885  0.2412
  518TIP3    H122969   5.183   4.970   4.590 -0.0588  0.5550 -1.1824
  518TIP3    H222970   5.036   4.970   4.625  0.2881  0.1963  0.3663
  519TIP3   OH222971   2.933   6.579  15.498  0.8223  0.0297  0.0735
  519TIP3    H122972   3.011   6.630  15.520  0.8104 -0.2304  0.7546
  519TIP3    H222973   2.967   6.491  15.479  0.5124 -0.8832  3.1348
  520TIP3   OH222974   5.929   6.612  14.494  1.0819 -0.3699  0.3247
  520TIP3    H122975   5.856   6.612  14.432 -0.0041  0.8632  1.5484
  520TIP3    H222976   6.006   6.590  14.440 -0.2172 -2.1714 -0.9054
  521TIP3   OH222977   4.906   3.735  11.426 -0.0213  0.0291  0.6638
  521TIP3    H122978   4.813   3.760  11.428 -0.4085 -1.3653  0.7026
  521TIP3    H222979   4.940   3.776  11.346 -0.4092  1.3565  1.1375
  522TIP3   OH222980   2.874   3.615  10.800  0.4049 -0.3715  0.0204
  522TIP3    H122981   2.781   3.624  10.780  0.2911  1.2574  1.0483
  522TIP3    H222982   2.894   3.694  10.851  1.5932 -2.1988  2.5613
  523TIP3   OH222983   6.678   0.045  17.256  0.3238  0.0884  0.4913
  523TIP3    H122984   6.651  -0.021  17.192  0.0025  0.4760  0.2181
  523TIP3    H222985   6.774   0.045  17.252  0.3013  0.4056 -0.3093
  524TIP3   OH222986   1.980   1.968   4.730 -0.1862 -0.7053  0.5307
  524TIP3    H122987   1.937   1.883   4.743 -2.0498  0.0928 -0.0942
  524TIP3    H222988   2.006   1.968   4.638 -1.4947 -0.0694  0.1366
  525TIP3   OH222989   3.762   2.352  13.692 -0.4102 -0.2768  0.4219
  525TIP3    H122990   3.765   2.257  13.689  1.3711 -0.2747  1.0563
  525TIP3    H222991   3.707   2.372  13.768 -1.8816 -0.7556 -0.4826
  526TIP3   OH222992   0.261   2.929  16.645 -0.3619 -0.0447 -0.0026
  526TIP3    H122993   0.289   3.011  16.684 -0.5209  0.1537 -0.3019
  526TIP3    H222994   0.312   2.922  16.564  0.0195 -0.4886  0.2658
  527TIP3   OH222995   3.039   5.279   2.523 -0.3907  0.0022 -0.1791
  527TIP3    H122996   3.059   5.264   2.430 -2.1452  0.5488 -0.6707
  527TIP3    H222997   2.997   5.365   2.525  0.5302  0.4506  1.2797
  528TIP3   OH222998   5.653   2.378  14.764  1.0512 -0.2558 -0.3101
  528TIP3    H122999   5.605   2.313  14.712  0.3064  0.6026 -0.7317
  528TIP3    H223000   5.676   2.447  14.701  0.1206  0.8049  0.4719
  529TIP3   OH223001   0.712   3.853  16.180 -0.2465  0.7221  0.0722
  529TIP3    H123002   0.722   3.939  16.139  0.1551  0.7428  0.2080
  529TIP3    H223003   0.777   3.797  16.137 -0.7640  0.3837 -0.2804
  530TIP3   OH223004   1.101   0.344   4.036 -0.6296  0.2999 -0.1056
  530TIP3    H123005   1.108   0.370   4.128 -1.1454  1.1432 -0.2972
  530TIP3    H223006   1.020   0.385   4.005 -2.1568 -2.4545 -0.1420
  531TIP3   OH223007   1.704   5.282  17.116 -0.4487 -0.2866  0.2126
  531TIP3    H123008   1.749   5.229  17.051 -0.0040  1.1034 -0.6503
  531TIP3    H223009   1.774   5.321  17.169 -0.5277  1.9378 -1.1805
  532TIP3   OH223010   1.903   3.889  13.466 -0.3244 -0.4149 -0.4069
  532TIP3    H123011   1.839   3.836  13.417 -0.4873  1.3710 -2.2479
  532TIP3    H223012   1.851   3.961  13.502 -0.3023 -1.8694  2.9535
  533TIP3   OH223013   1.438   1.281   4.371  0.0823  0.4972  0.0715
  533TIP3    H123014   1.486   1.212   4.325  1.1441  1.4685 -0.3369
  533TIP3    H223015   1.415   1.344   4.302  1.9296  2.1094  0.8198
  534TIP3   OH223016   0.478   6.574  14.149  0.2365  0.4250 -0.2437
  534TIP3    H123017   0.412   6.634  14.114  0.4014  1.3167  0.9149
  534TIP3    H223018   0.559   6.625  14.148  0.2796  0.4124  1.2321
  535TIP3   OH223019   4.407   1.190   4.874 -0.1532  0.4295 -0.0204
  535TIP3    H123020   4.456   1.270   4.855 -0.6891  0.9055  0.5522
  535TIP3    H223021   4.317   1.211   4.850 -0.3791  0.1585  0.5707
  536TIP3   OH223022   4.590   2.156   2.162 -0.0242 -0.0708  0.5866
  536TIP3    H123023   4.679   2.164   2.129 -1.1017 -0.5591 -2.8994
  536TIP3    H223024   4.543   2.228   2.121 -1.4939 -0.5424  1.3742
  537TIP3   OH223025   3.657   3.889   0.981 -0.1838 -0.2542 -0.7742
  537TIP3    H123026   3.750   3.910   0.973  0.0032 -1.2379 -1.4927
  537TIP3    H223027   3.614   3.943   0.915 -0.6023  2.6424  1.6830
  538TIP3   OH223028   3.985   6.377  13.719  0.2517  0.0635 -0.0162
  538TIP3    H123029   4.061   6.351  13.772 -0.3661 -3.0648 -0.4729
  538TIP3    H223030   3.910   6.341  13.766 -0.5854 -0.1906 -1.5090
  539TIP3   OH223031   5.425   5.293   1.126 -0.4942  0.2836 -0.1671
  539TIP3    H123032   5.515   5.265   1.113 -0.2885  1.7407 -2.3202
  539TIP3    H223033   5.374   5.212   1.122  0.6785 -0.5810  1.2112
  540TIP3   OH223034   2.348   4.097   1.189  0.2865 -0.3387 -0.1436
  540TIP3    H123035   2.257   4.111   1.163  0.0572 -1.1268  0.2323
  540TIP3    H223036   2.393   4.077   1.107  0.1981  0.4151 -0.3823
  541TIP3   OH223037   5.269   4.256   3.937  0.3511  0.1876  0.2766
  541TIP3    H123038   5.186   4.290   3.971  1.4006  0.0573  3.3191
  541TIP3    H223039   5.296   4.191   4.002  1.2202 -2.3653 -2.3911
  542TIP3   OH223040   2.416   5.573  16.656  0.0025  0.9376 -0.0930
  542TIP3    H123041   2.370   5.521  16.589  1.2030 -0.9151  0.4551
  542TIP3    H223042   2.488   5.615  16.608 -1.9944  3.7265 -0.9253
  543TIP3   OH223043   1.813   5.788   2.037  0.1609 -0.1718 -0.6966
  543TIP3    H123044   1.792   5.697   2.058 -3.7805  0.9615  1.3277
  543TIP3    H223045   1.845   5.825   2.119 -0.8865  0.8509 -0.7271
  544TIP3   OH223046   2.006   1.025   0.971  0.1903  0.1409 -0.2024
  544TIP3    H123047   2.011   1.114   0.936 -1.2472  0.2354 -0.2177
  544TIP3    H223048   1.913   1.004   0.969  0.2608 -0.5696  1.7418
  545TIP3   OH223049   4.664   4.442  15.046  0.0961 -0.3511  0.0639
  545TIP3    H123050   4.570   4.424  15.056  0.4504 -3.1343 -0.7909
  545TIP3    H223051   4.669   4.494  14.966 -0.7300  0.0802  0.2761
  546TIP3   OH223052   5.369   2.150  16.723 -0.4963 -0.4067 -0.1685
  546TIP3    H123053   5.342   2.153  16.815 -1.6033 -2.1619 -0.3946
  546TIP3    H223054   5.410   2.236  16.708  0.1164 -0.2290  2.0597
  547TIP3   OH223055   2.832   2.656  13.177 -0.3674 -0.7920 -0.3129
  547TIP3    H123056   2.785   2.637  13.096 -0.2392  1.1308 -0.8827
  547TIP3    H223057   2.789   2.734  13.212  1.4030  0.1097 -0.0570
  548TIP3   OH223058   1.468   2.952  12.914 -0.6785 -0.0800 -0.2338
  548TIP3    H123059   1.549   2.906  12.937 -0.2983  0.8315  0.3380
  548TIP3    H223060   1.473   2.963  12.819  0.3551  0.8158 -0.0923
  549TIP3   OH223061   0.571   0.104   0.823 -0.3363 -0.2159 -0.0818
  549TIP3    H123062   0.524   0.055   0.891  0.4807 -0.2799  0.4450
  549TIP3    H223063   0.650   0.137   0.867 -0.2767  0.5587 -0.7466
  550TIP3   OH223064   2.279   2.102   3.714 -0.5320 -0.3112 -0.4791
  550TIP3    H123065   2.221   2.058   3.776  0.1831 -2.1835 -1.0657
  550TIP3    H223066   2.308   2.180   3.760 -1.5550 -0.6419  0.7790
  551TIP3   OH223067   1.656   1.339  12.874  0.0988 -0.3640 -0.1884
  551TIP3    H123068   1.609   1.374  12.799 -2.4751 -0.4622  1.2757
  551TIP3    H223069   1.596   1.350  12.948  1.1812 -3.2104  1.2759
  552TIP3   OH223070   1.214   1.704   3.827 -0.1156 -0.2854 -0.1634
  552TIP3    H123071   1.175   1.619   3.808 -2.7410  0.8606 -0.3092
  552TIP3    H223072   1.228   1.704   3.921  1.3298 -1.3747 -0.3357
  553TIP3   OH223073   4.207   6.513   6.386  0.2416  0.5983 -0.3820
  553TIP3    H123074   4.254   6.448   6.333 -0.7888 -0.7849  0.3395
  553TIP3    H223075   4.117   6.508   6.355 -0.7331 -1.3193  2.3674
  554TIP3   OH223076   0.379   4.545   6.044  0.6446 -0.3389 -0.4552
  554TIP3    H123077   0.302   4.512   6.090  0.6324  0.2829 -0.0160
  554TIP3    H223078   0.405   4.474   5.985 -0.9564 -0.1315 -1.4641
  555TIP3   OH223079   4.759   1.924  10.529  0.3334  0.2517 -0.3764
  555TIP3    H123080   4.834   1.979  10.511  0.7593 -0.6073 -1.3862
  555TIP3    H223081   4.783   1.838  10.493 -0.1382 -0.7142  1.4888
  556TIP3   OH223082   0.789   5.248   2.811  0.0401  0.0559  0.2081
  556TIP3    H123083   0.828   5.171   2.769 -2.5989 -0.4153 -1.6371
  556TIP3    H223084   0.846   5.321   2.786  0.2111 -0.6862 -1.7424
  557TIP3   OH223085   0.755   1.971   5.897 -0.1628 -0.7021  0.2584
  557TIP3    H123086   0.728   1.879   5.895 -0.0876 -0.7376  0.6553
  557TIP3    H223087   0.675   2.020   5.882 -0.4370 -0.8103  1.2778
  558TIP3   OH223088   4.073   1.270   3.245 -0.1734 -0.0710  0.2093
  558TIP3    H123089   4.144   1.207   3.257  1.3110  1.6644  1.0526
  558TIP3    H223090   4.091   1.312   3.161 -0.3217  0.2339  0.3252
  559TIP3   OH223091   1.500   1.795   2.667  0.0719 -0.1506  0.0770
  559TIP3    H123092   1.411   1.827   2.650  0.0927 -0.5252 -0.7899
  559TIP3    H223093   1.519   1.824   2.756 -1.4526 -1.2687  0.8049
  560TIP3   OH223094   5.240   1.208  11.738 -0.2484 -0.0277  0.3799
  560TIP3    H123095   5.256   1.244  11.651  1.5913 -0.8327  0.3454
  560TIP3    H223096   5.199   1.279  11.786 -0.1631  0.8360 -0.7735
  561TIP3   OH223097   2.208   3.380   4.898 -0.3879 -0.4669 -0.1852
  561TIP3    H123098   2.280   3.338   4.852 -0.2092 -1.7233  1.1412
  561TIP3    H223099   2.248   3.457   4.939 -0.3013  0.0273 -1.1712
  562TIP3   OH223100   2.747   4.951  11.480  0.1862  0.2014  0.1944
  562TIP3    H123101   2.758   4.933  11.573 -1.5354  0.9370  0.5853
  562TIP3    H223102   2.817   4.902  11.437 -0.3212 -1.9825  1.6996
  563TIP3   OH223103   2.174   4.742  16.589 -0.2767  0.3546  0.1535
  563TIP3    H123104   2.254   4.690  16.580 -0.1043  0.6078  0.2379
  563TIP3    H223105   2.129   4.731  16.506  0.4032  1.1507 -0.3282
  564TIP3   OH223106   2.248   0.167   2.968 -0.0054  0.2286  0.5127
  564TIP3    H123107   2.227   0.077   2.943  1.2793 -0.3707  1.4700
  564TIP3    H223108   2.212   0.177   3.056 -1.8487  1.3320 -0.3000
  565TIP3   OH223109   6.411   2.137  16.844 -0.1274 -0.4842  0.5144
  565TIP3    H123110   6.494   2.177  16.821 -0.7171  0.9561  0.7634
  565TIP3    H223111   6.396   2.163  16.935  0.2550 -2.7146  1.2636
  566TIP3   OH223112   2.663   6.455   6.296  0.1788  0.2675 -0.1098
  566TIP3    H123113   2.743   6.506   6.304  0.5065 -0.4164  1.1672
  566TIP3    H223114   2.687   6.381   6.241 -0.0998  1.0451 -1.3227
  567TIP3   OH223115   2.727   1.714  15.482 -0.6177  0.2239  0.2551
  567TIP3    H123116   2.792   1.652  15.448 -0.4767  0.3396  0.3117
  567TIP3    H223117   2.755   1.799  15.448 -1.6448  0.0729 -1.0552
  568TIP3   OH223118   5.937   1.249  14.218  0.8346 -0.1865  0.1448
  568TIP3    H123119   5.907   1.172  14.267 -3.6112  1.2667  0.2064
  568TIP3    H223120   5.930   1.321  14.281  1.2892  0.7966 -0.9112
  569TIP3   OH223121   5.378   1.220   3.401  0.8092 -0.3401 -0.5806
  569TIP3    H123122   5.285   1.202   3.415  0.7332  0.1505 -0.4272
  569TIP3    H223123   5.423   1.141   3.432  0.5851  0.3213  1.6413
  570TIP3   OH223124   4.960   0.054  13.567  0.3837  0.5003  0.2358
  570TIP3    H123125   4.919  -0.021  13.609 -0.5222  1.6958  1.5676
  570TIP3    H223126   4.921   0.058  13.480  0.5075 -0.6028  0.1182
  571TIP3   OH223127   0.611   5.048  14.202 -0.1386 -0.5299  0.1094
  571TIP3    H123128   0.654   4.993  14.268  1.0034 -0.2006 -0.3334
  571TIP3    H223129   0.518   5.039  14.220  0.1612  0.7120  2.7198
  572TIP3   OH223130   5.926   0.059   2.476  0.6063  0.6531  1.1410
  572TIP3    H123131   5.964   0.140   2.444  1.4822 -0.8283 -1.9890
  572TIP3    H223132   5.864   0.032   2.408 -0.3880 -0.8250  2.5419
  573TIP3   OH223133   2.533   0.259  16.587 -0.0181 -0.0573 -0.2314
  573TIP3    H123134   2.490   0.209  16.656  1.6122 -2.1592 -0.6551
  573TIP3    H223135   2.461   0.293  16.534 -1.2342  0.0675  1.4234
  574TIP3   OH223136   3.677   5.123   4.368  0.4290  0.7728 -0.7488
  574TIP3    H123137   3.590   5.111   4.405  0.4691  1.7919 -0.2698
  574TIP3    H223138   3.734   5.067   4.422  0.0047 -0.3266 -1.4210
  575TIP3   OH223139   3.936   3.029  11.618  0.1923 -0.0685  0.1024
  575TIP3    H123140   4.017   3.048  11.667 -0.3143  0.7603  0.6497
  575TIP3    H223141   3.905   2.946  11.654  0.5669 -0.1750  0.1886
  576TIP3   OH223142   0.980   3.983  17.105 -0.3440 -0.5899 -0.4113
  576TIP3    H123143   1.039   3.995  17.179 -0.6969 -3.7098  0.5014
  576TIP3    H223144   0.906   4.040  17.125 -0.2470 -1.0489  1.4801
  577TIP3   OH223145   3.156   0.322   5.486 -0.6483 -0.2766 -0.4581
  577TIP3    H123146   3.220   0.268   5.441 -0.3974  0.5600 -1.1189
  577TIP3    H223147   3.198   0.346   5.569 -0.6951 -0.9399 -0.2368
  578TIP3   OH223148   2.479   0.518  11.577 -0.2235 -0.3898  0.2136
  578TIP3    H123149   2.472   0.565  11.494 -0.1532 -1.2083 -0.2575
  578TIP3    H223150   2.444   0.431  11.559  1.9591 -1.3661  0.4030
  579TIP3   OH223151   3.594   0.288  13.704 -0.1985  0.0929  0.5403
  579TIP3    H123152   3.655   0.359  13.686  0.2977 -0.5171 -0.2923
  579TIP3    H223153   3.580   0.246  13.619 -0.1004 -1.0883  1.0831
  580TIP3   OH223154   2.755   4.376  14.296 -0.1331  0.8389  0.0806
  580TIP3    H123155   2.666   4.383  14.262 -0.7517  0.0789  1.4708
  580TIP3    H223156   2.749   4.403  14.387  0.5466 -1.4704  0.8875
  581TIP3   OH223157   5.540   5.315  11.335  0.2616 -0.2905 -0.5810
  581TIP3    H123158   5.487   5.269  11.270  0.3380 -0.2013 -0.7090
  581TIP3    H223159   5.611   5.255  11.357 -0.9073 -1.1553  0.9752
  582TIP3   OH223160   3.718   5.687   3.655 -0.5151 -0.2157 -0.6901
  582TIP3    H123161   3.750   5.716   3.569  0.8696  2.7344  0.6948
  582TIP3    H223162   3.658   5.756   3.683 -0.0124 -0.4988  1.2154
  583TIP3   OH223163   2.892   2.719  16.966 -0.1325  0.0421 -0.5032
  583TIP3    H123164   2.980   2.757  16.964 -0.1814  0.1479 -0.6469
  583TIP3    H223165   2.874   2.707  17.059  0.5026 -1.0774 -0.4950
  584TIP3   OH223166   5.694   6.418   4.142  0.2516 -0.0532 -0.3796
  584TIP3    H123167   5.637   6.468   4.083 -0.2106 -0.5483 -0.3544
  584TIP3    H223168   5.634   6.377   4.205  0.5710 -1.1012 -0.7376
  585TIP3   OH223169   0.787   1.222   3.749 -0.6902  0.2591  0.1363
  585TIP3    H123170   0.841   1.209   3.827 -0.1488 -1.2895 -0.4457
  585TIP3    H223171   0.768   1.315   3.748 -1.1764  0.2322  2.4155
  586TIP3   OH223172   4.940   2.995  12.619  0.1165  0.5161 -1.0962
  586TIP3    H123173   4.862   3.041  12.650 -0.2234 -1.2259  0.8398
  586TIP3    H223174   5.010   3.026  12.677 -0.2095 -1.5957  0.5482
  587TIP3   OH223175   0.044   2.792   3.166  0.1874 -0.2114  0.0600
  587TIP3    H123176  -0.017   2.786   3.092 -1.3713  1.2035  1.1551
  587TIP3    H223177   0.062   2.701   3.188 -2.7459 -0.7761  0.5905
  588TIP3   OH223178   6.004   4.495   1.186 -0.1411  0.1413 -0.8644
  588TIP3    H123179   5.984   4.455   1.271  1.1205 -1.0517 -1.0992
  588TIP3    H223180   5.960   4.580   1.189  0.1966  0.2984  1.1477
  589TIP3   OH223181   1.199   1.652   2.623 -0.3040  0.1474 -0.1732
  589TIP3    H123182   1.225   1.600   2.699 -1.8744 -0.7850 -0.2336
  589TIP3    H223183   1.108   1.677   2.642 -0.1988  1.2421 -1.0352
  590TIP3   OH223184   1.690   1.764  13.754 -0.4983  0.3759  0.3964
  590TIP3    H123185   1.667   1.692  13.696 -2.6116  1.8738 -0.7643
  590TIP3    H223186   1.671   1.843  13.703  0.2708  1.7759  2.1536
  591TIP3   OH223187   1.800   2.531   0.662 -0.0742  0.0606  0.0642
  591TIP3    H123188   1.759   2.526   0.749  1.4744  2.9014  1.0974
  591TIP3    H223189   1.892   2.512   0.679  0.1669  0.1880 -1.0503
  592TIP3   OH223190   5.747   3.302   3.603  0.3014  0.2013 -0.3164
  592TIP3    H123191   5.813   3.303   3.673 -1.2126  0.8243  1.1764
  592TIP3    H223192   5.771   3.376   3.547  1.2583 -0.0008 -0.1946
  593TIP3   OH223193   4.012   0.715  14.188 -0.3340 -0.4668  0.0527
  593TIP3    H123194   4.002   0.737  14.095 -1.8510 -0.7481  0.1278
  593TIP3    H223195   3.928   0.738  14.227 -0.7579 -3.0097  0.8007
  594TIP3   OH223196   2.398   0.390  14.761  0.3204  0.1883  0.0665
  594TIP3    H123197   2.331   0.459  14.764  1.6366  1.4657  2.1725
  594TIP3    H223198   2.439   0.400  14.675 -1.9696 -0.5065 -1.2081
  595TIP3   OH223199   1.875   5.308   2.269  0.6341  0.2232  0.0917
  595TIP3    H123200   1.903   5.247   2.201 -0.0484 -0.1277  0.1182
  595TIP3    H223201   1.783   5.327   2.248  0.8115  1.1784  0.1330
  596TIP3   OH223202   0.574   3.273  13.460  0.3068  0.5333 -0.0588
  596TIP3    H123203   0.597   3.362  13.485  1.5455  0.1165  0.3727
  596TIP3    H223204   0.652   3.221  13.481  0.5622 -0.2627 -2.5572
  597TIP3   OH223205   6.507   2.800   0.543  0.1222  0.1905  0.2688
  597TIP3    H123206   6.462   2.788   0.459  1.6453 -0.1654 -0.5331
  597TIP3    H223207   6.516   2.712   0.578  1.2761  0.1053 -0.1903
  598TIP3   OH223208   1.298   2.254   4.090 -0.4534  0.0962  0.5529
  598TIP3    H123209   1.362   2.184   4.079 -1.3460 -0.9838  1.9535
  598TIP3    H223210   1.326   2.300   4.169 -0.5412  0.5891  0.3009
  599TIP3   OH223211   5.584   6.057  16.195  0.3267 -0.0484  0.0011
  599TIP3    H123212   5.612   6.081  16.284  0.8004  0.3745 -0.2582
  599TIP3    H223213   5.661   6.018  16.155 -0.0403 -0.7317 -0.0554
  600TIP3   OH223214   3.944   1.256  13.106 -0.9166 -0.6344 -0.2696
  600TIP3    H123215   3.865   1.203  13.100 -1.4709  0.0824  0.4718
  600TIP3    H223216   4.012   1.195  13.134 -1.3190 -1.1543 -0.4099
  601TIP3   OH223217   2.966   3.258  14.576  0.4726 -0.3432 -0.6973
  601TIP3    H123218   2.926   3.171  14.570  1.0808 -0.8927  1.9188
  601TIP3    H223219   2.903   3.317  14.535 -0.1270 -1.9391 -2.1759
  602TIP3   OH223220   0.941   0.180   3.743 -0.1608  0.2919  0.4178
  602TIP3    H123221   0.880   0.253   3.738 -0.3743  0.0399 -1.4179
  602TIP3    H223222   0.987   0.181   3.659  0.2828 -1.2875  0.6004
  603TIP3   OH223223   0.773   4.893  11.715 -0.5767 -0.0473  0.4143
  603TIP3    H123224   0.746   4.892  11.623  1.0134 -0.0240 -0.0798
  603TIP3    H223225   0.783   4.986  11.736 -0.7314 -0.0619  0.5591
  604TIP3   OH223226   6.660   5.902   5.299  1.0658 -0.1221  0.0388
  604TIP3    H123227   6.597   5.929   5.366  1.0508 -0.8840  0.3395
  604TIP3    H223228   6.693   5.985   5.263 -0.8871  0.3145 -0.8868
  605TIP3   OH223229   1.184   3.325   4.038 -0.1185 -0.1997  0.3782
  605TIP3    H123230   1.137   3.409   4.040  0.9715  0.4641 -0.6543
  605TIP3    H223231   1.207   3.313   3.946 -0.7921 -1.9571  0.4154
  606TIP3   OH223232   1.890   6.386  14.384  0.0062 -0.1817 -0.5070
  606TIP3    H123233   1.830   6.363  14.455 -1.4411 -0.8831 -1.8768
  606TIP3    H223234   1.944   6.456  14.420 -0.6085 -0.5848  1.3054
  607TIP3   OH223235   3.440   6.380   2.218  0.2047  0.1512  0.2637
  607TIP3    H123236   3.430   6.357   2.310  1.0806  0.0648  0.3481
  607TIP3    H223237   3.406   6.304   2.171 -1.1234  0.5760  0.4867
  608TIP3   OH223238   4.595   5.348  15.282 -0.0315 -0.0860  0.3553
  608TIP3    H123239   4.501   5.364  15.287 -0.5991 -2.5281 -1.1259
  608TIP3    H223240   4.623   5.393  15.202  0.1849  0.9458  0.9847
  609TIP3   OH223241   2.775   4.196  16.216 -0.2063 -0.2250 -0.6035
  609TIP3    H123242   2.755   4.182  16.123  0.1609  1.2667 -0.9444
  609TIP3    H223243   2.770   4.291  16.226 -0.6308 -0.3988  1.0109
  610TIP3   OH223244   1.049   1.222  16.191 -0.1897 -0.0874 -0.1529
  610TIP3    H123245   1.027   1.130  16.177 -1.3565  0.4142 -2.0054
  610TIP3    H223246   0.996   1.247  16.267 -1.2637 -0.5217 -0.7251
  611TIP3   OH223247   2.320   5.215  13.696  0.1981  0.1458  0.0704
  611TIP3    H123248   2.304   5.155  13.623 -4.0816  0.3980  0.5598
  611TIP3    H223249   2.329   5.159  13.773  1.8409  0.0146 -0.1727
  612TIP3   OH223250   5.900   6.013   2.710  0.2953 -0.0851  0.0135
  612TIP3    H123251   5.912   5.921   2.730 -3.4429 -0.5500  0.8814
  612TIP3    H223252   5.893   6.056   2.795  1.0980  0.8470 -0.3774
  613TIP3   OH223253   6.676   2.764  15.087  0.0883 -0.3290 -0.7231
  613TIP3    H123254   6.687   2.674  15.119 -0.8769  0.5847  2.6036
  613TIP3    H223255   6.582   2.779  15.090  0.3280  1.1588  0.0058
  614TIP3   OH223256   0.924   0.242   5.637 -0.0899 -0.5759  0.4837
  614TIP3    H123257   0.943   0.169   5.578  0.8058  0.5121 -0.6413
  614TIP3    H223258   0.982   0.230   5.711  2.6153  0.7735 -1.2714
  615TIP3   OH223259   5.949   2.999  11.527  0.1011  0.5754 -0.1572
  615TIP3    H123260   6.002   3.073  11.499  1.2307 -0.4136 -0.7150
  615TIP3    H223261   5.864   3.012  11.484  0.1167  1.7760  0.1395
  616TIP3   OH223262   3.012   4.702   3.629 -0.2206  0.2001  0.1980
  616TIP3    H123263   3.071   4.762   3.675  0.6323  0.5602 -1.2692
  616TIP3    H223264   3.011   4.623   3.682  2.1510 -0.0741 -0.0167
  617TIP3   OH223265   3.393   1.636  11.502 -0.3702  0.4975 -0.4642
  617TIP3    H123266   3.345   1.670  11.427 -0.5994  0.2153 -0.4473
  617TIP3    H223267   3.454   1.572  11.465  0.5542  1.4205 -0.5792
  618TIP3   OH223268   3.397   4.576  12.433  0.4076  0.3183 -0.1420
  618TIP3    H123269   3.474   4.619  12.396 -0.0875  2.4460  1.1359
  618TIP3    H223270   3.420   4.560  12.525 -0.0503 -0.6757 -0.1798
  619TIP3   OH223271   1.916   4.779   1.130  0.5582 -0.2644 -0.0012
  619TIP3    H123272   1.894   4.845   1.064  1.1646 -1.0912 -1.0737
  619TIP3    H223273   1.980   4.723   1.086  1.6188 -0.3554  1.5964
  620TIP3   OH223274   1.619   5.451   2.341  0.2589  0.4324  0.6240
  620TIP3    H123275   1.607   5.537   2.301  2.8914 -0.1187 -1.6621
  620TIP3    H223276   1.531   5.423   2.363 -0.8090  3.1536  0.2321
  621TIP3   OH223277   3.956   3.799  12.154 -0.0203  0.5123 -0.1251
  621TIP3    H123278   3.861   3.806  12.149 -0.1429 -0.7705  0.1769
  621TIP3    H223279   3.980   3.845  12.235 -0.5590 -0.5369  0.6510
  622TIP3   OH223280   4.329   6.546   0.561 -0.7538 -0.5490  0.6254
  622TIP3    H123281   4.277   6.580   0.488 -0.0852 -4.3497 -1.9545
  622TIP3    H223282   4.420   6.556   0.532 -0.4175 -1.0200  1.4819
  623TIP3   OH223283   0.819   3.808  11.017  0.1034 -0.2779 -0.0479
  623TIP3    H123284   0.843   3.764  10.935 -0.3564 -0.5581 -0.0342
  623TIP3    H223285   0.778   3.890  10.988  1.1326  0.2483 -0.0696
  624TIP3   OH223286   1.173   3.285   5.638 -0.1391  0.1254  0.0500
  624TIP3    H123287   1.119   3.225   5.586  0.5017 -0.5581  0.1620
  624TIP3    H223288   1.263   3.267   5.611 -0.0205  2.7907 -1.7886
  625TIP3   OH223289   5.653   0.441   0.663 -0.8053  0.3558 -0.8998
  625TIP3    H123290   5.611   0.432   0.577 -4.4959 -0.7893  0.8221
  625TIP3    H223291   5.614   0.519   0.701  1.9566  1.7906 -0.6984
  626TIP3   OH223292   1.940   2.301  15.579  0.0188  0.6009  0.8771
  626TIP3    H123293   1.927   2.258  15.663  0.5151 -1.8309 -0.2051
  626TIP3    H223294   1.928   2.232  15.514  1.0204  2.0693 -0.9871
  627TIP3   OH223295   5.675   6.123  12.019 -0.2657  0.1400  0.4898
  627TIP3    H123296   5.589   6.100  11.982 -0.6014  0.2388  1.1926
  627TIP3    H223297   5.654   6.177  12.095  0.4178  0.0283  0.7578
  628TIP3   OH223298   6.252   4.176  11.091  0.4519 -0.0000  0.4140
  628TIP3    H123299   6.314   4.198  11.021 -0.0386  1.6873  0.4746
  628TIP3    H223300   6.166   4.180  11.049  0.1565  0.9706  1.0971
  629TIP3   OH223301   1.781   3.405  13.021  0.1145  0.0751 -0.1857
  629TIP3    H123302   1.794   3.498  13.002  0.4067  0.2546  0.8242
  629TIP3    H223303   1.714   3.404  13.090 -1.0635 -0.5568 -1.2874
  630TIP3   OH223304   3.643   4.011   3.241  0.4089  0.0710 -0.2948
  630TIP3    H123305   3.655   4.104   3.224  0.4806  0.1570  0.2201
  630TIP3    H223306   3.560   3.990   3.198 -0.8528  0.9149  1.5794
  631TIP3   OH223307   2.152   2.509   0.173 -0.5750  0.1042  0.1201
  631TIP3    H123308   2.215   2.478   0.238  1.3833 -0.4769 -1.8924
  631TIP3    H223309   2.182   2.597   0.151 -2.4106  1.0966  1.3568
  632TIP3   OH223310   5.070   0.006   4.831 -0.0573  0.3650  0.3796
  632TIP3    H123311   5.162  -0.011   4.852 -0.5396 -1.4189  1.2580
  632TIP3    H223312   5.022  -0.022   4.909 -1.3605  1.4073  0.0030
  633TIP3   OH223313   5.176   2.090  14.055 -0.0465 -0.3558  0.2787
  633TIP3    H123314   5.155   2.050  13.971 -1.2125  1.2698 -0.2549
  633TIP3    H223315   5.202   2.017  14.111  1.2636 -1.4082 -1.6241
  634TIP3   OH223316   0.060   5.651  11.361  0.4705 -0.6881  0.5322
  634TIP3    H123317   0.036   5.731  11.407  2.3905  0.9689 -1.1734
  634TIP3    H223318   0.138   5.619  11.407  0.0310 -1.3115  0.8659
  635TIP3   OH223319   4.228   5.897  14.240  0.2249 -0.3892  0.6140
  635TIP3    H123320   4.146   5.850  14.226  0.1047 -0.6734  2.0460
  635TIP3    H223321   4.293   5.847  14.191 -0.2699 -0.7993  0.3640
  636TIP3   OH223322   6.003   2.337   3.280 -0.2478 -0.3670 -0.1947
  636TIP3    H123323   6.097   2.320   3.270 -0.2609 -1.8543  1.7274
  636TIP3    H223324   5.970   2.260   3.325 -2.5270 -0.1000 -1.2972
  637TIP3   OH223325   4.650   4.770   5.841  0.1030  0.0863  0.5995
  637TIP3    H123326   4.611   4.854   5.818  0.2104 -0.2158 -0.8120
  637TIP3    H223327   4.729   4.765   5.786 -0.3046 -1.2585  0.1027
  638TIP3   OH223328   5.130   2.479  15.192  0.6739  0.3687  0.1407
  638TIP3    H123329   5.197   2.540  15.224  0.7427  0.7618 -0.7200
  638TIP3    H223330   5.158   2.457  15.103 -0.4027  0.6494 -0.2889
  639TIP3   OH223331   2.128   4.216  14.733 -0.2087 -0.0447 -0.7911
  639TIP3    H123332   2.182   4.260  14.667 -0.0887  1.3734  0.2023
  639TIP3    H223333   2.038   4.228  14.702 -0.1436  0.4571 -0.7982
  640TIP3   OH223334   5.186   2.830  11.804 -0.0726  0.1601  0.2162
  640TIP3    H123335   5.187   2.772  11.880  0.5267 -1.5017 -0.9987
  640TIP3    H223336   5.246   2.900  11.827  2.4331 -1.8504  0.1960
  641TIP3   OH223337   2.973   2.611   5.222 -0.6788 -0.1917 -0.1517
  641TIP3    H123338   2.969   2.590   5.315 -0.9502 -1.3382 -0.3974
  641TIP3    H223339   3.056   2.657   5.211 -2.0209  2.7806  1.1473
  642TIP3   OH223340   5.896   3.924   3.857 -0.2224  0.1861  0.2573
  642TIP3    H123341   5.914   4.015   3.881 -1.1201  0.5304 -0.3492
  642TIP3    H223342   5.974   3.897   3.808  0.5750  0.2281  1.4512
  643TIP3   OH223343   1.607   5.845  12.957 -0.0157  0.2172  0.5603
  643TIP3    H123344   1.519   5.840  12.993 -0.4611 -0.1482 -0.5554
  643TIP3    H223345   1.613   5.933  12.919  0.1432  0.2845  0.7405
  644TIP3   OH223346   1.255   0.143   0.503 -0.1340  0.0961  0.2163
  644TIP3    H123347   1.161   0.154   0.521 -0.3369 -0.3544 -0.5414
  644TIP3    H223348   1.285   0.080   0.569 -0.8721 -1.5484 -0.9676
  645TIP3   OH223349   2.323   3.635  11.667  0.6670 -0.0209  0.2654
  645TIP3    H123350   2.406   3.642  11.620  0.9851  0.2505  0.8565
  645TIP3    H223351   2.306   3.541  11.674  1.7004 -0.1350  1.4717
  646TIP3   OH223352   5.585   6.507  11.442  0.0482 -0.6663  0.0674
  646TIP3    H123353   5.675   6.476  11.440  0.0253 -0.8528  1.4026
  646TIP3    H223354   5.546   6.473  11.361  1.7804  1.3964 -1.7652
  647TIP3   OH223355   5.992   2.716   3.894 -0.2808  0.7085  0.5738
  647TIP3    H123356   6.086   2.703   3.892 -0.5850 -2.0088 -0.3891
  647TIP3    H223357   5.956   2.632   3.923 -2.4527  1.2253 -0.3714
  648TIP3   OH223358   1.211   2.413  14.636 -0.0071 -0.2396  0.8660
  648TIP3    H123359   1.123   2.430  14.669  0.3501 -0.6918  2.1007
  648TIP3    H223360   1.238   2.495  14.595 -1.2574 -0.3059 -0.1584
  649TIP3   OH223361   1.170   1.013   2.574  0.1029 -0.2469  0.1549
  649TIP3    H123362   1.100   1.006   2.639  0.7063 -1.6404  0.6828
  649TIP3    H223363   1.173   0.928   2.531  1.6061 -0.2922  0.2901
  650TIP3   OH223364   5.196   2.966   2.386  0.0251 -0.4777 -0.3365
  650TIP3    H123365   5.245   2.954   2.467  0.5296 -0.4539 -0.6390
  650TIP3    H223366   5.153   3.051   2.396 -0.1375 -0.6000  0.0196
  651TIP3   OH223367   4.641   0.608   4.472 -0.0750  0.5735  0.1038
  651TIP3    H123368   4.625   0.514   4.467 -2.7987  0.9142  0.9718
  651TIP3    H223369   4.708   0.616   4.540  1.6536 -0.7904 -1.3299
  652TIP3   OH223370   6.204   4.223  16.066  0.2837 -0.0610  0.4353
  652TIP3    H123371   6.158   4.291  16.114  1.4500  0.1554  1.2985
  652TIP3    H223372   6.243   4.268  15.991  2.3366  0.6232  1.8120
  653TIP3   OH223373   0.963   2.503   3.302 -0.5706  0.1221 -0.2505
  653TIP3    H123374   0.939   2.466   3.387  0.5058  1.1372  0.5239
  653TIP3    H223375   0.957   2.429   3.241  0.4538 -1.0734  1.0500
  654TIP3   OH223376   5.300   2.922   3.221 -0.1674  0.0038 -0.3323
  654TIP3    H123377   5.347   2.870   3.286 -1.3633 -1.2692 -0.4412
  654TIP3    H223378   5.357   2.997   3.204 -0.6163  1.4343  3.5725
  655TIP3   OH223379   0.509   0.015   1.407 -0.3621  0.0127 -0.3664
  655TIP3    H123380   0.491   0.079   1.476  1.2123 -0.4396  0.5342
  655TIP3    H223381   0.463   0.048   1.330 -0.1338  1.8886  0.2499
  656TIP3   OH223382   6.011   5.252  16.154  0.9964  0.3895 -0.6373
  656TIP3    H123383   6.080   5.285  16.212 -0.1698  0.7606  0.5948
  656TIP3    H223384   5.953   5.202  16.213  0.5144 -0.3851 -1.7408
  657TIP3   OH223385   5.561   1.124  13.582  0.1690 -0.5443 -0.4056
  657TIP3    H123386   5.630   1.111  13.517 -0.5122  0.3199 -1.3391
  657TIP3    H223387   5.563   1.218  13.600 -0.1107 -0.6713  0.3130
  658TIP3   OH223388   2.793   2.477   1.664  0.2990 -0.7404 -0.3240
  658TIP3    H123389   2.713   2.502   1.709  1.1498  0.2709  0.6804
  658TIP3    H223390   2.785   2.383   1.650 -1.6035 -0.4567 -1.3694
  659TIP3   OH223391   0.269   2.766  15.828 -0.3036 -0.1124 -0.5040
  659TIP3    H123392   0.260   2.826  15.902  0.7289 -0.6064  0.0399
  659TIP3    H223393   0.364   2.752  15.820 -0.1630  1.4785 -3.1590
  660TIP3   OH223394   3.647   5.931  15.567 -0.1617  0.3102  0.2508
  660TIP3    H123395   3.608   5.862  15.513  1.5115  0.7990 -1.7453
  660TIP3    H223396   3.688   5.884  15.639  0.6745 -0.8114 -0.9033
  661TIP3   OH223397   2.548   2.510   4.501  0.0223  0.0968  0.3524
  661TIP3    H123398   2.571   2.601   4.518  0.1121 -0.0661  1.1389
  661TIP3    H223399   2.617   2.478   4.443 -1.2481  1.1634 -1.8423
  662TIP3   OH223400   3.259   4.734  13.479  0.5831 -0.1463 -0.0040
  662TIP3    H123401   3.243   4.759  13.388 -0.2102 -0.2403  0.1065
  662TIP3    H223402   3.174   4.741  13.522  0.8740 -0.4666  0.6451
  663TIP3   OH223403   0.361   0.824   4.623  0.1767  0.4127 -0.6165
  663TIP3    H123404   0.357   0.791   4.533  1.1581  0.0077 -0.5240
  663TIP3    H223405   0.324   0.912   4.617 -0.2220  0.2083 -1.3243
  664TIP3   OH223406   6.095   6.460  16.009 -0.2198 -0.0649  0.5881
  664TIP3    H123407   6.004   6.468  15.978 -0.0526  0.3697  0.1857
  664TIP3    H223408   6.090   6.401  16.084 -0.8180 -0.1480  0.4881
  665TIP3   OH223409   0.831   1.243   4.192  0.3301  0.1844 -0.1008
  665TIP3    H123410   0.831   1.152   4.163  0.2570  0.2807 -0.4143
  665TIP3    H223411   0.745   1.276   4.166 -0.0995  0.0262  1.0405
  666TIP3   OH223412   4.615   2.927  16.531 -0.4122 -1.1011  1.2438
  666TIP3    H123413   4.596   3.015  16.564 -2.1430 -0.7950 -0.4392
  666TIP3    H223414   4.678   2.892  16.595 -1.2765  0.5444  3.1374
  667TIP3   OH223415   2.052   1.252  10.643  0.5903 -0.0858  0.4736
  667TIP3    H123416   2.000   1.331  10.662  2.2381  1.1694 -0.0090
  667TIP3    H223417   1.995   1.199  10.587  0.0714  1.6065 -0.6993
  668TIP3   OH223418   3.682   6.017  13.992 -0.0350  0.0965 -0.2230
  668TIP3    H123419   3.747   6.081  13.965 -1.0480  1.1138 -0.3273
  668TIP3    H223420   3.703   5.999  14.084  1.2123 -0.6351 -0.6402
  669TIP3   OH223421   1.039   4.610  12.510 -0.0240  0.0212 -0.1397
  669TIP3    H123422   1.087   4.650  12.582 -0.0600  1.2018 -0.7387
  669TIP3    H223423   0.973   4.676  12.486 -0.5958 -0.7223 -0.6673
  670TIP3   OH223424   0.868   3.273  13.662  0.2456 -0.1042  0.2254
  670TIP3    H123425   0.932   3.277  13.591 -1.7305  1.1737 -1.5972
  670TIP3    H223426   0.849   3.179  13.672 -0.5295 -0.2201 -1.9920
  671TIP3   OH223427   3.486   4.583   5.393 -0.2791  0.2521 -0.2328
  671TIP3    H123428   3.426   4.511   5.412  0.1742  0.1844  1.0038
  671TIP3    H223429   3.430   4.652   5.358 -1.2580  0.5310  1.7542
  672TIP3   OH223430   3.317   5.556   0.432  0.2924  0.3382 -0.1765
  672TIP3    H123431   3.221   5.563   0.423  0.1255 -0.6857  0.6681
  672TIP3    H223432   3.345   5.646   0.450 -0.5777  0.5516  0.1862
  673TIP3   OH223433   1.101   4.237  15.235 -0.0189  0.2405 -0.2912
  673TIP3    H123434   1.045   4.190  15.297  0.3876 -0.5157 -0.4879
  673TIP3    H223435   1.138   4.309  15.287  1.2085 -1.0543  0.6872
  674TIP3   OH223436   3.155   6.511   3.541 -0.3603  0.2158  0.7480
  674TIP3    H123437   3.121   6.598   3.521  1.2705  0.8524  0.6479
  674TIP3    H223438   3.104   6.452   3.485  0.7421  1.4480 -1.7035
  675TIP3   OH223439   4.587   4.169  15.717  0.1492 -0.4106 -0.1344
  675TIP3    H123440   4.532   4.242  15.687 -1.4083 -0.2751  2.7219
  675TIP3    H223441   4.660   4.211  15.763 -0.1833 -0.6480  0.6105
  676TIP3   OH223442   2.256   0.679  12.896  0.3110  0.7040 -0.5094
  676TIP3    H123443   2.260   0.774  12.910  2.4861  0.4835  0.8573
  676TIP3    H223444   2.343   0.648  12.921  0.4271 -1.4007 -3.1955
  677TIP3   OH223445   3.168   4.437  10.388 -0.5340  0.2301 -0.1580
  677TIP3    H123446   3.245   4.441  10.331 -0.5276 -3.0720 -0.5787
  677TIP3    H223447   3.205   4.441  10.477  0.1097 -0.7528 -0.3618
  678TIP3   OH223448   4.328   2.607  12.653  0.0805 -0.1275  0.0737
  678TIP3    H123449   4.291   2.694  12.666  0.9952  0.4650 -1.0648
  678TIP3    H223450   4.305   2.584  12.563  0.7398 -0.6032  0.0153
  679TIP3   OH223451   0.379   4.725   3.638  0.2356 -0.3720  0.2388
  679TIP3    H123452   0.443   4.693   3.701 -0.5746 -1.0749  0.7245
  679TIP3    H223453   0.301   4.672   3.654  0.0166 -0.5901 -1.3621
  680TIP3   OH223454   1.543   2.149   2.937  0.0820 -0.6887  0.5277
  680TIP3    H123455   1.485   2.080   2.904  1.5108 -1.9271  0.5047
  680TIP3    H223456   1.500   2.231   2.912 -0.7587 -1.5726 -1.0525
  681TIP3   OH223457   2.527   4.707   0.216 -0.0121 -0.3454  0.7083
  681TIP3    H123458   2.469   4.712   0.140 -0.2504  0.5572  0.9372
  681TIP3    H223459   2.468   4.691   0.290 -0.1757  1.9438  1.1445
  682TIP3   OH223460   4.829   4.176  11.853  0.0197 -0.0125  0.3526
  682TIP3    H123461   4.806   4.228  11.931 -0.8052  0.9996 -0.5324
  682TIP3    H223462   4.810   4.086  11.879 -0.1170  0.2890  1.3730
  683TIP3   OH223463   2.216   3.890  11.692  0.1893 -0.5283  0.1924
  683TIP3    H123464   2.243   3.799  11.684 -1.5705 -1.1984  1.3406
  683TIP3    H223465   2.124   3.886  11.717 -0.1318  1.5830 -0.4280
  684TIP3   OH223466   2.004   1.206   0.521 -0.0341  0.0954  1.4520
  684TIP3    H123467   1.998   1.169   0.609  3.2125 -1.3629  1.1782
  684TIP3    H223468   2.029   1.132   0.466  0.5099  1.4964 -0.2543
  685TIP3   OH223469   4.672   6.112  14.643 -0.7628  0.2662 -0.5016
  685TIP3    H123470   4.756   6.158  14.653 -0.8525  0.2375  0.5580
  685TIP3    H223471   4.613   6.177  14.606 -0.7530  0.8641  0.5012
  686TIP3   OH223472   1.683   2.296   4.108 -0.5740 -0.4033 -0.2512
  686TIP3    H123473   1.691   2.221   4.166  2.9741  0.7344  1.0319
  686TIP3    H223474   1.670   2.258   4.021 -0.9809 -2.3701  0.6161
  687TIP3   OH223475   3.445   4.540  13.431  0.4598 -0.0335 -0.6007
  687TIP3    H123476   3.516   4.537  13.495 -0.1618 -0.7704  0.0830
  687TIP3    H223477   3.399   4.622  13.450 -0.2379 -0.6544  0.5016
  688TIP3   OH223478   5.416   1.706  10.889  0.1585  0.4517  0.7475
  688TIP3    H123479   5.433   1.793  10.924  0.9746  0.4850  0.3057
  688TIP3    H223480   5.436   1.646  10.961  0.9403  0.5694  0.6413
  689TIP3   OH223481   6.553   2.264   1.877  0.3521 -0.6761  0.6433
  689TIP3    H123482   6.508   2.181   1.861  1.0834 -1.4036  2.1437
  689TIP3    H223483   6.600   2.281   1.796 -0.1315 -1.5247  0.1647
  690TIP3   OH223484   5.386   3.272  15.843 -0.0880  0.1072  0.0813
  690TIP3    H123485   5.400   3.186  15.804  0.1410 -0.4494  1.3491
  690TIP3    H223486   5.296   3.270  15.875 -0.4184  0.7157 -0.7558
  691TIP3   OH223487   5.707   0.255  12.547 -0.0795 -0.1773 -0.3306
  691TIP3    H123488   5.783   0.232  12.599  0.8034  1.1748 -0.9416
  691TIP3    H223489   5.632   0.229  12.600  0.8018 -0.2095  0.9417
  692TIP3   OH223490   1.001   2.708   4.137  1.1883 -0.1991 -0.4214
  692TIP3    H123491   0.913   2.731   4.169  1.0517 -0.1480 -0.8332
  692TIP3    H223492   1.004   2.743   4.048  1.7905  0.2018 -0.2491
  693TIP3   OH223493   3.393   1.069  12.854  0.1825  0.1262 -0.4374
  693TIP3    H123494   3.324   1.127  12.821  1.5685  1.5561 -0.9748
  693TIP3    H223495   3.411   1.102  12.943  1.2179  0.7832 -0.8742
  694TIP3   OH223496   0.104   6.357  12.515  0.3358 -0.1538  0.5352
  694TIP3    H123497   0.068   6.269  12.525 -0.5374  0.0278 -0.7169
  694TIP3    H223498   0.187   6.344  12.468  0.1840 -0.3049  0.3087
  695TIP3   OH223499   3.827   0.085   1.194 -0.4222  0.4508  0.3848
  695TIP3    H123500   3.865   0.166   1.160  1.1582 -1.3053 -2.4456
  695TIP3    H223501   3.892   0.051   1.255  0.1636  0.0296 -0.4622
  696TIP3   OH223502   0.231   3.278  13.376  0.2305 -0.0529  0.3547
  696TIP3    H123503   0.186   3.201  13.410 -2.4891 -0.3045 -3.2687
  696TIP3    H223504   0.305   3.242  13.326 -0.3678 -0.2499 -0.3958
  697TIP3   OH223505   2.965   4.846  12.992 -0.3320  0.3182  0.2351
  697TIP3    H123506   3.044   4.833  12.939 -0.6430  0.6015 -0.3125
  697TIP3    H223507   2.904   4.891  12.933 -0.9064  0.0912  0.6491
  698TIP3   OH223508   5.419   4.166   1.988 -0.3218  0.1847  0.1920
  698TIP3    H123509   5.328   4.139   1.979 -0.6741  0.6275  1.9734
  698TIP3    H223510   5.423   4.253   1.947 -0.9335  0.5456  0.8679
  699TIP3   OH223511   6.077   4.494   1.694 -0.2511  0.4262  0.0518
  699TIP3    H123512   6.025   4.565   1.732 -1.2254 -1.1011  1.7517
  699TIP3    H223513   6.168   4.525   1.701 -0.6376  1.4419  0.9343
  700TIP3   OH223514   4.528   6.746   0.490  0.5124  0.1191  0.0141
  700TIP3    H123515   4.463   6.807   0.456  0.8949  1.2077  1.1453
  700TIP3    H223516   4.612   6.789   0.476  0.7790 -0.0496  0.9659
  701TIP3   OH223517   4.061   1.020   3.514  0.2980  0.4571  0.5387
  701TIP3    H123518   4.130   1.039   3.577  1.2048 -0.5716 -0.1197
  701TIP3    H223519   4.107   0.986   3.437 -0.8221  1.1866 -0.4959
  702TIP3   OH223520   4.884   4.214   1.936  0.0583  0.2479  0.4171
  702TIP3    H123521   4.918   4.165   2.010 -1.6420 -2.8354 -0.6452
  702TIP3    H223522   4.957   4.217   1.874  0.4953 -0.1108  0.9063
  703TIP3   OH223523   6.130   6.669  13.600  0.2917 -0.2378  0.4182
  703TIP3    H123524   6.051   6.617  13.617 -0.7140  1.2168  0.3139
  703TIP3    H223525   6.170   6.679  13.687 -0.7922  0.7948  0.8284
  704TIP3   OH223526   2.987   4.975  13.486 -0.9370 -0.1916 -0.3516
  704TIP3    H123527   2.953   4.899  13.439  0.4847 -0.8030 -0.4270
  704TIP3    H223528   2.952   4.966  13.575 -1.8313 -0.2096 -0.6869
  705TIP3   OH223529   6.534   6.704   1.910 -0.2234 -0.3953 -0.4096
  705TIP3    H123530   6.584   6.737   1.985 -1.3403 -1.7471  1.0094
  705TIP3    H223531   6.570   6.616   1.895 -0.9094 -0.6543 -0.5723
  706TIP3   OH223532   2.651   4.912  16.269 -0.2581 -0.5791  0.0814
  706TIP3    H123533   2.660   4.979  16.336 -0.8301  0.4765 -0.8590
  706TIP3    H223534   2.578   4.858  16.298 -0.9321  0.2715 -0.0096
  707TIP3   OH223535   3.247   4.782  16.231  0.0106 -0.0032  0.3800
  707TIP3    H123536   3.172   4.824  16.190  1.0174  1.2233 -0.2672
  707TIP3    H223537   3.229   4.688  16.225 -1.4686  0.2752  0.2719
  708TIP3   OH223538   2.328   4.912   3.898 -0.0330  0.4645 -0.2841
  708TIP3    H123539   2.399   4.900   3.834  1.6788 -0.0615  1.5835
  708TIP3    H223540   2.299   5.002   3.885 -0.6422 -0.0190 -2.6262
  709TIP3   OH223541   4.797   1.240   2.216  0.2418 -0.1186  0.7397
  709TIP3    H123542   4.785   1.163   2.160  0.1432  0.2676  0.2165
  709TIP3    H223543   4.798   1.313   2.154 -1.6394  0.5019  1.3884
  710TIP3   OH223544   6.689   3.349  12.218  0.0110  0.5904  0.0655
  710TIP3    H123545   6.776   3.317  12.194 -0.6804  0.4074 -2.4819
  710TIP3    H223546   6.693   3.443  12.202 -0.2961  0.5530 -0.2471
  711TIP3   OH223547   3.960   2.344   3.990 -0.0197  0.5861 -0.0387
  711TIP3    H123548   4.018   2.420   3.991 -1.9376  2.1677 -1.4212
  711TIP3    H223549   3.889   2.367   4.050  0.7097 -1.3503  1.6849
  712TIP3   OH223550   6.091   0.911  13.995  0.0961  0.5816  0.0247
  712TIP3    H123551   6.022   0.953  13.943 -1.2765  0.1372  1.4005
  712TIP3    H223552   6.127   0.982  14.048 -1.1354  0.3733  1.1970
  713TIP3   OH223553   3.820   3.946  14.229  0.1767 -0.8752 -0.0935
  713TIP3    H123554   3.847   3.979  14.143 -0.3433 -1.3215 -0.4345
  713TIP3    H223555   3.748   4.004  14.256  2.3787  1.3228  1.5316
  714TIP3   OH223556   2.676   6.055   5.800 -0.4724 -0.0799 -0.0111
  714TIP3    H123557   2.648   6.079   5.889 -0.7645  1.7981 -0.5861
  714TIP3    H223558   2.597   6.061   5.747  0.3830  2.5658 -1.1148
  715TIP3   OH223559   5.799   3.746  15.555  0.7552 -0.4449 -0.6754
  715TIP3    H123560   5.727   3.770  15.614  1.9718 -1.0210  1.1306
  715TIP3    H223561   5.859   3.820  15.559  0.4003 -0.0460 -2.0424
  716TIP3   OH223562   0.393   5.792  10.919  0.3902  0.2694  0.5476
  716TIP3    H123563   0.361   5.742  10.844 -1.8149  1.5002  0.5729
  716TIP3    H223564   0.480   5.756  10.937  0.8500 -0.3403 -2.3314
  717TIP3   OH223565   0.787   4.676  14.565  0.1977  0.1220  0.3159
  717TIP3    H123566   0.863   4.648  14.514  0.7091  1.8274  0.0625
  717TIP3    H223567   0.816   4.673  14.656 -0.0739 -1.0653  0.3696
  718TIP3   OH223568   5.862   2.750  13.654 -0.2696  0.1348  0.0992
  718TIP3    H123569   5.898   2.829  13.695  0.0194  0.8100 -1.3536
  718TIP3    H223570   5.938   2.709  13.612 -0.5004 -0.6809  0.4693
  719TIP3   OH223571   4.272   5.589   1.534  0.0582 -0.1330  0.0390
  719TIP3    H123572   4.261   5.563   1.443  0.5813  1.2045 -0.4160
  719TIP3    H223573   4.318   5.515   1.574  2.7357  0.5288 -1.5450
  720TIP3   OH223574   3.022   2.615   0.140  1.0501  0.5973 -0.2196
  720TIP3    H123575   3.011   2.666   0.059 -0.2873  0.3249 -0.2227
  720TIP3    H223576   2.950   2.552   0.139 -0.8040  2.4561  2.5722
  721TIP3   OH223577   1.774   4.578   2.804  0.3005 -0.6973 -0.0417
  721TIP3    H123578   1.736   4.606   2.721 -0.7153 -0.3335  0.5286
  721TIP3    H223579   1.733   4.493   2.821 -0.2919 -0.2985  0.5825
  722TIP3   OH223580   1.147   5.041   1.463  0.5003 -0.4220 -0.0573
  722TIP3    H123581   1.112   5.014   1.548  0.0611 -0.2169 -0.1665
  722TIP3    H223582   1.136   5.136   1.462  0.3714 -0.4380 -0.3965
  723TIP3   OH223583   0.311   1.798  11.829  0.1871 -0.1069  0.2608
  723TIP3    H123584   0.220   1.780  11.854  0.4729 -1.4632  0.4514
  723TIP3    H223585   0.307   1.877  11.776 -1.0288  0.1876  0.7557
  724TIP3   OH223586   3.330   3.250  15.778  0.1422  0.1073 -0.0540
  724TIP3    H123587   3.356   3.160  15.801  1.3303  0.2627 -0.6990
  724TIP3    H223588   3.248   3.264  15.826 -0.7377 -1.7567 -0.8925
  725TIP3   OH223589   6.499   2.592   5.964  0.4325  0.0974 -0.1155
  725TIP3    H123590   6.511   2.588   6.059 -2.9601 -0.2110  0.4415
  725TIP3    H223591   6.496   2.686   5.945  2.7703  0.2012 -0.2844
  726TIP3   OH223592   6.502   2.481   0.017  0.6388  0.0180  0.8689
  726TIP3    H123593   6.436   2.538  -0.021  0.0806 -2.0150 -1.5035
  726TIP3    H223594   6.507   2.507   0.109 -1.2448  2.2329  0.4276
  727TIP3   OH223595   2.825   2.640  15.160  0.5060 -0.0346 -0.0177
  727TIP3    H123596   2.862   2.624  15.074  3.6803  1.4298  0.9142
  727TIP3    H223597   2.850   2.731  15.180  0.2023 -0.4325  2.5426
  728TIP3   OH223598   2.746   6.671   6.576 -0.1516  0.1392  0.4796
  728TIP3    H123599   2.740   6.590   6.627 -1.6443  0.1792  0.4183
  728TIP3    H223600   2.797   6.646   6.499  0.7204 -0.3360  1.1959
  729TIP3   OH223601   4.308   5.914   0.408 -0.1161  0.5210 -0.3097
  729TIP3    H123602   4.303   5.859   0.486  0.3366 -0.0286 -0.6644
  729TIP3    H223603   4.235   5.976   0.418 -1.1294 -0.6402 -0.2792
  730TIP3   OH223604   6.550   0.852   3.101 -0.0830 -0.2655 -0.3605
  730TIP3    H123605   6.598   0.770   3.101 -0.5981 -0.6321  1.5231
  730TIP3    H223606   6.504   0.852   3.186  0.3721  2.2223 -0.0442
  731TIP3   OH223607   4.873   5.938   1.097 -0.0322  0.5169  0.1172
  731TIP3    H123608   4.852   5.996   1.023 -1.1889 -0.3212 -0.2326
  731TIP3    H223609   4.860   5.850   1.063  1.0040  0.0514  0.8667
  732TIP3   OH223610   0.578   4.698  16.560  0.0367 -0.6501 -0.0926
  732TIP3    H123611   0.646   4.635  16.534 -0.6418 -0.8171 -1.5725
  732TIP3    H223612   0.551   4.739  16.477  0.2867  1.4286  0.8014
  733TIP3   OH223613   1.956   2.528  15.744 -0.3096  0.1478  0.3092
  733TIP3    H123614   1.943   2.461  15.677 -2.2406 -1.5322  2.1808
  733TIP3    H223615   1.976   2.608  15.696 -0.1892 -1.2785 -2.1484
  734TIP3   OH223616   3.441   0.225   0.494  0.0078  0.6483 -0.0187
  734TIP3    H123617   3.399   0.307   0.471 -1.3755  0.4440  1.5525
  734TIP3    H223618   3.520   0.251   0.543 -1.5850  1.1501  2.4814
  735TIP3   OH223619   0.418   0.524   3.245  0.3881  0.1100  0.1641
  735TIP3    H123620   0.502   0.506   3.204  1.0059  0.9195  1.0129
  735TIP3    H223621   0.355   0.469   3.199  1.1565  0.4850 -1.3831
  736TIP3   OH223622   2.081   4.706   2.670 -0.0174  0.1433 -0.0013
  736TIP3    H123623   2.020   4.666   2.608  1.0012  2.5339 -2.7978
  736TIP3    H223624   2.159   4.652   2.664 -0.7577 -1.1164  1.2182
  737TIP3   OH223625   6.630   5.740   1.644  0.0787 -0.0405  0.1557
  737TIP3    H123626   6.576   5.725   1.566 -0.0347  0.3318  0.1635
  737TIP3    H223627   6.590   5.685   1.712  0.2824 -0.5038 -0.0899
  738TIP3   OH223628   5.332   5.406  14.496  0.3557  0.0532 -0.0287
  738TIP3    H123629   5.295   5.463  14.564 -1.3315 -0.7227 -0.2504
  738TIP3    H223630   5.354   5.465  14.424 -0.7503  0.5239  0.0056
  739TIP3   OH223631   3.299   1.134  16.721 -1.0557 -0.2998 -0.1635
  739TIP3    H123632   3.215   1.090  16.732 -0.5193 -1.1027  0.9049
  739TIP3    H223633   3.284   1.222  16.758 -1.1517 -0.7803  0.9843
  740TIP3   OH223634   3.348   2.416  17.133  0.6250  0.2447  0.0323
  740TIP3    H123635   3.395   2.392  17.054  1.2619 -0.2868  0.5593
  740TIP3    H223636   3.297   2.493  17.108  1.9215  0.9653 -0.5099
  741TIP3   OH223637   3.033   1.531   3.884 -0.2916 -0.2418 -0.9655
  741TIP3    H123638   2.985   1.458   3.845 -0.4269 -0.1590 -0.9510
  741TIP3    H223639   3.100   1.553   3.819  0.0841 -0.7246 -0.7459
  742TIP3   OH223640   0.346   6.181  15.814  0.3765 -0.1548  0.2803
  742TIP3    H123641   0.272   6.215  15.764  1.5655  0.5394 -1.0700
  742TIP3    H223642   0.383   6.112  15.758  1.2634  0.1064  0.5259
  743TIP3   OH223643   3.775   4.501   4.398  0.3471 -0.1567 -0.1759
  743TIP3    H123644   3.773   4.536   4.309 -0.2444  1.6903  0.5243
  743TIP3    H223645   3.687   4.514   4.432  0.9052  0.4580  1.1303
  744TIP3   OH223646   2.097   0.663  15.171 -0.4260  0.5697 -0.1602
  744TIP3    H123647   2.120   0.588  15.226 -1.5425  0.2483 -0.1248
  744TIP3    H223648   2.041   0.627  15.103  1.6764  0.7936 -2.1113
  745TIP3   OH223649   2.004   6.138  11.126 -0.1633 -0.5099 -0.7689
  745TIP3    H123650   1.917   6.177  11.131 -0.1010 -0.2217 -1.7240
  745TIP3    H223651   2.011   6.109  11.035 -0.1897 -2.7231 -0.1164
  746TIP3   OH223652   0.266   2.841   1.247 -0.4344  0.2667 -0.0967
  746TIP3    H123653   0.309   2.919   1.283 -1.0035  0.2737  0.5891
  746TIP3    H223654   0.312   2.768   1.286  1.5886  0.1524 -2.4263
  747TIP3   OH223655   1.033   5.312  13.052 -0.0092  0.0139 -0.2540
  747TIP3    H123656   0.946   5.317  13.093  0.5601  0.3053  0.9630
  747TIP3    H223657   1.015   5.310  12.958 -1.3232  0.3532 -0.0299
  748TIP3   OH223658   6.195   6.625  14.373 -0.1567  0.1632  0.1872
  748TIP3    H123659   6.267   6.677  14.409 -0.1282  0.8916 -0.8758
  748TIP3    H223660   6.228   6.535  14.373  2.0654  0.7887 -3.1000
  749TIP3   OH223661   5.036   2.885   1.179  0.3589 -0.2237  0.2368
  749TIP3    H123662   5.056   2.792   1.168  0.2580 -0.3472  1.0139
  749TIP3    H223663   5.020   2.917   1.091 -0.1832 -1.0771  0.0164
  750TIP3   OH223664   1.774   1.278   6.473  0.2239  0.0627 -0.4144
  750TIP3    H123665   1.772   1.256   6.566  0.2305 -1.4414 -0.7321
  750TIP3    H223666   1.683   1.295   6.450  0.2638  0.7451 -0.0651
  751TIP3   OH223667   6.733   1.797  10.914 -0.1565  0.6177 -0.4074
  751TIP3    H123668   6.774   1.840  10.989 -0.5427  0.2907 -0.0042
  751TIP3    H223669   6.795   1.729  10.889 -0.4308  0.1320  0.1932
  752TIP3   OH223670   4.144   1.633  13.057 -0.7508 -0.4356 -0.5002
  752TIP3    H123671   4.138   1.550  13.009  0.0030 -0.3977 -0.6634
  752TIP3    H223672   4.216   1.620  13.119 -1.4574 -0.3458  0.3665
  753TIP3   OH223673   4.055   1.634   5.654 -0.0054 -0.0058 -0.2474
  753TIP3    H123674   4.034   1.721   5.621  1.9107  0.8950  0.7360
  753TIP3    H223675   3.998   1.575   5.604 -2.5584  1.9056  0.2472
  754TIP3   OH223676   5.795   6.168   3.960  0.1547  0.4127 -0.5503
  754TIP3    H123677   5.725   6.199   4.018  0.1801  2.7004 -1.6323
  754TIP3    H223678   5.760   6.088   3.921 -1.5298  1.0610 -0.4537
  755TIP3   OH223679   6.233   5.251   5.951  0.5016  0.4559  0.5080
  755TIP3    H123680   6.186   5.206   5.881 -0.6320  2.3205 -0.0115
  755TIP3    H223681   6.313   5.282   5.910  0.8014 -0.1904  0.5958
  756TIP3   OH223682   2.542   1.316  14.759  0.6565 -0.4843 -0.0215
  756TIP3    H123683   2.509   1.226  14.771  0.4343 -0.4002  0.0043
  756TIP3    H223684   2.615   1.307  14.698  0.9269 -0.7429  0.3364
  757TIP3   OH223685   3.822   2.671  16.503  0.3479 -0.4914 -0.0217
  757TIP3    H123686   3.822   2.751  16.557 -1.3169  2.0196 -3.3523
  757TIP3    H223687   3.909   2.634  16.516  0.4677  0.5651  3.3241
  758TIP3   OH223688   5.010   3.249   1.721 -0.2082  0.0165  0.0297
  758TIP3    H123689   5.033   3.188   1.650 -0.5583 -1.9554  1.5075
  758TIP3    H223690   4.924   3.220   1.751 -0.5198  1.4589  0.5978
  759TIP3   OH223691   6.155   6.015  16.359 -0.2985 -0.0805 -0.8377
  759TIP3    H123692   6.071   6.007  16.403 -0.8965 -0.4816 -2.0203
  759TIP3    H223693   6.166   5.932  16.313  1.2348 -0.4465  0.1097
  760TIP3   OH223694   1.004   1.109  15.417  0.0479 -0.1117  0.5451
  760TIP3    H123695   0.925   1.156  15.443  0.6420  1.5913 -0.5434
  760TIP3    H223696   1.076   1.159  15.455  0.6411 -1.2950  1.0161
  761TIP3   OH223697   5.927   6.302   0.642 -0.1326 -0.2487  0.7405
  761TIP3    H123698   5.945   6.217   0.600  1.4444  0.7518 -0.7694
  761TIP3    H223699   5.896   6.279   0.729 -0.7202 -2.3961  0.0423
  762TIP3   OH223700   6.367   5.344  15.005  0.6795 -0.3614 -0.4901
  762TIP3    H123701   6.415   5.409  15.056  3.9273 -2.6269 -0.2752
  762TIP3    H223702   6.431   5.312  14.941 -2.1544 -0.1852 -3.7337
  763TIP3   OH223703   5.432   1.045  11.837 -0.1537  0.0531  0.2668
  763TIP3    H123704   5.367   1.115  11.838 -0.2408 -0.0304  0.7391
  763TIP3    H223705   5.456   1.036  11.745 -1.2276 -0.2870 -0.0028
  764TIP3   OH223706   3.719   3.465   0.527 -0.4742 -0.0538 -0.2522
  764TIP3    H123707   3.680   3.383   0.554  0.4155 -1.0453 -1.7714
  764TIP3    H223708   3.734   3.514   0.608  3.5750 -3.4748  1.4438
  765TIP3   OH223709   0.991   5.053   2.350  0.2801  0.3791 -0.3374
  765TIP3    H123710   0.999   4.999   2.429  2.4965 -1.2920 -1.6003
  765TIP3    H223711   0.919   5.013   2.301 -0.6059  0.9629  0.4527
  766TIP3   OH223712   6.415   4.414   4.794 -0.2024 -0.4576 -0.4196
  766TIP3    H123713   6.434   4.483   4.859  0.2619 -0.0602 -0.9637
  766TIP3    H223714   6.386   4.339   4.846  0.9550 -0.4175  0.3181
  767TIP3   OH223715   1.331   6.220  16.444 -0.0626 -0.0085  0.0544
  767TIP3    H123716   1.381   6.235  16.364 -1.0562  0.7629 -0.4369
  767TIP3    H223717   1.319   6.307  16.482  1.6732 -0.4759  1.8773
  768TIP3   OH223718   4.109   0.931   2.849 -0.2202 -0.9965 -0.6679
  768TIP3    H123719   4.025   0.941   2.803 -0.4071  2.0390  0.1102
  768TIP3    H223720   4.084   0.904   2.938 -0.5078  0.8743 -0.1485
  769TIP3   OH223721   2.309   4.675  12.209  0.1216 -0.3619  0.5056
  769TIP3    H123722   2.287   4.588  12.176  0.2673  0.0875 -0.8543
  769TIP3    H223723   2.248   4.733  12.164  0.5270  0.3209  0.8219
  770TIP3   OH223724   5.893   1.898  15.563 -0.6173 -0.0419 -0.2896
  770TIP3    H123725   5.817   1.947  15.592  0.6395  1.3741  0.7341
  770TIP3    H223726   5.968   1.948  15.594  0.7503 -1.6166 -0.8828
  771TIP3   OH223727   2.184   1.030   5.741  0.2449  0.4646 -0.2322
  771TIP3    H123728   2.131   1.106   5.765  0.4097 -0.1046  2.1661
  771TIP3    H223729   2.156   0.962   5.802  2.7979 -0.2327  0.2712
  772TIP3   OH223730   4.289   4.287   2.724 -0.3775 -0.5758 -0.5189
  772TIP3    H123731   4.350   4.353   2.757  1.3025 -1.6929 -1.2715
  772TIP3    H223732   4.206   4.334   2.714  0.6566  1.3060 -0.6305
  773TIP3   OH223733   4.688   2.150  13.206  0.5437 -0.2121 -0.0854
  773TIP3    H123734   4.675   2.234  13.250 -1.3483  0.0291 -0.9891
  773TIP3    H223735   4.600   2.125  13.177  1.3252 -1.6758 -1.3230
  774TIP3   OH223736   2.432   6.344   2.028 -0.1119 -0.1112 -0.3710
  774TIP3    H123737   2.458   6.253   2.017  0.9046  0.2581 -1.1959
  774TIP3    H223738   2.474   6.390   1.955 -0.3446  1.0671  0.2102
  775TIP3   OH223739   5.450   5.732   3.139 -0.1841 -0.0242  0.1159
  775TIP3    H123740   5.384   5.673   3.102  0.4059 -0.4781 -0.2422
  775TIP3    H223741   5.403   5.812   3.159 -0.8305 -0.3248 -0.1833
  776TIP3   OH223742   5.339   5.948   5.910  0.2221  0.1377 -0.1133
  776TIP3    H123743   5.419   6.002   5.907 -0.1415  0.6729 -0.3888
  776TIP3    H223744   5.344   5.894   5.832 -0.2196  0.9606 -0.7262
  777TIP3   OH223745   4.258   2.740   5.026  1.3146 -0.4379 -0.3428
  777TIP3    H123746   4.298   2.780   4.949  0.6231  0.4055 -0.2809
  777TIP3    H223747   4.201   2.671   4.990  0.4211  0.4406 -0.6547
  778TIP3   OH223748   5.588   1.186  16.536  0.2153  0.2734  0.1564
  778TIP3    H123749   5.586   1.258  16.599 -0.9416  0.9595 -0.6323
  778TIP3    H223750   5.681   1.174  16.517  0.4146  1.8010  0.0422
  779TIP3   OH223751   6.223   0.628   2.744 -0.0206  0.2970  0.9251
  779TIP3    H123752   6.134   0.654   2.770  0.2875  0.7809  1.5318
  779TIP3    H223753   6.269   0.617   2.827  0.5700  0.3400  0.6031
  780TIP3   OH223754   2.376   5.797  10.709  0.3871  0.1593  0.7286
  780TIP3    H123755   2.411   5.883  10.732 -0.3832  0.9934 -1.0366
  780TIP3    H223756   2.376   5.749  10.792 -0.4011  2.2977  2.0765
  781TIP3   OH223757   1.852   5.606   2.786 -0.5037  0.6066 -0.7195
  781TIP3    H123758   1.793   5.640   2.718 -0.2048  3.2148  0.2175
  781TIP3    H223759   1.938   5.610   2.746 -0.5100  0.6382 -0.7301
  782TIP3   OH223760   6.459   5.219  10.868  0.2838  0.1465 -0.2297
  782TIP3    H123761   6.546   5.178  10.876  0.3690  0.4552  0.4315
  782TIP3    H223762   6.412   5.161  10.808  0.6209 -0.5685  0.1760
  783TIP3   OH223763   5.230   0.845  13.652  0.0188  0.2019 -0.1796
  783TIP3    H123764   5.223   0.933  13.617  0.5769  0.2857 -0.0976
  783TIP3    H223765   5.281   0.856  13.733  1.3868 -0.3714 -0.9279
  784TIP3   OH223766   6.035   0.408   4.766 -0.6386  0.1548  0.4327
  784TIP3    H123767   6.088   0.348   4.714  0.3368  1.0218  0.4003
  784TIP3    H223768   5.960   0.429   4.710 -0.8036 -0.7317  0.3052
  785TIP3   OH223769   6.543   0.707   1.551 -0.6143 -1.2666 -0.0982
  785TIP3    H123770   6.455   0.691   1.518 -0.4220  0.3684 -1.5401
  785TIP3    H223771   6.533   0.712   1.646 -2.0534 -1.1922 -0.2378
  786TIP3   OH223772   2.590   1.267   1.645  0.1813  0.8157 -0.0896
  786TIP3    H123773   2.565   1.209   1.717  1.2610 -0.5092 -0.7310
  786TIP3    H223774   2.686   1.264   1.644  0.1995  1.0585 -1.3727
  787TIP3   OH223775   6.354   1.287   5.176 -0.3143 -0.2063  0.0529
  787TIP3    H123776   6.416   1.246   5.236  1.8622  0.5539 -1.5585
  787TIP3    H223777   6.380   1.256   5.089 -2.2261  0.1582 -0.7136
  788TIP3   OH223778   0.217   6.438   4.646 -0.3200 -0.1281  0.1771
  788TIP3    H123779   0.166   6.358   4.658 -0.0466 -0.0895  1.6896
  788TIP3    H223780   0.162   6.507   4.682  0.4469  0.0235  1.0997
  789TIP3   OH223781   5.218   0.532  16.223 -0.4773  0.2525  0.6261
  789TIP3    H123782   5.148   0.507  16.163 -0.1352 -2.0924  1.0848
  789TIP3    H223783   5.175   0.534  16.309  0.2944 -3.3534  1.2450
  790TIP3   OH223784   4.742   4.326  11.607 -0.0885  0.4746  0.3184
  790TIP3    H123785   4.767   4.246  11.654  0.1823  0.6270  0.4310
  790TIP3    H223786   4.655   4.306  11.572  0.8715 -0.7287 -1.5788
  791TIP3   OH223787   1.548   3.586   0.615 -0.7438  0.3621  0.1524
  791TIP3    H123788   1.483   3.551   0.554 -0.7497  0.6487 -0.0044
  791TIP3    H223789   1.589   3.508   0.653 -0.3511  0.1813 -0.6246
  792TIP3   OH223790   6.543   3.940  16.979  0.5119 -0.1075 -0.0727
  792TIP3    H123791   6.619   3.919  16.925  0.8160 -0.7168  0.5767
  792TIP3    H223792   6.470   3.894  16.938  0.4426  0.6102 -0.7925
  793TIP3   OH223793   0.207   3.385   3.079 -0.2771  0.5803 -0.4721
  793TIP3    H123794   0.293   3.417   3.107  0.8188 -1.0720 -1.7719
  793TIP3    H223795   0.157   3.464   3.062  1.0299  1.5901  0.1540
  794TIP3   OH223796   6.624   2.231   0.193  0.3425 -0.2637 -0.3244
  794TIP3    H123797   6.568   2.154   0.205 -1.1301  1.0766  2.1808
  794TIP3    H223798   6.574   2.304   0.229  2.6910  1.4802 -0.3223
  795TIP3   OH223799   5.182   2.574  14.177  0.0875  0.6806  0.3111
  795TIP3    H123800   5.091   2.595  14.199  0.3500  1.3454  0.7862
  795TIP3    H223801   5.220   2.544  14.260  0.3474  0.5550  0.1479
  796TIP3   OH223802   3.454   4.837   4.940 -0.4566  0.3143 -0.4209
  796TIP3    H123803   3.461   4.925   4.903 -1.8734  0.7003  0.1618
  796TIP3    H223804   3.531   4.829   4.996 -0.7717  1.5659  0.2471
  797TIP3   OH223805   5.145   3.939  14.421  0.1231  0.1192 -0.4920
  797TIP3    H123806   5.210   3.927  14.490  0.0591 -2.2894 -0.7608
  797TIP3    H223807   5.170   4.021  14.378 -0.4623  2.2854  2.9526
  798TIP3   OH223808   1.790   3.159   4.114 -0.1797 -0.2087  0.2507
  798TIP3    H123809   1.753   3.072   4.126 -2.2119  0.5864  0.2441
  798TIP3    H223810   1.857   3.149   4.047 -0.4900 -1.7310  0.1431
  799TIP3   OH223811   3.472   2.132  15.928 -0.4929 -0.0783 -0.0731
  799TIP3    H123812   3.412   2.203  15.951 -0.9624 -0.7340  0.7511
  799TIP3    H223813   3.468   2.072  16.002 -1.3927 -1.8368 -1.4941
  800TIP3   OH223814   5.016   2.697  12.829  0.0755 -0.0956  0.4998
  800TIP3    H123815   5.051   2.752  12.899 -0.9459  0.6646  0.4398
  800TIP3    H223816   4.928   2.731  12.814  0.6557  0.5383 -1.9579
  801TIP3   OH223817   1.135   0.784   3.331 -0.5521  0.4953 -0.5412
  801TIP3    H123818   1.225   0.752   3.344 -0.2194  1.7428  0.3896
  801TIP3    H223819   1.081   0.725   3.384 -0.3656 -0.5620 -1.4813
  802TIP3   OH223820   0.837   2.086  13.702  0.2623 -0.0827  0.5640
  802TIP3    H123821   0.847   2.064  13.795  0.9388  1.4895  0.8983
  802TIP3    H223822   0.814   2.179  13.702 -2.7551 -0.7179 -0.7504
  803TIP3   OH223823   3.583   4.884   3.209 -0.0400 -0.1761 -0.2263
  803TIP3    H123824   3.599   4.790   3.196  0.2961 -0.2516  0.6212
  803TIP3    H223825   3.652   4.927   3.159 -1.4264 -0.3032 -2.3398
  804TIP3   OH223826   2.700   1.695   3.686  0.8031 -0.0865 -0.1250
  804TIP3    H123827   2.670   1.776   3.643 -0.1604  0.5931  1.7189
  804TIP3    H223828   2.764   1.725   3.751  0.4545 -0.8003  0.5539
  805TIP3   OH223829   3.146   6.342   2.135  0.4833 -0.5285 -0.2532
  805TIP3    H123830   3.209   6.270   2.136  0.3816 -0.6263 -0.6556
  805TIP3    H223831   3.175   6.398   2.062 -0.1936 -0.8422 -0.7716
  806TIP3   OH223832   3.732   4.244   2.491  0.1584  0.8059 -0.3332
  806TIP3    H123833   3.693   4.213   2.410 -1.6319 -3.6411  1.9122
  806TIP3    H223834   3.826   4.246   2.473 -0.2486  1.0312 -2.7623
  807TIP3   OH223835   4.176   2.539   4.551 -0.2849 -0.3565  0.0142
  807TIP3    H123836   4.139   2.454   4.525 -0.7976  0.1429 -0.9013
  807TIP3    H223837   4.241   2.516   4.618  1.1251 -1.6933 -1.7038
  808TIP3   OH223838   4.996   3.004  16.426 -0.1067 -0.2960 -0.2026
  808TIP3    H123839   4.925   2.954  16.387  0.8329 -1.9056  0.0695
  808TIP3    H223840   5.018   2.956  16.506  1.3200  0.1208 -0.3156
  809TIP3   OH223841   3.069   1.084  15.902  0.4541 -0.5535  0.1377
  809TIP3    H123842   3.160   1.091  15.929  0.7249  1.1748 -1.0707
  809TIP3    H223843   3.024   1.153  15.952  0.3474  0.4393 -1.2837
  810TIP3   OH223844   2.049   6.734   1.845  0.2090 -0.3722  0.2690
  810TIP3    H123845   2.142   6.711   1.855 -0.2164 -1.9000  1.0266
  810TIP3    H223846   2.004   6.677   1.907 -1.2176  0.5975  0.1537
  811TIP3   OH223847   5.157   0.660  11.769  0.2871 -0.4781  0.0425
  811TIP3    H123848   5.177   0.753  11.777  1.2286 -0.6167 -0.5068
  811TIP3    H223849   5.115   0.637  11.852  0.3859  0.3493  0.3283
  812TIP3   OH223850   3.403   3.210   3.382 -0.0191 -0.1508 -0.2044
  812TIP3    H123851   3.316   3.201   3.420  0.0292 -1.0808 -0.2893
  812TIP3    H223852   3.421   3.124   3.343  1.2145 -0.1901  0.4097
  813TIP3   OH223853   6.506   4.182  14.368 -0.1729  0.3700  0.2611
  813TIP3    H123854   6.545   4.096  14.351 -0.7252  0.1559  0.0402
  813TIP3    H223855   6.534   4.236  14.294 -1.9636 -0.3578 -1.0354
  814TIP3   OH223856   4.318   5.605  15.567 -0.2216  0.0844 -0.5213
  814TIP3    H123857   4.298   5.699  15.573  0.4142  0.1463  0.9646
  814TIP3    H223858   4.383   5.600  15.497 -2.1479  0.3929 -2.4319
  815TIP3   OH223859   6.214   1.469   3.476 -0.0973 -0.1104 -0.4219
  815TIP3    H123860   6.141   1.527   3.456  0.4337  1.0659  0.8329
  815TIP3    H223861   6.173   1.385   3.497 -1.0235  0.3017 -0.5305
  816TIP3   OH223862   6.643   0.040   1.225  0.7225 -0.0512  0.8600
  816TIP3    H123863   6.714   0.093   1.263  1.3987  0.1016 -0.5637
  816TIP3    H223864   6.674   0.018   1.137  0.2348 -2.4291  1.2388
  817TIP3   OH223865   4.900   1.886  11.878 -0.6155  0.3653 -0.1029
  817TIP3    H123866   4.957   1.859  11.806 -0.1676  1.7899 -0.3262
  817TIP3    H223867   4.843   1.811  11.894 -0.3382 -0.1836 -1.5578
  818TIP3   OH223868   5.311   2.049  11.519  0.4058  0.3029 -0.6826
  818TIP3    H123869   5.377   2.033  11.452  0.8364 -0.2740 -0.1324
  818TIP3    H223870   5.290   2.142  11.511  1.4110  0.5303 -0.7511
  819TIP3   OH223871   6.489   0.810   3.991 -0.1053 -0.1669  0.5205
  819TIP3    H123872   6.493   0.741   4.056 -0.1836 -0.9671 -0.2976
  819TIP3    H223873   6.549   0.782   3.922  0.5670  1.0334  0.5749
  820TIP3   OH223874   2.082   5.457  12.285  0.0693  0.0507  0.0445
  820TIP3    H123875   2.094   5.365  12.261 -1.2516 -0.1689  0.1776
  820TIP3    H223876   2.115   5.506  12.209 -0.4623 -0.5601 -0.5861
  821TIP3   OH223877   0.463   2.142  13.980  0.1321  0.1895 -0.3358
  821TIP3    H123878   0.442   2.176  14.067 -1.4250  0.1414 -0.6560
  821TIP3    H223879   0.436   2.211  13.920 -0.2290 -0.3782 -0.8404
  822TIP3   OH223880   0.658   2.393   3.685 -0.0561 -0.2538 -0.4353
  822TIP3    H123881   0.598   2.344   3.741 -1.4681  1.1907 -0.6257
  822TIP3    H223882   0.625   2.377   3.596 -0.9706  1.5291 -0.4576
  823TIP3   OH223883   2.724   1.016   5.980  0.2513 -0.2399 -0.0657
  823TIP3    H123884   2.767   1.087   6.028  0.4423  0.1892 -0.8626
  823TIP3    H223885   2.748   0.937   6.029  1.3174  0.0766 -0.0436
  824TIP3   OH223886   2.347   0.094  16.291 -1.0218 -0.0739 -0.1705
  824TIP3    H123887   2.378   0.059  16.207 -0.9764 -1.6193  0.4530
  824TIP3    H223888   2.419   0.078  16.352 -2.2572 -2.0097  0.8716
  825TIP3   OH223889   6.282   0.374   6.662  0.0336  0.2736  0.7100
  825TIP3    H123890   6.300   0.424   6.741 -0.9932  0.7140  0.6924
  825TIP3    H223891   6.246   0.439   6.601 -1.5338 -0.4945  0.7596
  826TIP3   OH223892   5.732   6.602  12.714 -0.2182 -0.5458  0.1404
  826TIP3    H123893   5.642   6.570  12.725 -0.9300  1.1755 -0.3518
  826TIP3    H223894   5.775   6.533  12.663 -1.2319 -1.4359  0.4457
  827TIP3   OH223895   5.669   3.610  15.996  0.1818  0.3062  0.4904
  827TIP3    H123896   5.760   3.600  16.025  0.4517  2.5445  0.5471
  827TIP3    H223897   5.619   3.614  16.077  0.0786 -0.3458  0.4679
  828TIP3   OH223898   3.469   4.668  14.275 -0.6997  0.0069  0.1546
  828TIP3    H123899   3.466   4.572  14.281  1.2353 -0.1223 -0.3637
  828TIP3    H223900   3.453   4.687  14.183  1.1427  0.0106 -0.1968
  829TIP3   OH223901   2.948   2.408  14.537 -0.0657 -0.6773 -0.0496
  829TIP3    H123902   2.989   2.370  14.615 -0.4997 -0.7757  0.1291
  829TIP3    H223903   2.929   2.332  14.481  1.5549 -0.5157 -0.9042
  830TIP3   OH223904   5.628   6.283  11.153  0.2104  0.0854 -0.6080
  830TIP3    H123905   5.675   6.327  11.082  0.5641  0.1386 -0.3459
  830TIP3    H223906   5.537   6.278  11.123  0.5953 -1.1447 -1.6682
  831TIP3   OH223907   6.467   0.461  16.988 -0.4811  0.2177 -0.0008
  831TIP3    H123908   6.514   0.495  17.065  0.5402  0.8279 -0.8668
  831TIP3    H223909   6.531   0.465  16.917 -0.8129 -2.0459 -0.5129
  832TIP3   OH223910   1.801   3.580   4.664  0.3273 -0.0176 -0.7272
  832TIP3    H123911   1.731   3.616   4.719  1.1999 -0.3891  0.6837
  832TIP3    H223912   1.829   3.501   4.711 -0.5123 -1.7454 -2.9637
  833TIP3   OH223913   4.489   5.786   0.626 -0.4107  1.2587 -0.2085
  833TIP3    H123914   4.579   5.767   0.602 -1.2989  0.7658 -3.7271
  833TIP3    H223915   4.489   5.879   0.650  0.9213  1.4356 -0.8041
  834TIP3   OH223916   2.598   1.273   5.970  0.0049 -0.6296  0.4225
  834TIP3    H123917   2.526   1.244   5.915  1.6140 -1.0207 -1.5943
  834TIP3    H223918   2.628   1.194   6.015  1.4487 -1.2778 -1.5548
  835TIP3   OH223919   0.552   4.349  10.848  0.4063 -0.4129 -0.1192
  835TIP3    H123920   0.521   4.269  10.891 -1.2512 -0.0114 -0.4740
  835TIP3    H223921   0.475   4.381  10.801  1.8057 -0.1671 -2.3711
  836TIP3   OH223922   4.568   2.495   0.090  0.0994 -0.0073  0.1020
  836TIP3    H123923   4.547   2.450   0.172 -0.9186 -0.4971 -0.4028
  836TIP3    H223924   4.622   2.434   0.041  1.2952  0.5615  0.6790
  837TIP3   OH223925   1.006   3.467   4.374 -0.0014  0.5657 -0.1315
  837TIP3    H123926   1.018   3.420   4.291 -0.1115  1.4439 -0.6599
  837TIP3    H223927   0.912   3.486   4.377 -0.0219  0.4072  0.2696
  838TIP3   OH223928   6.082   2.377  13.719  0.6989 -0.2083  0.2143
  838TIP3    H123929   6.010   2.336  13.766 -0.0473  1.1432  0.2810
  838TIP3    H223930   6.058   2.370  13.627  0.0415  0.9816  0.2731
  839TIP3   OH223931   1.103   2.762  16.420 -0.1881  0.2688 -0.0134
  839TIP3    H123932   1.010   2.782  16.408 -0.4466 -1.1086 -0.5516
  839TIP3    H223933   1.136   2.753  16.330  0.6880  1.6197  0.1521
  840TIP3   OH223934   2.498   5.245  16.056  0.4671 -0.7329 -0.5132
  840TIP3    H123935   2.520   5.307  16.126 -1.1503 -1.9301  1.1679
  840TIP3    H223936   2.505   5.296  15.976 -0.5408  1.5869  0.7728
  841TIP3   OH223937   3.319   1.042   1.281 -0.1093  0.4545 -0.4334
  841TIP3    H123938   3.326   0.951   1.250 -0.6690  0.5270 -0.7784
  841TIP3    H223939   3.364   1.042   1.366  0.4232 -0.0079 -0.7074
  842TIP3   OH223940   6.400   4.458   0.646 -0.0570  0.0893 -0.7306
  842TIP3    H123941   6.377   4.551   0.640  0.4424  0.1649 -1.7670
  842TIP3    H223942   6.466   4.454   0.715  0.5131  0.6326 -1.2345
  843TIP3   OH223943   6.186   0.666   4.076  0.4854 -0.7087 -0.2038
  843TIP3    H123944   6.280   0.650   4.062  1.1831  2.9117 -0.7082
  843TIP3    H223945   6.171   0.642   4.168  2.2253 -0.3045  0.2271
  844TIP3   OH223946   4.395   4.622   4.133  0.1162  0.4413 -0.8783
  844TIP3    H123947   4.412   4.681   4.207  1.3575 -0.7151 -0.1918
  844TIP3    H223948   4.480   4.612   4.091 -0.2681 -0.1400 -1.5277
  845TIP3   OH223949   5.157   6.412   5.470 -0.0140 -1.0845 -0.6529
  845TIP3    H123950   5.204   6.375   5.544 -2.4239 -0.4926  1.3158
  845TIP3    H223951   5.073   6.366   5.469 -2.2178  2.4954  0.5061
  846TIP3   OH223952   0.467   3.343  12.984  0.7326 -0.3385 -0.4217
  846TIP3    H123953   0.521   3.389  12.919  1.8970 -1.9169 -0.6370
  846TIP3    H223954   0.515   3.354  13.066 -0.6240  1.4675  0.1995
  847TIP3   OH223955   2.659   4.173   1.517  0.1599 -0.0030  0.2362
  847TIP3    H123956   2.627   4.171   1.427 -0.5797  0.2540  0.4875
  847TIP3    H223957   2.695   4.261   1.528  0.7342 -0.2077  0.0340
  848TIP3   OH223958   0.130   4.528  14.479  0.1911  0.1287  0.4277
  848TIP3    H123959   0.043   4.560  14.499 -0.0770 -0.3270  0.0154
  848TIP3    H223960   0.127   4.507  14.385  0.7195  0.0445  0.4258
  849TIP3   OH223961   6.749   1.052  16.801 -0.6856 -0.0146  0.3554
  849TIP3    H123962   6.737   1.146  16.809 -1.1188 -0.0463  0.1157
  849TIP3    H223963   6.789   1.040  16.715  1.4420  0.1136  1.2619
  850TIP3   OH223964   0.262   6.122  11.611 -0.4779  0.0008  0.0603
  850TIP3    H123965   0.278   6.080  11.526 -0.7004 -0.9910  0.4907
  850TIP3    H223966   0.305   6.064  11.674 -1.6399 -0.1231  0.7643
  851TIP3   OH223967   1.722   3.263   5.402  0.3485  0.1238 -0.5042
  851TIP3    H123968   1.815   3.285   5.400  0.7806 -1.4265  0.7167
  851TIP3    H223969   1.684   3.329   5.460  0.7516  0.5185 -0.6824
  852TIP3   OH223970   0.928   2.266   3.447  0.1691 -0.1919 -0.1337
  852TIP3    H123971   0.951   2.186   3.494 -1.2021 -0.0573  0.8588
  852TIP3    H223972   0.835   2.255   3.427  0.3924  0.3967 -1.5806
  853TIP3   OH223973   0.031   2.734  14.090 -0.2963 -0.2883  0.2142
  853TIP3    H123974  -0.058   2.732  14.124 -0.4438  1.3337  0.0061
  853TIP3    H223975   0.025   2.786  14.010  1.0011  0.7434  0.7474
  854TIP3   OH223976   3.566   3.220  15.012 -0.4344  0.0374  0.4298
  854TIP3    H123977   3.634   3.188  14.953 -1.5687 -3.4511  0.7882
  854TIP3    H223978   3.538   3.303  14.974  1.5111 -0.2146 -1.7448
  855TIP3   OH223979   0.461   2.010  11.460  0.0101  0.2876  0.7187
  855TIP3    H123980   0.548   2.001  11.499  1.5854  1.6617 -2.1052
  855TIP3    H223981   0.413   2.066  11.520  0.9665 -0.6723  2.4434
  856TIP3   OH223982   4.260   6.771   4.332  0.2075  0.0729  0.1805
  856TIP3    H123983   4.209   6.838   4.376  0.4816  0.2231  0.2736
  856TIP3    H223984   4.196   6.704   4.307 -0.3591  1.1225 -1.4123
  857TIP3   OH223985   0.529   0.814  11.170  0.4515 -0.0225 -0.4075
  857TIP3    H123986   0.551   0.907  11.173 -0.0196  0.0705  1.7163
  857TIP3    H223987   0.500   0.794  11.259  0.1709 -2.1160 -0.9342
  858TIP3   OH223988   3.672   2.144  16.910  0.1648  0.1613  0.4648
  858TIP3    H123989   3.638   2.083  16.976 -1.6602 -0.4672 -0.9602
  858TIP3    H223990   3.651   2.102  16.826  1.2327  1.5496 -0.5416
  859TIP3   OH223991   2.549   5.662   4.171  0.2355  0.2082 -0.1241
  859TIP3    H123992   2.530   5.700   4.086 -0.9414 -0.2816 -0.0966
  859TIP3    H223993   2.597   5.581   4.152  0.7568  0.5541 -0.2784
  860TIP3   OH223994   5.223   5.606   4.985 -0.2166  0.9103  0.3616
  860TIP3    H123995   5.214   5.539   4.917 -0.5976 -0.6602  1.8830
  860TIP3    H223996   5.148   5.664   4.971 -0.9438 -0.0594  0.1475
  861TIP3   OH223997   1.526   6.156   2.759  0.2242  0.0968  0.0667
  861TIP3    H123998   1.605   6.204   2.782 -0.2554  0.9642 -0.0273
  861TIP3    H223999   1.503   6.108   2.839  1.6867 -1.4271 -0.3651
  862TIP3   OH224000   1.783   6.442  13.615  0.3273  0.3633  0.1424
  862TIP3    H124001   1.755   6.357  13.581 -2.3753  0.5697  1.5488
  862TIP3    H224002   1.763   6.504  13.545 -1.6681  0.3230  0.6334
  863TIP3   OH224003   4.550   3.336  11.347 -0.3044  0.4365  0.2006
  863TIP3    H124004   4.497   3.299  11.277  0.0177 -1.3297  0.8278
  863TIP3    H224005   4.625   3.375  11.303 -1.1184  1.1572 -0.5568
  864TIP3   OH224006   2.464   4.214   6.104 -0.5471  0.2196 -1.0429
  864TIP3    H124007   2.396   4.274   6.071  0.9511  1.5715 -1.8216
  864TIP3    H224008   2.473   4.238   6.196 -1.8526 -0.7130 -0.6505
  865TIP3   OH224009   0.913   6.504  11.992 -0.2865 -0.4368 -0.3093
  865TIP3    H124010   0.972   6.524  11.919  0.2195  0.6263  0.3578
  865TIP3    H224011   0.900   6.409  11.986  1.3430 -0.6870 -0.6028
  866TIP3   OH224012   0.433   1.234  14.704  0.3901  0.6216  0.3833
  866TIP3    H124013   0.458   1.311  14.653  0.5000  1.0369  1.0564
  866TIP3    H224014   0.396   1.173  14.640  1.7504  0.5952 -0.4011
  867TIP3   OH224015   2.562   1.190   3.242 -0.2588 -0.1092  0.1897
  867TIP3    H124016   2.537   1.100   3.263  1.0187 -0.6739 -0.6086
  867TIP3    H224017   2.532   1.241   3.318  0.2748 -1.4072  1.3170
  868TIP3   OH224018   0.264   5.973   5.479  0.2471  0.5019  0.6084
  868TIP3    H124019   0.212   5.898   5.451  1.2842  0.0071 -0.0389
  868TIP3    H224020   0.344   5.935   5.515  0.4677  1.2764  0.9599
  869TIP3   OH224021   3.178   1.783   4.402 -0.4193 -0.2150 -0.3482
  869TIP3    H124022   3.181   1.736   4.485  1.4239  2.0771  1.0139
  869TIP3    H224023   3.123   1.859   4.419  1.7095  1.4355 -0.4909
  870TIP3   OH224024   6.509   1.194   4.360  0.1481 -0.6517 -0.1536
  870TIP3    H124025   6.575   1.237   4.415 -0.4128  0.0934 -0.0547
  870TIP3    H224026   6.529   1.101   4.367  2.0838 -0.3794 -1.2532
  871TIP3   OH224027   2.665   1.808  10.721 -0.5161 -0.0609  0.4938
  871TIP3    H124028   2.715   1.833  10.799 -0.1753 -1.2056  0.6511
  871TIP3    H224029   2.652   1.714  10.729  0.2090 -0.3402 -1.2290
  872TIP3   OH224030   5.235   2.785  14.002  0.3330  0.2805  0.2817
  872TIP3    H124031   5.236   2.870  14.045  0.7597 -0.4975  1.8644
  872TIP3    H224032   5.204   2.724  14.069  3.9470 -1.4715  0.5867
  873TIP3   OH224033   1.690   5.877  15.189 -0.1291 -0.1456 -0.3282
  873TIP3    H124034   1.722   5.848  15.275  1.3018 -1.8710 -1.3522
  873TIP3    H224035   1.684   5.972  15.196 -0.9873 -0.3056  1.9614
  874TIP3   OH224036   1.513   1.914   1.525  0.2330  0.2323  0.5329
  874TIP3    H124037   1.528   1.946   1.614  0.1670 -1.2710  1.1229
  874TIP3    H224038   1.544   1.985   1.469  2.3558  0.3633  1.7339
  875TIP3   OH224039   5.847   6.080  16.123  0.2083 -0.2897 -0.2627
  875TIP3    H124040   5.826   6.151  16.063  3.5550  0.9805 -0.1419
  875TIP3    H224041   5.936   6.053  16.098  0.9947 -1.0066  2.8696
  876TIP3   OH224042   6.751   4.485  16.519  0.3584 -0.3227 -0.1834
  876TIP3    H124043   6.815   4.555  16.508  0.6781 -0.2697  1.6073
  876TIP3    H224044   6.795   4.406  16.486  0.1446  0.2220 -1.8302
  877TIP3   OH224045   4.985   3.010  11.928  0.1960 -0.3325  0.1952
  877TIP3    H124046   4.934   3.090  11.940  3.4618  1.7752  1.2022
  877TIP3    H224047   5.011   3.012  11.836  2.2110  1.1454  0.7310
  878TIP3   OH224048   2.730   3.847  12.028  0.1418 -0.2172 -0.0973
  878TIP3    H124049   2.811   3.887  11.999 -1.8259  2.5488 -2.2310
  878TIP3    H224050   2.719   3.770  11.971  0.9514 -0.3056 -0.1460
  879TIP3   OH224051   0.406   3.189   3.965 -0.3528 -0.0105 -0.6677
  879TIP3    H124052   0.375   3.244   3.894 -1.7560 -0.0774 -0.1358
  879TIP3    H224053   0.400   3.244   4.043 -1.7814 -0.8663 -0.1276
  880TIP3   OH224054   3.798   2.125   1.837  0.3246  0.0639 -0.5644
  880TIP3    H124055   3.706   2.132   1.863  0.7302  1.3901  0.6345
  880TIP3    H224056   3.815   2.205   1.787  0.6027 -0.6123 -1.5921
  881TIP3   OH224057   5.087   4.771  11.012  0.0633  0.5902 -0.0573
  881TIP3    H124058   5.182   4.783  11.005  0.6585 -2.6580  0.8304
  881TIP3    H224059   5.058   4.757  10.921  0.8799 -0.7270 -0.1436
  882TIP3   OH224060   4.255   6.062   2.563  0.5354 -0.2852 -0.2406
  882TIP3    H124061   4.334   6.016   2.591  0.7271 -0.5443 -1.1743
  882TIP3    H224062   4.183   6.002   2.585  0.4567  0.4358  1.6838
  883TIP3   OH224063   0.396   1.338  12.147 -0.3670  0.1194  0.2721
  883TIP3    H124064   0.406   1.260  12.093  1.0928 -0.4385  1.3058
  883TIP3    H224065   0.310   1.372  12.123 -0.6168 -1.2444 -0.9107
  884TIP3   OH224066   0.061   1.198  15.009  0.5774  0.7945 -0.6273
  884TIP3    H124067   0.124   1.126  15.014 -0.1852  0.0911 -0.8734
  884TIP3    H224068   0.081   1.241  14.926 -0.7479 -0.8703 -1.8664
  885TIP3   OH224069   2.599   2.116  17.243  0.0413  0.0817 -0.3984
  885TIP3    H124070   2.526   2.166  17.279 -0.6174 -0.2504 -1.2247
  885TIP3    H224071   2.562   2.030  17.222  1.2893 -0.9870  1.5161
  886TIP3   OH224072   1.547   4.878   1.616  0.3198  0.4251 -0.5460
  886TIP3    H124073   1.557   4.958   1.565  0.0114 -0.5913 -2.2868
  886TIP3    H224074   1.637   4.844   1.625  0.4659  0.9985  0.3047
  887TIP3   OH224075   6.213   3.869   2.578  0.2115  0.6327  0.8712
  887TIP3    H124076   6.296   3.878   2.530  0.1854  0.1339  0.7321
  887TIP3    H224077   6.159   3.813   2.522  0.4878 -0.6816  1.8874
  888TIP3   OH224078   4.386   1.405   4.472  0.0977  0.0587  0.0155
  888TIP3    H124079   4.340   1.470   4.525  0.0710  0.3206 -0.3267
  888TIP3    H224080   4.376   1.435   4.382 -1.6088 -1.4599 -0.3551
  889TIP3   OH224081   6.368   1.214   2.816 -0.4821  0.2794 -0.2324
  889TIP3    H124082   6.308   1.222   2.890  0.5370  0.4238  0.6104
  889TIP3    H224083   6.365   1.122   2.792 -0.3842  0.1034  0.3963
  890TIP3   OH224084   1.922   4.997   5.171  0.3064  0.4828 -0.0327
  890TIP3    H124085   1.955   5.078   5.208 -1.2747  0.8519  0.6768
  890TIP3    H224086   1.996   4.959   5.124  1.6716  1.2542  1.4328
  891TIP3   OH224087   2.199   5.940  16.080  0.1018  0.0403  0.0778
  891TIP3    H124088   2.252   5.861  16.080  1.3947  0.8668 -1.1374
  891TIP3    H224089   2.163   5.944  16.169  0.0927 -1.8254  0.1924
  892TIP3   OH224090   6.333   3.096  16.792 -0.4524  0.9129 -0.2543
  892TIP3    H124091   6.395   3.168  16.805 -0.2053  0.6876 -0.1793
  892TIP3    H224092   6.375   3.038  16.730  0.7807 -0.7775  1.9927
  893TIP3   OH224093   1.437   2.513   0.680 -0.2272 -0.5952  0.6828
  893TIP3    H124094   1.460   2.600   0.714  0.7313 -0.5352 -0.0919
  893TIP3    H224095   1.357   2.490   0.727 -0.5634  0.7618  0.8189
  894TIP3   OH224096   3.200   3.320  15.284 -0.3152 -0.0072 -0.0553
  894TIP3    H124097   3.145   3.398  15.289 -0.5628 -0.2502  1.8118
  894TIP3    H224098   3.149   3.252  15.328  0.2277 -1.0292 -0.9541
  895TIP3   OH224099   2.915   3.861  10.899 -0.3806 -0.0868  0.3741
  895TIP3    H124100   2.987   3.894  10.953  0.8460 -0.7777 -0.7934
  895TIP3    H224101   2.874   3.939  10.863  0.3541  0.2945  0.3436
  896TIP3   OH224102   3.970   4.643  15.973 -0.7428  0.7268  0.4313
  896TIP3    H124103   3.951   4.628  15.881  0.6203  0.8611  0.1010
  896TIP3    H224104   3.988   4.556  16.009 -0.9346  0.7081  0.4793
  897TIP3   OH224105   1.999   5.385  16.022  0.4160 -0.1617  0.1252
  897TIP3    H124106   1.957   5.376  15.937  1.2425 -0.9929 -0.2182
  897TIP3    H224107   1.974   5.306  16.070 -1.4875  1.1064  1.3449
  898TIP3   OH224108   5.634   6.227   5.984  0.3041  0.5699 -0.2283
  898TIP3    H124109   5.697   6.232   6.056 -1.4560  1.2927  1.3170
  898TIP3    H224110   5.583   6.149   6.002 -0.3251  0.9065 -0.5358
  899TIP3   OH224111   6.393   1.432   4.864  0.1070 -0.6664 -0.2948
  899TIP3    H124112   6.371   1.481   4.943 -2.7190 -2.0512 -0.1053
  899TIP3    H224113   6.476   1.469   4.835 -0.2413  1.8882  1.6638
  900TIP3   OH224114   2.263   1.915  12.116 -0.4590  0.1246 -0.3835
  900TIP3    H124115   2.250   1.870  12.032  0.0015 -1.5108  0.3825
  900TIP3    H224116   2.178   1.909  12.159  0.2040 -2.3888  0.7768
  901TIP3   OH224117   6.727   5.381   0.987 -0.1290  0.1664 -0.1951
  901TIP3    H124118   6.650   5.338   0.950  0.8855 -1.3071 -0.7019
  901TIP3    H224119   6.703   5.399   1.078 -1.4044  0.6290 -0.6028
  902TIP3   OH224120   2.956   4.434   5.169  0.5370 -0.2555  0.1357
  902TIP3    H124121   2.887   4.379   5.132  0.8946  0.2733 -1.3820
  902TIP3    H224122   2.910   4.498   5.223 -0.0090 -0.9658  0.5357
  903TIP3   OH224123   6.658   6.107   4.516 -0.3213 -0.3552 -0.3916
  903TIP3    H124124   6.614   6.031   4.478 -0.7585  0.3090 -1.2266
  903TIP3    H224125   6.745   6.108   4.475  0.0356 -0.9165  0.3056
  904TIP3   OH224126   3.619   3.088  12.740  0.4181  0.4694 -0.3177
  904TIP3    H124127   3.546   3.121  12.687 -1.1513 -1.2175  0.6633
  904TIP3    H224128   3.682   3.055  12.676 -1.5336 -1.7443 -1.2231
  905TIP3   OH224129   0.013   1.127  11.786 -0.0600  0.2391  0.1633
  905TIP3    H124130   0.062   1.056  11.746 -1.1132 -0.8035  0.6899
  905TIP3    H224131   0.076   1.199  11.791  1.0150 -0.6325 -0.3952
  906TIP3   OH224132   5.112   0.757  15.629 -0.2237  0.0939 -0.4425
  906TIP3    H124133   5.126   0.820  15.700 -0.8812 -0.5291  0.2575
  906TIP3    H224134   5.182   0.693  15.639 -0.2676  0.0513 -0.4063
  907TIP3   OH224135   2.782   4.590   3.769  0.2219  0.6716 -0.6251
  907TIP3    H124136   2.805   4.566   3.858  1.0562 -0.4363 -1.1113
  907TIP3    H224137   2.689   4.613   3.774 -0.3133 -1.4305  0.1762
  908TIP3   OH224138   2.342   6.481  14.494  0.1826 -0.3473 -0.6367
  908TIP3    H124139   2.424   6.437  14.517  0.1839  0.1589  0.4052
  908TIP3    H224140   2.361   6.524  14.410  1.4960  1.0047  0.3064
  909TIP3   OH224141   4.115   2.013  12.445 -0.1384 -0.3189 -0.6480
  909TIP3    H124142   4.134   2.084  12.384 -1.3748 -0.1054 -0.8044
  909TIP3    H224143   4.195   1.960  12.446 -0.0922 -0.3438 -2.4699
  910TIP3   OH224144   0.870   1.359   2.425 -0.0985  0.7308  0.0853
  910TIP3    H124145   0.888   1.363   2.519 -0.8725 -1.5550  0.4163
  910TIP3    H224146   0.952   1.329   2.386  0.0325  1.0529  0.1102
  911TIP3   OH224147   5.988   2.617   0.265  0.3939 -0.2782 -0.0369
  911TIP3    H124148   5.949   2.540   0.224 -0.6059  0.4738 -0.5540
  911TIP3    H224149   6.053   2.648   0.202  1.0286 -0.8901  0.3195
  912TIP3   OH224150   1.582   6.282   6.075  0.4871 -0.2219 -0.0523
  912TIP3    H124151   1.562   6.230   6.152  2.5939 -0.3075  0.4974
  912TIP3    H224152   1.577   6.220   6.002  2.2319 -1.0920  0.5063
  913TIP3   OH224153   1.605   0.062  10.831 -0.1182  0.3999 -0.3494
  913TIP3    H124154   1.683   0.057  10.776 -0.2983  0.2987 -0.5980
  913TIP3    H224155   1.638   0.089  10.916  0.5478 -2.0068  0.2450
  914TIP3   OH224156   0.088   3.729   2.568  0.3079  0.1850 -0.1735
  914TIP3    H124157   0.138   3.702   2.491  0.5535 -0.2981  0.1507
  914TIP3    H224158   0.032   3.654   2.588 -0.0279  0.4505 -0.1010
  915TIP3   OH224159   3.176   0.602  11.746  0.6113 -0.0843  0.5920
  915TIP3    H124160   3.212   0.663  11.811 -1.4896  0.5975  1.1879
  915TIP3    H224161   3.097   0.566  11.787 -0.3171 -0.2872 -1.2516
  916TIP3   OH224162   6.092   1.939  14.353  0.5165 -0.5116  0.4751
  916TIP3    H124163   6.082   1.937  14.258  3.0703  0.8198  0.0852
  916TIP3    H224164   6.074   1.850  14.381  1.0623 -1.2782 -1.4434
  917TIP3   OH224165   4.855   1.319  11.771  0.1380  0.5220 -0.2448
  917TIP3    H124166   4.764   1.323  11.799  0.0553 -1.6446  0.0062
  917TIP3    H224167   4.850   1.306  11.676  0.2490  1.7973 -0.4393
  918TIP3   OH224168   6.195   4.019   5.575 -0.2207 -0.1624  0.0886
  918TIP3    H124169   6.271   4.029   5.632  0.9255 -0.9308 -1.2398
  918TIP3    H224170   6.229   4.039   5.487 -1.6423 -0.1855 -0.4905
  919TIP3   OH224171   2.130   6.772   3.646  0.4953 -0.3478  0.1116
  919TIP3    H124172   2.107   6.863   3.629  0.6564 -0.4518 -0.7206
  919TIP3    H224173   2.129   6.764   3.741  1.1872  0.6999  0.2230
  920TIP3   OH224174   6.152   0.882   4.945 -0.0821 -0.4890 -0.2970
  920TIP3    H124175   6.141   0.948   4.877  1.6107 -0.4176 -0.5233
  920TIP3    H224176   6.109   0.919   5.022 -1.7778 -0.4543 -1.2110
  921TIP3   OH224177   0.035   2.803  13.403  0.3280  0.2483 -0.1615
  921TIP3    H124178  -0.038   2.759  13.360  1.7060 -0.4020 -1.9548
  921TIP3    H224179   0.089   2.732  13.437 -0.2649  0.7353  1.9833
  922TIP3   OH224180   5.251   5.542   1.981  0.0100 -0.2351 -0.5486
  922TIP3    H124181   5.223   5.629   1.953  0.4159 -0.3968 -1.5088
  922TIP3    H224182   5.293   5.556   2.066  1.0336  0.6802 -1.1757
  923TIP3   OH224183   0.401   6.716   4.328  0.4130 -0.0928  0.4006
  923TIP3    H124184   0.379   6.699   4.236  1.5190 -0.8664  0.2561
  923TIP3    H224185   0.486   6.759   4.325  0.6213 -0.4422  1.0741
  924TIP3   OH224186   2.957   4.882  14.427  0.4379  0.5237 -0.7962
  924TIP3    H124187   3.028   4.824  14.456 -0.3382 -0.3956 -0.7035
  924TIP3    H224188   2.904   4.828  14.368  0.5585  1.6065 -1.9399
  925TIP3   OH224189   6.414   1.368   3.292 -0.1027  0.4426 -0.5027
  925TIP3    H124190   6.370   1.441   3.336  0.5446  1.0072 -0.7659
  925TIP3    H224191   6.498   1.405   3.264  0.8305 -0.7668  0.5612
  926TIP3   OH224192   2.468   1.064   4.809  0.1388  0.4823  0.1568
  926TIP3    H124193   2.419   1.021   4.880 -0.5930 -0.4561 -0.8913
  926TIP3    H224194   2.438   1.155   4.812 -1.3823  0.0241 -0.1664
  927TIP3   OH224195   3.371   0.893   4.508 -0.2467  0.3120  0.2514
  927TIP3    H124196   3.437   0.865   4.444 -0.9504 -1.1898  0.1527
  927TIP3    H224197   3.388   0.839   4.585 -1.5466 -0.3265  0.1122
  928TIP3   OH224198   0.299   2.408   3.474  0.3198  0.1374  0.4497
  928TIP3    H124199   0.228   2.361   3.431  2.1347 -0.4319 -2.2042
  928TIP3    H224200   0.315   2.484   3.418  1.8003  0.2299  0.9504
  929TIP3   OH224201   2.037   3.829  12.835 -0.4330 -0.2930  0.2571
  929TIP3    H124202   2.120   3.861  12.870 -0.6836  0.5338  0.0970
  929TIP3    H224203   2.056   3.806  12.744 -0.4449  0.1741  0.1340
  930TIP3   OH224204   3.371   1.699   1.441 -0.0932  0.4312  0.0013
  930TIP3    H124205   3.381   1.711   1.346 -0.9706  2.1983  0.0885
  930TIP3    H224206   3.276   1.698   1.456 -0.0073 -1.5877  0.7069
  931TIP3   OH224207   3.095   6.685  17.237 -0.5272  0.6765 -0.4716
  931TIP3    H124208   3.152   6.718  17.306  1.0647  0.2948 -1.5458
  931TIP3    H224209   3.019   6.743  17.239 -0.7254  0.4220  1.8439
  932TIP3   OH224210   2.827   0.736  17.230 -0.0640 -0.2408 -0.1169
  932TIP3    H124211   2.921   0.725  17.213 -0.1203 -0.0912 -0.5331
  932TIP3    H224212   2.813   0.831  17.227 -0.0788 -0.2044  0.7781
  933TIP3   OH224213   1.320   0.313  14.646  0.7010  0.1083  0.4757
  933TIP3    H124214   1.399   0.316  14.592  0.0755  0.1614 -0.4677
  933TIP3    H224215   1.254   0.358  14.593 -0.7292 -2.4066 -0.0619
  934TIP3   OH224216   1.600   6.388  16.823 -0.1774  0.3785 -0.1267
  934TIP3    H124217   1.637   6.366  16.909  2.1677 -0.5693 -1.2756
  934TIP3    H224218   1.562   6.307  16.791  1.1580  0.0335 -0.9468
  935TIP3   OH224219   4.051   4.213  11.983  0.0243  0.7247  0.2013
  935TIP3    H124220   3.960   4.241  11.990  0.2110  1.3423  0.1959
  935TIP3    H224221   4.100   4.293  11.968  0.7724  0.6085  1.8976
  936TIP3   OH224222   5.204   3.291  14.386 -0.0680  0.2675 -0.1691
  936TIP3    H124223   5.296   3.316  14.376 -0.1130  0.4379 -0.1649
  936TIP3    H224224   5.162   3.321  14.306 -0.2178  0.6500  0.0502
  937TIP3   OH224225   2.668   4.583  13.938 -0.2623 -0.0430 -0.5308
  937TIP3    H124226   2.682   4.491  13.913  0.2517 -0.1197  0.0262
  937TIP3    H224227   2.733   4.599  14.007  0.9904  1.3198 -1.9617
  938TIP3   OH224228   2.533   0.924   0.156 -0.3343  0.3253 -0.2133
  938TIP3    H124229   2.471   0.868   0.109 -0.7727  0.8107 -0.2227
  938TIP3    H224230   2.487   1.008   0.165  0.0726  0.4898  0.3517
  939TIP3   OH224231   3.389   4.164  11.282 -0.5704  0.1644 -0.2328
  939TIP3    H124232   3.310   4.194  11.327  0.2525  1.3806  0.4715
  939TIP3    H224233   3.358   4.099  11.219 -2.0472  0.1579  0.4595
  940TIP3   OH224234   0.603   4.750  15.859  0.5913  0.6075 -0.7002
  940TIP3    H124235   0.551   4.787  15.788 -1.4015 -1.6226 -0.5389
  940TIP3    H224236   0.671   4.699  15.815  1.5497  2.0337 -0.9277
  941TIP3   OH224237   1.511   0.381  13.821 -0.2051  0.1946  0.3269
  941TIP3    H124238   1.528   0.290  13.843 -0.5757 -0.3364 -1.4303
  941TIP3    H224239   1.415   0.388  13.819 -0.2038  0.1033 -1.4099
  942TIP3   OH224240   1.620   4.496  14.870 -0.3401 -0.3110  0.8492
  942TIP3    H124241   1.700   4.499  14.922 -0.0350  0.7310  0.3431
  942TIP3    H224242   1.550   4.486  14.934  0.1195 -0.2447  1.3652
  943TIP3   OH224243   1.321   1.240   0.479  0.2141  0.2361  0.1098
  943TIP3    H124244   1.255   1.200   0.535 -0.2865 -0.1237 -0.7137
  943TIP3    H224245   1.404   1.215   0.519 -0.1358  0.3348  0.9166
  944TIP3   OH224246   1.342   0.311  16.707  0.2597 -0.1601 -0.0893
  944TIP3    H124247   1.364   0.297  16.800  0.8557  0.5406 -0.1129
  944TIP3    H224248   1.426   0.301  16.662  0.0654  0.0295 -0.4900
  945TIP3   OH224249   1.518   6.697  12.794 -0.6556 -0.0535 -0.3436
  945TIP3    H124250   1.551   6.785  12.779 -0.5386  0.5770  2.9381
  945TIP3    H224251   1.425   6.702  12.771 -0.6709  0.9467 -0.0910
  946TIP3   OH224252   3.237   0.249  17.169  0.4768  0.3451 -0.7628
  946TIP3    H124253   3.190   0.171  17.198  0.1976  0.8135  0.0821
  946TIP3    H224254   3.328   0.231  17.191  0.0587  1.4409  2.2343
  947TIP3   OH224255   5.813   5.227  15.217  0.3281  0.5276 -0.6280
  947TIP3    H124256   5.814   5.279  15.298 -3.0576 -0.0322 -0.1021
  947TIP3    H224257   5.832   5.290  15.148  0.1560  1.6844  0.3442
  948TIP3   OH224258   1.979   4.239   4.738  0.6753 -0.3694 -0.1223
  948TIP3    H124259   1.933   4.261   4.657  0.9580  0.2185 -0.1296
  948TIP3    H224260   1.916   4.257   4.807  1.0517  1.0013 -0.0913
  949TIP3   OH224261   4.784   5.529   2.432  0.0880  0.3625  0.1098
  949TIP3    H124262   4.703   5.488   2.464  0.1825  1.6268  2.2307
  949TIP3    H224263   4.759   5.620   2.417  0.9159  0.5613 -0.0918
  950TIP3   OH224264   1.896   3.843   0.169 -0.2083  0.0632 -0.0308
  950TIP3    H124265   1.956   3.770   0.188 -0.0476 -0.1863 -1.4140
  950TIP3    H224266   1.913   3.906   0.239 -0.4767 -1.2755  1.3074
  951TIP3   OH224267   4.149   0.186   0.866 -0.0590  0.9830  0.1459
  951TIP3    H124268   4.083   0.218   0.805  0.3754  1.4197 -0.1024
  951TIP3    H224269   4.204   0.128   0.812 -0.4685  0.3019  0.4440
  952TIP3   OH224270   4.976   4.741   4.422  0.1445  0.2738 -0.3609
  952TIP3    H124271   5.005   4.806   4.486 -1.3137 -0.5518  1.2060
  952TIP3    H224272   4.882   4.736   4.433 -0.0275 -0.6315 -1.9006
  953TIP3   OH224273   4.170   5.883  16.658  0.0091  0.2239 -0.0843
  953TIP3    H124274   4.230   5.824  16.611 -1.4223 -1.9680  0.6891
  953TIP3    H224275   4.162   5.959  16.600  2.6875  0.1786 -0.6855
  954TIP3   OH224276   1.171   3.424   5.328  0.1273 -0.1598 -1.0238
  954TIP3    H124277   1.240   3.401   5.390 -0.2297  1.9449  0.2408
  954TIP3    H224278   1.116   3.346   5.324  0.9620 -0.8493  0.2217
  955TIP3   OH224279   4.485   0.544   1.213  0.2112 -0.6180 -0.2007
  955TIP3    H124280   4.527   0.494   1.282  0.5270  2.0729  1.7278
  955TIP3    H224281   4.404   0.497   1.194  0.3669 -1.7116  1.6507
  956TIP3   OH224282   2.152   5.124   3.879 -0.0012 -0.3101 -0.5054
  956TIP3    H124283   2.070   5.080   3.900  0.1123 -0.2971 -0.0134
  956TIP3    H224284   2.157   5.197   3.941 -0.7951  1.1957 -2.1220
  957TIP3   OH224285   5.730   4.096  12.895  0.6123  0.1145  0.3355
  957TIP3    H124286   5.679   4.038  12.951  0.7951  1.0668  1.5251
  957TIP3    H224287   5.716   4.062  12.807  0.0378 -1.2095  0.9101
  958TIP3   OH224288   1.382   3.654   2.216 -0.5505 -0.1634 -0.0549
  958TIP3    H124289   1.288   3.669   2.212 -0.4982  0.8268  1.5977
  958TIP3    H224290   1.418   3.710   2.147 -1.1242 -0.2842 -0.4656
  959TIP3   OH224291   0.272   2.131  15.072  0.0732  0.3290 -0.5006
  959TIP3    H124292   0.224   2.191  15.128  0.6002  0.2957 -0.0062
  959TIP3    H224293   0.277   2.050  15.123  0.4237  0.2518 -0.6557
  960TIP3   OH224294   5.228   2.294  13.755 -0.1276 -0.3663 -0.2036
  960TIP3    H124295   5.302   2.240  13.783 -0.5726 -0.6322  0.4940
  960TIP3    H224296   5.195   2.332  13.836  0.0814  0.8505 -0.6578
  961TIP3   OH224297   1.407   6.010  11.200 -0.7627 -0.2198  0.1318
  961TIP3    H124298   1.477   6.075  11.196  0.3173 -1.3696 -0.6107
  961TIP3    H224299   1.348   6.042  11.268  0.6593  0.6399  1.0225
  962TIP3   OH224300   3.967   1.323   2.449  0.0229  0.0822 -0.8530
  962TIP3    H124301   4.038   1.259   2.456  0.4874  0.5299 -1.3418
  962TIP3    H224302   3.890   1.271   2.425 -0.2440 -0.6367  1.3742
  963TIP3   OH224303   1.547   3.705   5.129 -0.1251  0.1190  0.5320
  963TIP3    H124304   1.498   3.706   5.211  0.5124  2.2555  0.9664
  963TIP3    H224305   1.631   3.745   5.152  0.1684  0.5020 -1.1032
  964TIP3   OH224306   4.617   4.239  11.109  0.2376 -0.1637 -0.3106
  964TIP3    H124307   4.698   4.271  11.071  1.1501 -1.1627  0.7220
  964TIP3    H224308   4.610   4.285  11.192  0.4989 -1.0918  0.2448
  965TIP3   OH224309   2.408   5.748   1.289 -0.0198  0.0906  0.0455
  965TIP3    H124310   2.453   5.759   1.373 -0.4172 -0.9192  0.4138
  965TIP3    H224311   2.449   5.670   1.250 -0.5290 -0.0498 -0.2205
  966TIP3   OH224312   0.802   2.331   4.807  0.5620  0.1809  0.7343
  966TIP3    H124313   0.799   2.290   4.720  0.4146  1.1864  0.2536
  966TIP3    H224314   0.895   2.344   4.824  0.5800  0.2450  0.5936
  967TIP3   OH224315   0.058   6.309  16.131  0.1616  0.1700  0.1017
  967TIP3    H124316  -0.025   6.347  16.102  0.1838 -1.3324 -2.2589
  967TIP3    H224317   0.034   6.224  16.168  0.5185  0.3525  0.7620
  968TIP3   OH224318   5.025   6.532  15.160 -0.0232 -0.2503 -0.4994
  968TIP3    H124319   5.119   6.524  15.177 -0.4878 -0.1607  2.7453
  968TIP3    H224320   4.986   6.463  15.213 -1.9680  1.7944  0.8976
  969TIP3   OH224321   1.975   6.298   4.514 -0.0919  0.8139  0.3184
  969TIP3    H124322   2.050   6.245   4.486 -2.4653 -1.7607 -1.8652
  969TIP3    H224323   1.984   6.379   4.464  0.9091  0.3033 -0.3826
  970TIP3   OH224324   3.907   5.369   2.389  0.2912 -0.4508  0.4915
  970TIP3    H124325   3.972   5.407   2.330  0.1404  0.3585  0.8357
  970TIP3    H224326   3.954   5.356   2.471 -0.3470  1.6124  1.2402
  971TIP3   OH224327   5.818   1.995  14.593 -0.0622 -0.2637 -0.0635
  971TIP3    H124328   5.890   2.051  14.566 -0.0356 -0.5800 -0.6576
  971TIP3    H224329   5.831   1.913  14.545 -1.4707  0.0860 -1.0942
  972TIP3   OH224330   5.069   4.445  16.284 -0.3468 -0.4073 -0.1457
  972TIP3    H124331   5.148   4.494  16.307 -0.6261  0.2903 -0.6228
  972TIP3    H224332   5.046   4.476  16.196 -0.9460 -0.8637 -0.1600
  973TIP3   OH224333   5.433   1.011   0.634 -0.5283  0.3957  0.0152
  973TIP3    H124334   5.398   1.086   0.586  0.4020  0.0673 -1.2420
  973TIP3    H224335   5.441   1.042   0.724  1.0136  2.2787 -0.6803
  974TIP3   OH224336   5.185   5.366   4.088 -0.4501 -0.3352  0.8612
  974TIP3    H124337   5.262   5.414   4.057 -1.6448  1.7839  0.9799
  974TIP3    H224338   5.137   5.429   4.140 -1.3773 -2.1624  2.3470
  975TIP3   OH224339   6.004   5.917  16.862  0.2094  0.2998 -0.1849
  975TIP3    H124340   6.019   5.832  16.820 -2.7035 -1.9548  2.8237
  975TIP3    H224341   5.910   5.933  16.850  0.6233  3.0300 -0.3898
  976TIP3   OH224342   0.410   5.506   0.129  0.6046  0.4329 -0.1911
  976TIP3    H124343   0.411   5.443   0.200 -0.2858 -1.1556 -1.5126
  976TIP3    H224344   0.433   5.590   0.170 -0.2509 -0.3427  2.0023
  977TIP3   OH224345   2.435   5.717  12.707 -0.2986  0.4946  0.0937
  977TIP3    H124346   2.472   5.659  12.773 -1.5667  1.1979  1.4529
  977TIP3    H224347   2.362   5.668  12.670 -0.1142  0.4384 -0.2023
  978TIP3   OH224348   1.914   5.786  17.001 -0.2195  0.7862  0.0334
  978TIP3    H124349   1.885   5.878  16.999  0.2851  0.9527  0.1893
  978TIP3    H224350   1.834   5.736  17.021 -0.0305  1.4095  2.7795
  979TIP3   OH224351   1.130   5.056  11.781  0.1647 -0.1118 -0.1356
  979TIP3    H124352   1.190   5.130  11.767  0.1334 -0.1430 -0.4616
  979TIP3    H224353   1.172   5.003  11.848 -0.8037  1.2611  1.6365
  980TIP3   OH224354   5.058   0.230   2.640  0.0169 -0.6050 -0.3109
  980TIP3    H124355   5.078   0.144   2.677 -2.2252 -1.5062 -1.0192
  980TIP3    H224356   5.008   0.275   2.708  0.1983 -0.3128 -0.3693
  981TIP3   OH224357   5.504   3.549  10.910  0.3590  0.1176  0.4338
  981TIP3    H124358   5.571   3.617  10.919 -0.2574  0.9487 -0.9731
  981TIP3    H224359   5.547   3.481  10.859  0.0811  0.7718 -0.7094
  982TIP3   OH224360   2.088   1.805   6.648  0.0673  0.1810 -0.2087
  982TIP3    H124361   2.029   1.840   6.581 -2.8722  0.2870  2.2138
  982TIP3    H224362   2.088   1.711   6.634 -1.3299  0.1061  0.1947
  983TIP3   OH224363   6.562   3.167   1.835 -0.0173 -0.0479  0.3842
  983TIP3    H124364   6.573   3.260   1.856  0.7179  0.5970 -2.4704
  983TIP3    H224365   6.651   3.132   1.831 -0.1768 -0.3558 -0.6251
  984TIP3   OH224366   2.297   3.571   0.399  0.1755  0.5835  0.4100
  984TIP3    H124367   2.250   3.487   0.397 -1.1472  1.2797 -2.3533
  984TIP3    H224368   2.364   3.562   0.331 -0.3203  1.9272 -0.2774
  985TIP3   OH224369   0.209   0.249  13.171 -0.2286  0.1893 -0.1069
  985TIP3    H124370   0.254   0.177  13.214 -1.7671  0.2691  1.7330
  985TIP3    H224371   0.257   0.327  13.198 -1.2748  0.2584  1.7087
  986TIP3   OH224372   5.264   4.489   1.881  0.5201 -0.2760  0.3439
  986TIP3    H124373   5.245   4.509   1.973 -2.5149  1.6787 -0.5751
  986TIP3    H224374   5.348   4.531   1.864  0.1708  1.0886  1.7419
  987TIP3   OH224375   2.118   2.378   2.914 -0.0321 -0.3256  0.2815
  987TIP3    H124376   2.094   2.288   2.938  1.1702 -0.4849  0.9267
  987TIP3    H224377   2.078   2.391   2.828 -0.6192 -1.3053  0.3880
  988TIP3   OH224378   2.409   0.745  13.209 -0.0446 -0.2204 -0.6746
  988TIP3    H124379   2.316   0.733  13.195 -0.3278 -1.0273  1.5400
  988TIP3    H224380   2.451   0.699  13.136 -1.3459 -1.4832 -0.6595
  989TIP3   OH224381   6.245   1.531  16.336 -0.3556  0.4191  0.5016
  989TIP3    H124382   6.206   1.615  16.309 -0.5632  0.0217 -0.4960
  989TIP3    H224383   6.171   1.479  16.367 -0.0652  1.0137  2.3030
  990TIP3   OH224384   2.959   0.013   2.046 -0.3961 -0.3275 -0.1937
  990TIP3    H124385   2.956  -0.060   2.108  0.5144 -1.2367 -1.1861
  990TIP3    H224386   3.003  -0.022   1.969  0.4748  1.3862 -0.5382
  991TIP3   OH224387   6.449   4.114   1.281 -0.1212  0.1272  0.0639
  991TIP3    H124388   6.468   4.027   1.244 -0.6234 -0.0535  0.2295
  991TIP3    H224389   6.355   4.124   1.271 -0.0326  0.7530 -0.1624
  992TIP3   OH224390   3.596   3.847  16.779 -0.7386 -0.6027  0.1594
  992TIP3    H124391   3.547   3.796  16.842  0.6335  0.7321  2.4525
  992TIP3    H224392   3.614   3.930  16.824  0.2865  0.4461 -2.0122
  993TIP3   OH224393   1.713   6.622  16.299 -0.1167  0.3076 -0.0476
  993TIP3    H124394   1.651   6.678  16.252 -0.7553 -1.0498 -0.8863
  993TIP3    H224395   1.712   6.540  16.251  1.9171  0.0420  0.2715
  994TIP3   OH224396   1.098   1.899   6.522  0.1737 -0.0531  0.6286
  994TIP3    H124397   1.169   1.936   6.574 -1.6299  1.9380  1.8301
  994TIP3    H224398   1.080   1.815   6.564 -1.2898  1.5350  3.4728
  995TIP3   OH224399   4.197   4.696   4.699  0.3850  0.0913 -0.2573
  995TIP3    H124400   4.214   4.604   4.722 -1.9222 -0.4551 -0.4757
  995TIP3    H224401   4.109   4.713   4.733  0.2854  1.8632 -1.2781
  996TIP3   OH224402   6.378   4.487   1.759 -0.0808  0.4722  0.0197
  996TIP3    H124403   6.363   4.488   1.665 -0.3742 -0.0173  0.0609
  996TIP3    H224404   6.382   4.395   1.782 -2.1754  0.5219  0.8208
  997TIP3   OH224405   4.305   0.724   2.072  0.5857 -0.5151 -0.0234
  997TIP3    H124406   4.366   0.749   2.141 -1.2641  1.4903  0.9926
  997TIP3    H224407   4.307   0.796   2.009 -1.8295  0.4402  0.8575
  998TIP3   OH224408   6.584   1.419  11.408  0.1093 -0.3487 -0.0731
  998TIP3    H124409   6.648   1.479  11.371 -0.6731  1.9527  2.0399
  998TIP3    H224410   6.513   1.416  11.343  0.4332  0.5525 -0.4729
  999TIP3   OH224411   0.513   0.518   2.254  0.4276  0.1493 -0.2532
  999TIP3    H124412   0.575   0.474   2.311  0.6115  1.8846  0.9439
  999TIP3    H224413   0.562   0.591   2.217  0.1103 -0.5283 -2.1524
 1000TIP3   OH224414   0.255   1.723  13.200  0.1566 -0.2832  0.2097
 1000TIP3    H124415   0.257   1.802  13.146 -1.1967 -0.0178  0.5173
 1000TIP3    H224416   0.230   1.753  13.287 -0.3505 -1.0412  0.3389
 1001TIP3   OH224417   1.781   5.001   0.983 -0.2912  1.1488 -0.5411
 1001TIP3    H124418   1.820   5.061   0.920  1.4971  1.2279  0.5614
 1001TIP3    H224419   1.693   4.985   0.950  0.0301  2.4528 -2.1596
 1002TIP3   OH224420   5.863   6.482   2.407 -0.2285  0.1844  0.2233
 1002TIP3    H124421   5.770   6.502   2.401 -0.0129  1.3559  0.4518
 1002TIP3    H224422   5.867   6.387   2.418 -1.4358  0.2229  1.1904
 1003TIP3   OH224423   4.691   3.803  16.524 -0.1697 -0.2183 -0.3914
 1003TIP3    H124424   4.721   3.812  16.433  1.1492 -0.6832 -0.0146
 1003TIP3    H224425   4.767   3.772  16.572 -0.4575  1.2751  1.1473
 1004TIP3   OH224426   2.977   3.735   5.933  0.2973 -0.3918  0.3790
 1004TIP3    H124427   3.009   3.748   6.022 -0.5404 -0.0826  0.6400
 1004TIP3    H224428   3.031   3.793   5.880 -0.3013  0.6766  0.9130
 1005TIP3   OH224429   0.995   3.525   3.436 -0.1959 -0.1255 -0.5709
 1005TIP3    H124430   1.075   3.576   3.451 -0.1021  0.1449 -1.8671
 1005TIP3    H224431   1.002   3.497   3.344 -0.5732 -1.9032 -0.1057
 1006TIP3   OH224432   3.713   5.587   2.500  0.4676 -0.6062 -0.2441
 1006TIP3    H124433   3.643   5.534   2.460 -0.2154 -0.3767  0.6275
 1006TIP3    H224434   3.748   5.531   2.570 -0.2098  0.0482  0.6339
 1007TIP3   OH224435   1.671   2.715   4.397 -0.6046 -0.1568  0.1935
 1007TIP3    H124436   1.593   2.759   4.364 -0.0333  2.1651  1.6407
 1007TIP3    H224437   1.694   2.652   4.330 -2.4541  0.6562 -1.2869
 1008TIP3   OH224438   3.056   2.191   0.172  0.2441  0.4723 -0.1182
 1008TIP3    H124439   3.091   2.214   0.087  0.2052 -1.0000 -0.5618
 1008TIP3    H224440   2.964   2.171   0.156  0.4146 -0.5618  0.1088
 1009TIP3   OH224441   4.876   0.996   1.073 -0.7111 -0.1709 -0.7147
 1009TIP3    H124442   4.864   0.919   1.017 -0.5148 -0.1650 -0.7637
 1009TIP3    H224443   4.970   1.006   1.081 -0.7140  0.5738 -1.4290
 1010TIP3   OH224444   4.232   2.821   0.367  0.2593  0.3899 -0.0015
 1010TIP3    H124445   4.159   2.761   0.350  0.3130  0.1658  0.5457
 1010TIP3    H224446   4.273   2.787   0.446  2.1864 -0.6418 -1.3636
 1011TIP3   OH224447   4.742   0.139   4.015  0.6608  0.1981  0.1815
 1011TIP3    H124448   4.760   0.230   3.994  0.7205  0.1118 -0.1476
 1011TIP3    H224449   4.647   0.137   4.031  0.5263  0.1744 -0.5799
 1012TIP3   OH224450   2.731   6.337   5.720  0.4331 -0.3329  0.7206
 1012TIP3    H124451   2.714   6.398   5.791 -2.8209 -0.4956  0.2616
 1012TIP3    H224452   2.690   6.255   5.748 -0.7435 -0.4647 -1.1504
 1013TIP3   OH224453   6.441   0.179   4.811 -0.1525  0.6524 -0.3242
 1013TIP3    H124454   6.453   0.221   4.896 -2.4255  0.9228 -0.0850
 1013TIP3    H224455   6.413   0.090   4.831 -2.4699  1.2294 -0.6873
 1014TIP3   OH224456   3.728   0.120   3.584  0.0517  0.2103 -0.1568
 1014TIP3    H124457   3.804   0.083   3.629 -0.0067  0.2769 -0.0047
 1014TIP3    H224458   3.675   0.159   3.653  0.1229  0.6013 -0.3217
 1015TIP3   OH224459   3.947   0.035  11.688 -0.1533 -0.1398 -0.9017
 1015TIP3    H124460   3.990   0.002  11.609  3.6658 -1.7369  1.5552
 1015TIP3    H224461   4.019   0.062  11.745 -2.8034  3.0222  1.2764
 1016TIP3   OH224462   1.983   0.339  11.951  0.0354 -0.1228 -0.1382
 1016TIP3    H124463   2.006   0.289  12.029 -0.4005 -0.8190 -0.4455
 1016TIP3    H224464   2.065   0.346  11.902  0.6904  1.6956  1.1083
 1017TIP3   OH224465   6.469   1.818  12.255  0.1320  0.4222 -1.0039
 1017TIP3    H124466   6.526   1.894  12.242  0.4482  0.8485  2.1340
 1017TIP3    H224467   6.381   1.849  12.233  0.7296  0.3987 -3.7535
 1018TIP3   OH224468   5.138   1.437  15.467 -0.4608  0.5413  0.2416
 1018TIP3    H124469   5.179   1.430  15.380 -1.0025  1.0652 -0.0610
 1018TIP3    H224470   5.088   1.356  15.475 -0.3064  0.4310  0.1252
 1019TIP3   OH224471   6.621   3.309   1.524 -0.7295 -0.3432  0.4686
 1019TIP3    H124472   6.590   3.353   1.603 -0.1530  1.2429 -0.1331
 1019TIP3    H224473   6.663   3.229   1.556 -1.0552 -0.0423  1.7016
 1020TIP3   OH224474   0.047   5.087  17.076 -0.6737 -0.6967  0.3651
 1020TIP3    H124475   0.129   5.094  17.124 -1.4241  0.2691  1.5746
 1020TIP3    H224476   0.073   5.081  16.984  0.7424 -0.1793  0.7093
 1021TIP3   OH224477   6.362   2.936  11.672  0.3457  0.4179 -0.0218
 1021TIP3    H124478   6.389   2.874  11.604  0.0762 -0.2457  0.4704
 1021TIP3    H224479   6.295   2.890  11.722  0.0871  1.1354  0.3091
 1022TIP3   OH224480   4.789   3.696   0.913  0.2378 -0.3159  0.0222
 1022TIP3    H124481   4.755   3.747   0.840  1.2890 -1.7543 -1.5397
 1022TIP3    H224482   4.790   3.758   0.987 -3.0845  0.5347 -0.4760
 1023TIP3   OH224483   5.567   1.035  14.922 -0.7428 -1.0373 -0.2857
 1023TIP3    H124484   5.617   1.111  14.952 -2.7511  0.7663 -1.2934
 1023TIP3    H224485   5.633   0.978  14.881  0.5972  0.9215 -0.9931
 1024TIP3   OH224486   1.537   3.659  10.741 -0.1525 -0.0981  0.7804
 1024TIP3    H124487   1.502   3.696  10.660  3.0816 -0.2126 -0.8416
 1024TIP3    H224488   1.529   3.564  10.730  1.5348 -0.1807 -0.1494
 1025TIP3   OH224489   2.713   6.509   5.934 -0.5769  0.3623 -0.5491
 1025TIP3    H124490   2.676   6.597   5.941  0.0438  0.5112  1.3567
 1025TIP3    H224491   2.657   6.455   5.989  0.1586 -0.0492 -0.1920
 1026TIP3   OH224492   0.509   0.717   5.279 -0.5653  0.0441 -0.5044
 1026TIP3    H124493   0.422   0.691   5.249 -0.4932 -2.0568  0.9242
 1026TIP3    H224494   0.493   0.782   5.347 -0.8738  1.3054 -1.7135
 1027TIP3   OH224495   0.367   2.183   4.113  0.7210 -0.1101 -0.0212
 1027TIP3    H124496   0.386   2.092   4.133  0.7023  0.0018  0.5123
 1027TIP3    H224497   0.278   2.182   4.079  1.2763 -0.5020 -1.5802
 1028TIP3   OH224498   3.542   4.160   3.766  0.5311  0.0207 -0.0588
 1028TIP3    H124499   3.586   4.085   3.805 -1.1884 -0.3769  1.2572
 1028TIP3    H224500   3.561   4.154   3.673  2.1174 -0.8616  0.2896
 1029TIP3   OH224501   5.895   4.097  14.723  0.1248 -0.0601 -0.2113
 1029TIP3    H124502   5.891   4.172  14.783  0.6290 -2.0420  2.4789
 1029TIP3    H224503   5.962   4.121  14.660  1.0551  1.3465  1.2274
 1030TIP3   OH224504   5.448   5.582   5.299  0.0210 -0.1817  0.1666
 1030TIP3    H124505   5.372   5.636   5.321 -0.8333 -0.4480 -1.9394
 1030TIP3    H224506   5.415   5.493   5.300  0.4655 -0.3502 -0.1732
 1031TIP3   OH224507   2.632   6.582  12.836  0.3231  0.3896 -0.2688
 1031TIP3    H124508   2.591   6.529  12.767  1.9971  1.7621 -2.4461
 1031TIP3    H224509   2.663   6.518  12.900 -0.4224 -1.0187 -1.2474
 1032TIP3   OH224510   6.712   1.047   2.096 -1.0204  0.1978  0.0323
 1032TIP3    H124511   6.674   1.036   2.183 -2.8249  3.3142 -0.1989
 1032TIP3    H224512   6.668   0.980   2.043 -2.8383  0.7457  0.7613
 1033TIP3   OH224513   0.288   5.167   3.273 -0.2301  0.0648 -0.2542
 1033TIP3    H124514   0.317   5.192   3.360 -1.9141 -1.2067  0.7492
 1033TIP3    H224515   0.366   5.131   3.230  0.8970  1.8116  0.2419
 1034TIP3   OH224516   4.516   6.050   1.353 -0.1040 -0.0223 -0.1734
 1034TIP3    H124517   4.488   6.025   1.266  0.3975  0.8345 -0.5986
 1034TIP3    H224518   4.610   6.068   1.344 -0.1515  0.5748  0.4182
 1035TIP3   OH224519   2.229   5.717  10.474  0.7790  0.2253 -0.0600
 1035TIP3    H124520   2.175   5.793  10.452 -0.6310 -0.3409  1.2905
 1035TIP3    H224521   2.269   5.740  10.558  0.7305 -0.3119  0.1121
 1036TIP3   OH224522   1.670   2.968  13.359  0.4330 -0.1145 -0.0457
 1036TIP3    H124523   1.611   2.987  13.432 -0.2622  1.9065 -1.0652
 1036TIP3    H224524   1.683   2.873  13.362 -2.4116 -0.5601  0.5550
 1037TIP3   OH224525   2.300   5.063  13.937 -0.2659 -0.0100  0.6120
 1037TIP3    H124526   2.324   5.120  14.010 -0.3273  0.0453  0.5897
 1037TIP3    H224527   2.205   5.054  13.944 -0.3168  0.2887  0.3303
 1038TIP3   OH224528   5.392   0.980   1.240  0.5241 -0.1839 -0.0898
 1038TIP3    H124529   5.480   1.014   1.256  0.9930 -1.4071  0.0295
 1038TIP3    H224530   5.347   0.988   1.324 -0.7534  3.7815 -0.9014
 1039TIP3   OH224531   0.316   2.747   0.057 -0.6528 -0.1646 -0.2417
 1039TIP3    H124532   0.321   2.683   0.128 -0.4772  0.6703  0.5176
 1039TIP3    H224533   0.227   2.738   0.023 -0.7119 -0.6296  0.0183
 1040TIP3   OH224534   1.461   4.117   1.357 -0.0642 -0.7173  0.2800
 1040TIP3    H124535   1.391   4.183   1.361 -0.5632 -1.2298  0.1922
 1040TIP3    H224536   1.537   4.161   1.395 -0.3912 -0.0969  0.2431
 1041TIP3   OH224537   5.898   0.379   4.408 -0.5954 -0.1239 -0.2717
 1041TIP3    H124538   5.846   0.446   4.364 -0.0359  1.0011  0.7184
 1041TIP3    H224539   5.986   0.390   4.374 -0.2042  0.6011  0.9122
 1042TIP3   OH224540   1.092   0.804   2.422  0.4958  0.0314 -0.0190
 1042TIP3    H124541   1.105   0.715   2.454 -0.1416  0.2733  0.9775
 1042TIP3    H224542   1.044   0.794   2.340 -0.1493 -0.5352  0.4132
 1043TIP3   OH224543   4.115   4.825   2.027 -0.1189  0.0681  0.1380
 1043TIP3    H124544   4.202   4.785   2.022 -0.5152 -0.7193 -0.6739
 1043TIP3    H224545   4.065   4.785   1.956 -0.7507  1.5215 -0.2738
 1044TIP3   OH224546   5.346   3.116  13.120  0.1195  0.2369 -0.4373
 1044TIP3    H124547   5.439   3.130  13.101  0.2298  2.4004  1.3233
 1044TIP3    H224548   5.310   3.204  13.125 -1.7439 -0.5295  0.3293
 1045TIP3   OH224549   4.783   5.516   3.642 -0.1211 -0.1914  0.2361
 1045TIP3    H124550   4.808   5.556   3.726 -0.3516 -1.1978  0.8012
 1045TIP3    H224551   4.713   5.573   3.609 -1.0860 -0.6113  1.4784
 1046TIP3   OH224552   6.622   3.434   5.022  0.2443  0.0092  0.0652
 1046TIP3    H124553   6.533   3.419   4.991  0.2880 -1.0753  0.4246
 1046TIP3    H224554   6.625   3.527   5.045 -1.3387 -0.3153  1.7776
 1047TIP3   OH224555   1.680   2.798  12.374  0.0535 -0.5026 -0.4558
 1047TIP3    H124556   1.724   2.825  12.455 -1.2163  0.9930 -0.2068
 1047TIP3    H224557   1.747   2.752  12.325  1.3681  0.0958  0.6964
 1048TIP3   OH224558   1.218   0.261   6.030  0.2370  0.6569 -0.2007
 1048TIP3    H124559   1.132   0.302   6.040  0.1274  0.2291  0.7900
 1048TIP3    H224560   1.253   0.257   6.120  1.1768  0.5803 -0.5554
 1049TIP3   OH224561   0.014   4.086  16.816 -0.1757  0.5247 -0.2112
 1049TIP3    H124562   0.094   4.035  16.825 -0.5080  0.1916  1.1136
 1049TIP3    H224563   0.035   4.172  16.853  0.4451  1.4994 -2.6196
 1050TIP3   OH224564   6.715   0.951  15.733 -0.2555 -0.4690 -0.2632
 1050TIP3    H124565   6.645   1.016  15.744  1.6188  1.6496  0.0494
 1050TIP3    H224566   6.713   0.930  15.640 -1.1626 -0.2943 -0.2979
 1051TIP3   OH224567   3.938   2.957  17.238 -0.1771 -0.3163 -1.1841
 1051TIP3    H124568   3.878   2.997  17.301  0.4897 -1.2280  0.0552
 1051TIP3    H224569   4.007   3.022  17.225  0.1417 -0.4595 -0.2830
 1052TIP3   OH224570   1.409   1.001  10.626 -0.5180 -0.3894 -0.4661
 1052TIP3    H124571   1.368   1.032  10.706 -0.1233  0.2857 -0.5161
 1052TIP3    H224572   1.337   0.966  10.574 -0.6438 -1.8495  0.6185
 1053TIP3   OH224573   3.190   1.652   2.782  0.3115  0.2051 -0.4323
 1053TIP3    H124574   3.217   1.744   2.775  1.4108  0.2610  2.7267
 1053TIP3    H224575   3.095   1.656   2.794  0.4131  1.0147  0.2564
 1054TIP3   OH224576   2.218   4.378   0.909  0.0451  0.3016 -0.4202
 1054TIP3    H124577   2.302   4.335   0.927  0.3021  1.5238  1.5420
 1054TIP3    H224578   2.233   4.427   0.828  1.1628  0.3486 -0.1973
 1055TIP3   OH224579   6.583   5.559  12.745 -0.0030 -0.6073 -0.3375
 1055TIP3    H124580   6.515   5.558  12.813  1.0124 -3.5675  0.8136
 1055TIP3    H224581   6.535   5.545  12.663 -0.9652 -0.5701  0.2049
 1056TIP3   OH224582   1.258   1.022  12.108 -0.1646 -0.2536 -0.0527
 1056TIP3    H124583   1.250   1.013  12.013  0.9896  0.5711 -0.2344
 1056TIP3    H224584   1.289   0.936  12.137 -1.8769 -0.9768 -0.2252
 1057TIP3   OH224585   0.093   2.591   4.955  0.5283 -0.1934  0.1552
 1057TIP3    H124586   0.031   2.544   5.011  1.6421  1.0335  2.6025
 1057TIP3    H224587   0.079   2.555   4.868 -1.5635 -2.0059  1.1376
 1058TIP3   OH224588   3.082   5.126  14.425  0.4379 -0.1282 -0.2281
 1058TIP3    H124589   3.018   5.180  14.472  0.8001  0.8980 -0.8962
 1058TIP3    H224590   3.033   5.046  14.403 -0.0393 -0.1941  0.9629
 1059TIP3   OH224591   0.123   1.302   1.644  0.3630  0.0494  0.5475
 1059TIP3    H124592   0.114   1.216   1.603  0.3240 -0.6665  1.9841
 1059TIP3    H224593   0.048   1.352   1.614  0.3362 -0.4426 -0.2302
 1060TIP3   OH224594   2.481   2.485   5.027 -0.0602  0.6607  0.0376
 1060TIP3    H124595   2.576   2.487   5.016  0.0042  0.6553  0.5861
 1060TIP3    H224596   2.454   2.401   4.990  0.0666  0.9506 -0.7395
 1061TIP3   OH224597   5.341   5.476  15.285 -0.0330  0.3211  0.1601
 1061TIP3    H124598   5.395   5.398  15.297 -1.3882 -0.5179  1.0513
 1061TIP3    H224599   5.298   5.463  15.201  1.3044  1.1331 -0.6995
 1062TIP3   OH224600   2.292   0.060  15.179 -0.3300  0.1235  0.1458
 1062TIP3    H124601   2.273   0.151  15.158 -1.7686 -0.5136 -1.5800
 1062TIP3    H224602   2.312   0.020  15.095  0.4899 -1.1339  0.9014
 1063TIP3   OH224603   3.073   5.532   1.053  0.3183 -0.0158 -0.2231
 1063TIP3    H124604   3.100   5.547   0.963  0.7784  1.0353  0.0722
 1063TIP3    H224605   2.979   5.548   1.054  0.4929  1.0627 -0.3067
 1064TIP3   OH224606   1.948   3.368  10.788  0.0600  0.4846  0.2918
 1064TIP3    H124607   1.964   3.308  10.861 -0.2389  0.7492  0.5747
 1064TIP3    H224608   2.001   3.333  10.717  1.8553  1.2654  1.1684
 1065TIP3   OH224609   2.741   0.217  12.470 -0.2060 -0.3151 -0.3345
 1065TIP3    H124610   2.768   0.258  12.388  0.4437 -0.5182 -0.2292
 1065TIP3    H224611   2.776   0.273  12.538 -1.6716  0.4473 -0.1783
 1066TIP3   OH224612   3.447   2.355   0.177  0.4637 -0.1696  1.0589
 1066TIP3    H124613   3.472   2.383   0.089  3.0044  0.1897  1.8221
 1066TIP3    H224614   3.359   2.391   0.190  0.9334  1.6738 -0.5089
 1067TIP3   OH224615   5.660   0.743  12.997  0.0859 -0.8272  0.3594
 1067TIP3    H124616   5.668   0.831  12.961 -0.2710 -0.8783  0.1455
 1067TIP3    H224617   5.662   0.686  12.920 -1.9606 -0.8677  0.2594
 1068TIP3   OH224618   1.491   4.389   6.531 -0.3716  0.0309 -0.3770
 1068TIP3    H124619   1.507   4.381   6.625 -2.4909  0.0815  0.0365
 1068TIP3    H224620   1.577   4.377   6.491  0.5873  0.0415  1.5594
 1069TIP3   OH224621   5.713   4.826  15.422 -0.4444  0.3857 -0.3046
 1069TIP3    H124622   5.659   4.747  15.428  1.1789 -1.0102 -2.5717
 1069TIP3    H224623   5.757   4.831  15.507 -2.4799  0.4042  0.8314
 1070TIP3   OH224624   2.386   4.188  15.535  0.1144 -0.3092 -0.3518
 1070TIP3    H124625   2.405   4.272  15.493  2.4296 -0.1335  0.9019
 1070TIP3    H224626   2.471   4.144  15.541 -0.1308 -0.6233  3.4002
 1071TIP3   OH224627   6.457   4.732  14.398 -0.0509  0.5121  0.4311
 1071TIP3    H124628   6.380   4.676  14.403 -1.2360  1.9955 -0.3718
 1071TIP3    H224629   6.429   4.815  14.437  1.2925  0.9371  0.5476
 1072TIP3   OH224630   0.492   5.673   2.249  0.1937 -0.2035  0.4702
 1072TIP3    H124631   0.526   5.688   2.337  1.6275 -0.8739  0.0511
 1072TIP3    H224632   0.397   5.663   2.262  0.1332  1.5165  1.6881
 1073TIP3   OH224633   3.799   1.504  16.550  0.5413  0.2276  0.7517
 1073TIP3    H124634   3.789   1.538  16.462 -2.2540 -0.2690  0.7863
 1073TIP3    H224635   3.810   1.581  16.605  2.6844  0.5214  0.0142
 1074TIP3   OH224636   0.433   3.133  13.249 -0.1776  0.0290 -0.3895
 1074TIP3    H124637   0.424   3.043  13.280 -1.2712 -0.0899 -1.0164
 1074TIP3    H224638   0.491   3.175  13.313 -0.8043 -0.7298  0.6995
 1075TIP3   OH224639   4.971   3.361  10.526 -0.9370 -0.4348 -0.0177
 1075TIP3    H124640   4.966   3.275  10.482 -1.4653  0.5453 -2.0033
 1075TIP3    H224641   4.898   3.410  10.489 -0.3936  1.0222  0.7872
 1076TIP3   OH224642   4.900   6.341  11.821 -0.2242  0.4125  0.0381
 1076TIP3    H124643   4.922   6.248  11.812 -1.0426  0.0690  1.3360
 1076TIP3    H224644   4.843   6.345  11.898  0.0358  2.0324  0.1822
 1077TIP3   OH224645   4.587   4.659  15.540 -0.0595  0.1708 -0.4965
 1077TIP3    H124646   4.561   4.588  15.598  0.4011  1.5877  1.5524
 1077TIP3    H224647   4.506   4.684  15.494 -0.6159 -0.4431  0.1339
 1078TIP3   OH224648   0.587   5.748   5.383  0.0894  0.4382 -0.4197
 1078TIP3    H124649   0.555   5.771   5.470 -1.3188 -0.9712 -0.5112
 1078TIP3    H224650   0.639   5.668   5.396  0.6136  0.7157 -0.7637
 1079TIP3   OH224651   0.626   2.741  14.070  0.2226 -0.2856 -0.0812
 1079TIP3    H124652   0.541   2.728  14.112  0.8581 -3.5068  0.4900
 1079TIP3    H224653   0.609   2.727  13.976 -0.0517  0.2349 -0.1111
 1080TIP3   OH224654   1.277   1.624   0.107  0.1394 -0.2653 -0.6196
 1080TIP3    H124655   1.361   1.579   0.116  0.0221 -0.5471 -0.9258
 1080TIP3    H224656   1.281   1.695   0.172  0.7278 -0.0982 -0.8362
 1081TIP3   OH224657   6.171   1.727  12.634 -0.7138  0.4468  0.1980
 1081TIP3    H124658   6.098   1.760  12.687 -0.8476  0.9994 -0.3139
 1081TIP3    H224659   6.129   1.680  12.563 -0.6102 -4.7802  3.0883
 1082TIP3   OH224660   2.110   3.950   2.779 -0.2387  0.0643 -0.4436
 1082TIP3    H124661   2.074   3.864   2.803 -1.3467  1.1237  1.9809
 1082TIP3    H224662   2.033   4.005   2.765  0.4620  0.8784 -1.2341
 1083TIP3   OH224663   1.245   3.344   6.481  0.1041  0.4614  0.2929
 1083TIP3    H124664   1.310   3.343   6.412  0.2893 -0.0866  0.4675
 1083TIP3    H224665   1.267   3.269   6.536  0.2740  1.1834  1.2408
 1084TIP3   OH224666   6.569   5.134  11.868 -0.2907  0.0674 -0.3524
 1084TIP3    H124667   6.479   5.168  11.871 -0.8543 -1.3674 -0.1601
 1084TIP3    H224668   6.572   5.080  11.789  0.5305  0.4145 -0.5671
 1085TIP3   OH224669   1.130   3.788  14.041 -0.6138  0.2270 -0.0297
 1085TIP3    H124670   1.036   3.789  14.025 -0.5184 -0.6027 -0.7196
 1085TIP3    H224671   1.150   3.876  14.074 -1.7144  0.2209  0.6784
 1086TIP3   OH224672   0.171   3.704  12.578  0.2502  0.6603 -0.5536
 1086TIP3    H124673   0.102   3.767  12.560  0.7287  1.5246  0.5451
 1086TIP3    H224674   0.210   3.733  12.661 -1.0110 -2.3373  1.2543
 1087TIP3   OH224675   4.041   1.717   3.032 -0.3412  0.0151 -0.1754
 1087TIP3    H124676   4.012   1.635   2.993 -1.4518  0.6774 -0.7873
 1087TIP3    H224677   4.125   1.696   3.073 -0.1633 -1.1896 -1.1245
 1088TIP3   OH224678   1.063   1.330   4.387  0.3960  0.1233 -0.1225
 1088TIP3    H124679   0.983   1.297   4.346  0.7178  0.5301 -1.1109
 1088TIP3    H224680   1.098   1.255   4.436 -1.3858  0.3530  1.6503
 1089TIP3   OH224681   1.486   0.918  14.082 -0.1978 -0.1355  0.4708
 1089TIP3    H124682   1.535   0.845  14.042  1.0167  0.1606  1.3628
 1089TIP3    H224683   1.446   0.963  14.008 -0.5243 -1.3906 -0.1430
 1090TIP3   OH224684   4.129   0.651   1.522  0.3923  0.3190  0.2790
 1090TIP3    H124685   4.202   0.694   1.476 -0.4677  1.7074  0.1703
 1090TIP3    H224686   4.161   0.562   1.537  1.4719  0.3930 -1.2626
 1091TIP3   OH224687   2.696   6.127   5.021  0.3397 -0.2155 -0.0513
 1091TIP3    H124688   2.748   6.077   5.084  1.6265  1.1492  0.0380
 1091TIP3    H224689   2.605   6.110   5.044  0.7751 -1.3105  0.9037
 1092TIP3   OH224690   4.743   3.112  15.978  0.0434  0.2561  0.3486
 1092TIP3    H124691   4.804   3.110  15.905  0.5219 -0.3548  0.7511
 1092TIP3    H224692   4.656   3.105  15.937  0.3723 -1.8571 -0.1010
 1093TIP3   OH224693   0.659   5.798  15.544  0.0244 -0.1113 -0.2505
 1093TIP3    H124694   0.750   5.768  15.543 -0.1361 -0.7290 -2.4237
 1093TIP3    H224695   0.611   5.730  15.590  0.5998  0.0472  0.6008
 1094TIP3   OH224696   1.296   1.914  10.721 -0.0711 -0.3762 -0.0785
 1094TIP3    H124697   1.375   1.861  10.709 -0.9872 -1.9399  0.4650
 1094TIP3    H224698   1.224   1.851  10.717 -1.0745  0.3942  3.0150
 1095TIP3   OH224699   2.587   4.696  13.693 -0.6081 -0.4580 -0.2076
 1095TIP3    H124700   2.563   4.788  13.702 -0.5979 -0.2842 -1.7073
 1095TIP3    H224701   2.639   4.677  13.771  0.1933  1.0655 -0.3348
 1096TIP3   OH224702   4.424   2.957  16.315  0.2945  0.4160 -0.5441
 1096TIP3    H124703   4.353   2.892  16.313 -0.1338  0.8046  0.8773
 1096TIP3    H224704   4.486   2.923  16.378  0.9313  0.5466 -1.0910
 1097TIP3   OH224705   0.578   1.470   2.503  0.0203 -0.0443  0.4856
 1097TIP3    H124706   0.581   1.382   2.541 -1.7714 -0.6279 -0.5791
 1097TIP3    H224707   0.610   1.458   2.413 -1.9794 -0.0208 -0.2738
 1098TIP3   OH224708   0.679   6.036   0.367  0.4777 -0.4571 -0.2075
 1098TIP3    H124709   0.619   6.065   0.298  0.7251 -1.8621 -1.0321
 1098TIP3    H224710   0.626   5.979   0.422  0.4981  0.0212  0.3187
 1099TIP3   OH224711   2.168   2.790   0.135  0.5050  0.2410 -0.3661
 1099TIP3    H124712   2.242   2.851   0.132  2.3967 -1.6033  2.5832
 1099TIP3    H224713   2.131   2.802   0.223 -1.4029 -0.3866 -1.0304
 1100TIP3   OH224714   1.474   1.115   3.493 -0.0477 -0.5745 -0.7397
 1100TIP3    H124715   1.402   1.177   3.506  0.9424  0.3458  0.6041
 1100TIP3    H224716   1.435   1.042   3.446 -2.0311 -0.4273  0.5775
 1101TIP3   OH224717   6.462   5.954   5.450  0.2291 -0.0318  0.2133
 1101TIP3    H124718   6.448   6.002   5.532 -1.7827  1.9705 -1.1894
 1101TIP3    H224719   6.410   5.875   5.459 -1.2641  0.9326  0.3066
 1102TIP3   OH224720   6.736   5.803   3.868  0.5856  0.0520 -0.1748
 1102TIP3    H124721   6.781   5.829   3.948  1.2510  1.1698 -0.8855
 1102TIP3    H224722   6.647   5.839   3.878  0.6761  0.2101  0.0608
 1103TIP3   OH224723   6.548   6.584  16.531  0.2421  1.2078  0.1552
 1103TIP3    H124724   6.542   6.551  16.620 -0.4937 -1.4007 -0.7631
 1103TIP3    H224725   6.641   6.598  16.517  0.8181 -1.9456  0.2227
 1104TIP3   OH224726   1.469   2.368  10.951 -0.0461  0.2728 -0.0393
 1104TIP3    H124727   1.546   2.327  10.912  1.6875  0.9138  2.5001
 1104TIP3    H224728   1.401   2.301  10.945  1.1194 -0.8871 -0.9457
 1105TIP3   OH224729   1.233   5.873  14.645  0.4235  0.0566 -0.2765
 1105TIP3    H124730   1.200   5.815  14.714  0.0636 -0.2197 -0.6736
 1105TIP3    H224731   1.307   5.919  14.685  0.5113 -0.4429  0.1442
 1106TIP3   OH224732   0.790   5.829   2.939 -0.3745 -0.5036 -0.7345
 1106TIP3    H124733   0.721   5.765   2.921  0.2854 -1.1184 -1.0878
 1106TIP3    H224734   0.866   5.798   2.891 -0.2899  1.0384 -1.6850
 1107TIP3   OH224735   2.741   1.234  12.635  0.0381 -0.0441  0.0957
 1107TIP3    H124736   2.653   1.200  12.650 -0.2034  0.5419  0.0286
 1107TIP3    H224737   2.728   1.314  12.584  0.6635 -0.3874 -0.6352
 1108TIP3   OH224738   4.157   6.096  12.616 -0.3652 -0.1638  0.4187
 1108TIP3    H124739   4.146   6.004  12.590 -2.5329 -0.0736  0.8683
 1108TIP3    H224740   4.152   6.145  12.534  0.7967 -0.4156  0.1773
 1109TIP3   OH224741   0.428   5.677  13.276  0.2290  0.1557 -0.5484
 1109TIP3    H124742   0.466   5.752  13.229  0.6375  1.2317  1.4013
 1109TIP3    H224743   0.497   5.650  13.337 -0.7219 -0.4030  0.3044
 1110TIP3   OH224744   1.523   5.696   2.234 -0.6541 -0.5538 -0.8551
 1110TIP3    H124745   1.565   5.732   2.156 -1.1023 -2.0192 -1.8175
 1110TIP3    H224746   1.480   5.771   2.275 -0.1407  0.3033 -1.8483
 1111TIP3   OH224747   6.171   2.751   0.068 -0.4705  0.6510 -0.0702
 1111TIP3    H124748   6.262   2.756   0.038 -0.6797  0.8656 -0.6986
 1111TIP3    H224749   6.139   2.842   0.064 -1.2214  0.3629 -1.5604
 1112TIP3   OH224750   2.003   0.352  17.024  0.2121  0.3665  0.5889
 1112TIP3    H124751   1.968   0.434  17.059  2.5320  0.4418  3.0924
 1112TIP3    H224752   2.098   0.357  17.041  0.8672 -1.5915 -1.8975
 1113TIP3   OH224753   2.735   0.685  16.248  0.0506  0.6465 -0.5666
 1113TIP3    H124754   2.799   0.639  16.195 -0.7854  0.3140 -1.3105
 1113TIP3    H224755   2.719   0.627  16.322  0.1370  0.4388 -0.7105
 1114TIP3   OH224756   0.203   0.212   6.240 -0.2911  0.0813 -0.1051
 1114TIP3    H124757   0.142   0.182   6.173 -1.5418  0.1087  0.9862
 1114TIP3    H224758   0.213   0.138   6.299 -0.5474  0.6044  0.6086
 1115TIP3   OH224759   6.543   5.751  15.352 -0.2793 -0.0005 -0.0210
 1115TIP3    H124760   6.612   5.789  15.297 -0.6015  0.7787  0.0897
 1115TIP3    H224761   6.463   5.797  15.324 -1.3709 -2.9397 -2.2771
 1116TIP3   OH224762   2.577   0.949  14.108  1.1732  0.4065  0.1426
 1116TIP3    H124763   2.495   0.926  14.064 -0.3424  1.6553  2.1366
 1116TIP3    H224764   2.588   0.881  14.175  2.4482 -0.4174 -0.8521
 1117TIP3   OH224765   1.397   4.995   1.990 -0.5208  0.2278 -0.0153
 1117TIP3    H124766   1.386   4.906   1.957  0.1866  0.6284 -1.3797
 1117TIP3    H224767   1.319   5.010   2.045 -0.4791 -1.3290  0.5230
 1118TIP3   OH224768   5.167   4.177  15.953 -0.2158 -0.4209  0.1903
 1118TIP3    H124769   5.104   4.173  16.026 -0.8729  0.0870 -0.3436
 1118TIP3    H224770   5.147   4.099  15.901 -1.3440  0.4354 -0.7195
 1119TIP3   OH224771   1.496   2.842   3.867  0.0715 -0.1156  0.4225
 1119TIP3    H124772   1.469   2.754   3.841 -0.0048 -0.3965  1.4064
 1119TIP3    H224773   1.525   2.832   3.958 -0.9116  1.0628  0.8882
 1120TIP3   OH224774   3.246   4.028   0.720  0.3685  0.0164 -0.3082
 1120TIP3    H124775   3.196   3.956   0.758  1.0221 -0.8086 -0.9548
 1120TIP3    H224776   3.180   4.087   0.683 -0.3191  1.0901  2.4227
 1121TIP3   OH224777   2.644   3.621   1.889 -0.5062  0.0904  0.0182
 1121TIP3    H124778   2.552   3.649   1.893 -0.1097  1.5204 -0.3264
 1121TIP3    H224779   2.667   3.631   1.796 -0.1661 -0.8614 -0.0118
 1122TIP3   OH224780   0.549   5.927  13.256  0.8215  0.1453  0.0153
 1122TIP3    H124781   0.492   6.004  13.262 -1.0971 -1.2236  0.2184
 1122TIP3    H224782   0.562   5.900  13.347  1.7321  0.3808 -0.0379
 1123TIP3   OH224783   0.627   2.646   3.078 -0.2051 -0.0800  0.5246
 1123TIP3    H124784   0.655   2.652   2.987 -3.2689  1.7336 -0.4482
 1123TIP3    H224785   0.598   2.555   3.089  2.6318 -1.0795  0.6315
 1124TIP3   OH224786   1.301   2.247   4.595 -0.0996 -0.1971 -0.7033
 1124TIP3    H124787   1.343   2.296   4.524  1.2441 -1.3780 -0.7746
 1124TIP3    H224788   1.341   2.282   4.675 -1.3454  0.8754 -0.5128
 1125TIP3   OH224789   2.748   6.027   1.377  0.2423  0.5217 -0.3361
 1125TIP3    H124790   2.725   6.055   1.465  0.0196 -1.5435  0.3095
 1125TIP3    H224791   2.731   5.933   1.376  3.7775 -0.2661 -1.3908
 1126TIP3   OH224792   0.668   1.219   2.583  0.4693 -0.5618 -0.0891
 1126TIP3    H124793   0.754   1.194   2.550  0.3833 -0.4063 -0.4378
 1126TIP3    H224794   0.658   1.170   2.664  1.4837  0.5112  0.7143
 1127TIP3   OH224795   0.385   1.649  16.147 -0.7217 -0.6258  0.6765
 1127TIP3    H124796   0.344   1.604  16.073  0.6060 -0.3262 -0.2808
 1127TIP3    H224797   0.314   1.698  16.187 -1.3821 -0.3703 -0.7313
 1128TIP3   OH224798   3.226   1.799   0.979 -0.1389  0.2558 -0.3978
 1128TIP3    H124799   3.167   1.772   1.049 -0.4495  1.1297 -0.3075
 1128TIP3    H224800   3.309   1.817   1.024 -0.3383  0.8160 -0.2466
 1129TIP3   OH224801   2.455   0.093  16.802  0.1649  0.6797  0.9345
 1129TIP3    H124802   2.409   0.019  16.842  0.9097  0.5573  1.5746
 1129TIP3    H224803   2.527   0.054  16.754  0.1113  0.9328  0.6469
 1130TIP3   OH224804   3.908   4.860   1.198 -0.2558 -0.3172 -0.0977
 1130TIP3    H124805   3.879   4.770   1.216 -0.1017 -1.0042 -2.7872
 1130TIP3    H224806   4.000   4.851   1.174 -0.7501  0.1316 -2.5105
 1131TIP3   OH224807   6.015   2.625  11.004 -0.1029  0.0151  0.9073
 1131TIP3    H124808   6.091   2.658  11.051 -0.5272 -0.4529  1.9667
 1131TIP3    H224809   5.940   2.664  11.050 -0.5522 -0.9666  1.0235
 1132TIP3   OH224810   0.819   1.481  13.030  0.0694 -0.1991  0.6641
 1132TIP3    H124811   0.813   1.386  13.030 -0.5168 -0.2333 -1.9804
 1132TIP3    H224812   0.735   1.511  12.994  1.0956  1.1566 -0.7571
 1133TIP3   OH224813   6.420   1.813   5.806 -0.6210 -0.8244  0.3992
 1133TIP3    H124814   6.497   1.804   5.862 -0.6025  1.0068  0.7422
 1133TIP3    H224815   6.348   1.777   5.858 -0.2052 -1.3767  0.5948
 1134TIP3   OH224816   2.773   0.945   1.941  0.0196 -0.4383 -0.2073
 1134TIP3    H124817   2.756   0.871   1.999 -0.8862  1.4938  2.1515
 1134TIP3    H224818   2.860   0.975   1.966 -0.4441  0.5097  0.3007
 1135TIP3   OH224819   5.066   3.490   3.659  0.3109  0.4242 -0.1214
 1135TIP3    H124820   5.102   3.447   3.737  0.2775  0.8332  0.1211
 1135TIP3    H224821   5.033   3.574   3.691 -0.4852  0.2347 -0.4104
 1136TIP3   OH224822   4.345   4.624   5.634  0.3728 -0.1974  0.3166
 1136TIP3    H124823   4.281   4.627   5.563  0.5973 -0.5710  0.0959
 1136TIP3    H224824   4.430   4.619   5.590  0.6613  1.6180  0.5803
 1137TIP3   OH224825   0.437   3.791  14.267  0.1965  0.3946 -0.2167
 1137TIP3    H124826   0.438   3.880  14.231  0.2887  0.8388  0.8592
 1137TIP3    H224827   0.441   3.803  14.362  2.2283 -0.7959 -0.1061
 1138TIP3   OH224828   3.829   1.579   5.524 -0.0675  0.0733  0.5075
 1138TIP3    H124829   3.860   1.669   5.526 -3.4878  1.4096  2.9520
 1138TIP3    H224830   3.768   1.576   5.450  1.6337 -0.9983 -0.9502
 1139TIP3   OH224831   4.728   6.111   5.447 -0.1027 -0.8351  0.1466
 1139TIP3    H124832   4.773   6.179   5.397  0.6681 -0.4925  1.2755
 1139TIP3    H224833   4.651   6.154   5.483 -0.2655 -0.8877 -0.1360
 1140TIP3   OH224834   3.644   0.051   3.313 -0.7537  0.2247  0.0475
 1140TIP3    H124835   3.694   0.101   3.377  1.6939 -0.2050 -1.4213
 1140TIP3    H224836   3.585  -0.003   3.365 -0.8704  1.9138  1.7808
 1141TIP3   OH224837   6.139   6.626   3.429 -0.4700 -0.0140  0.1948
 1141TIP3    H124838   6.224   6.597   3.396 -0.3256  0.8187 -0.2088
 1141TIP3    H224839   6.130   6.584   3.514  0.2363 -0.3033  0.1317
 1142TIP3   OH224840   1.237   6.038  13.202 -0.4690  0.2356  0.7440
 1142TIP3    H124841   1.159   6.078  13.240 -0.0204 -0.1701  2.1671
 1142TIP3    H224842   1.293   6.112  13.178 -0.7706  0.5133  0.8873
 1143TIP3   OH224843   4.564   4.273   5.832  0.1648  0.1267 -0.3274
 1143TIP3    H124844   4.632   4.315   5.780  0.9200 -1.3225 -0.5476
 1143TIP3    H224845   4.490   4.335   5.828 -0.8247 -0.9292 -5.2855
 1144TIP3   OH224846   6.204   5.865  13.859  0.5480 -0.1243  0.1670
 1144TIP3    H124847   6.207   5.803  13.931  0.8489 -0.7484 -0.3768
 1144TIP3    H224848   6.294   5.871  13.827  0.2023 -0.8739 -1.0051
 1145TIP3   OH224849   5.522   5.886  14.345  0.8859 -0.1554 -0.1110
 1145TIP3    H124850   5.470   5.875  14.266 -0.6173  0.6193  0.7274
 1145TIP3    H224851   5.612   5.888  14.314  0.4321 -1.2878 -1.6402
 1146TIP3   OH224852   1.379   0.003  16.741 -0.3565 -0.0177 -1.0003
 1146TIP3    H124853   1.314   0.069  16.766 -0.5254 -0.5247 -0.0860
 1146TIP3    H224854   1.441   0.001  16.814 -0.4128 -0.9551 -0.9731
 1147TIP3   OH224855   2.378   1.309  12.090  0.1102  0.5686 -0.0190
 1147TIP3    H124856   2.354   1.252  12.163  0.1740  1.2950  0.5799
 1147TIP3    H224857   2.307   1.372  12.084 -0.6177 -0.3308 -1.5238
 1148TIP3   OH224858   2.505   3.715  14.307 -0.3442  0.8149 -0.3187
 1148TIP3    H124859   2.467   3.769  14.376 -0.4583  0.6896 -0.2835
 1148TIP3    H224860   2.596   3.702  14.334 -0.4995  0.4286  0.0126
 1149TIP3   OH224861   5.048   1.361   4.886 -0.7787 -0.5355  0.0913
 1149TIP3    H124862   5.080   1.446   4.916 -1.2993 -0.0797 -0.5970
 1149TIP3    H224863   5.119   1.300   4.904  0.3665  0.3794 -1.1132
 1150TIP3   OH224864   0.612   5.628   0.776 -0.2238  0.5196  0.5744
 1150TIP3    H124865   0.582   5.539   0.755  0.3659 -0.0789  2.1535
 1150TIP3    H224866   0.689   5.615   0.831 -0.1142  2.0209  0.8030
 1151TIP3   OH224867   4.864   2.169   5.149 -0.4237  0.2670  0.1741
 1151TIP3    H124868   4.801   2.122   5.204  1.0699  0.3602  2.0517
 1151TIP3    H224869   4.940   2.112   5.146 -0.2052  0.6028 -1.2408
 1152TIP3   OH224870   2.308   0.234  12.653 -0.6652  0.0813  0.0651
 1152TIP3    H124871   2.361   0.294  12.705  0.2821 -1.3994  0.8622
 1152TIP3    H224872   2.368   0.201  12.586 -0.6848 -1.2652  0.6925
 1153TIP3   OH224873   5.775   1.594  17.043 -0.1131  0.1157 -0.1887
 1153TIP3    H124874   5.798   1.594  17.136  0.3607 -0.5503 -0.2957
 1153TIP3    H224875   5.710   1.524  17.035 -0.0389  0.0687 -0.3830
 1154TIP3   OH224876   6.380   0.306   0.308  0.5900 -0.9272 -0.7232
 1154TIP3    H124877   6.327   0.301   0.388 -1.7106  1.1044 -2.0051
 1154TIP3    H224878   6.329   0.260   0.242  1.0653 -0.0633 -1.7075
 1155TIP3   OH224879   4.826   1.322  15.641  0.2156  0.5622  0.6844
 1155TIP3    H124880   4.892   1.265  15.601 -0.3769  0.1732  0.2536
 1155TIP3    H224881   4.749   1.266  15.650 -0.8839  1.6997 -1.1798
 1156TIP3   OH224882   3.832   0.224  14.205 -0.0551  0.0439 -0.2086
 1156TIP3    H124883   3.737   0.232  14.214  0.1444  1.3225  1.1210
 1156TIP3    H224884   3.865   0.312  14.220  1.3703 -0.4007 -0.5538
 1157TIP3   OH224885   2.357   2.892  15.651 -0.5063 -0.2428 -0.0274
 1157TIP3    H124886   2.437   2.924  15.611 -0.8767  0.3585 -0.3135
 1157TIP3    H224887   2.384   2.861  15.737  0.2284 -1.1806 -0.5788
 1158TIP3   OH224888   3.083   3.041  12.491 -0.4482  0.1781  0.2456
 1158TIP3    H124889   3.075   3.080  12.577 -0.2895 -0.9002  0.7639
 1158TIP3    H224890   3.177   3.035  12.475 -0.4322  2.7513 -1.1467
 1159TIP3   OH224891   5.804   1.552  15.001 -0.6146 -0.0520 -0.4034
 1159TIP3    H124892   5.765   1.557  14.914 -1.3618 -2.2932 -0.2667
 1159TIP3    H224893   5.734   1.580  15.060 -0.9404 -0.9100 -0.3746
 1160TIP3   OH224894   2.767   3.795  14.745 -0.5728 -0.2604  0.4862
 1160TIP3    H124895   2.718   3.874  14.722  1.5944  1.0341  0.0036
 1160TIP3    H224896   2.776   3.748  14.663  2.4118  1.6063 -0.4400
 1161TIP3   OH224897   2.190   1.898   0.273  0.2522  0.0953  0.0784
 1161TIP3    H124898   2.222   1.976   0.228 -0.1917  0.0127 -0.3942
 1161TIP3    H224899   2.183   1.832   0.203  0.8208 -0.4317  0.5077
 1162TIP3   OH224900   2.460   4.474  14.305 -0.1848  0.1707 -0.7458
 1162TIP3    H124901   2.383   4.438  14.350  2.0154 -3.6697  0.3823
 1162TIP3    H224902   2.470   4.562  14.343 -2.2649 -0.3425  1.2731
 1163TIP3   OH224903   3.486   1.582  15.023 -0.3508  0.1593  0.0549
 1163TIP3    H124904   3.399   1.592  14.984 -0.2938  0.9261  0.1070
 1163TIP3    H224905   3.529   1.667  15.008  0.5526 -0.3548 -0.3709
 1164TIP3   OH224906   3.970   4.716   5.138  0.0172  0.0465  0.4418
 1164TIP3    H124907   3.968   4.774   5.062 -0.1056 -0.3314  0.1526
 1164TIP3    H224908   3.878   4.698   5.157  0.0397  0.4085  0.8861
 1165TIP3   OH224909   5.129   4.354  14.095 -0.7431 -0.3053  0.3879
 1165TIP3    H124910   5.119   4.316  14.008  0.2896 -0.1229  0.1665
 1165TIP3    H224911   5.040   4.363  14.128 -1.0895 -1.7827 -0.0360
 1166TIP3   OH224912   2.333   5.174  14.188 -0.0231  0.0021  0.1891
 1166TIP3    H124913   2.334   5.261  14.228  0.4726 -0.0175  0.2158
 1166TIP3    H224914   2.380   5.118  14.250 -1.4887 -0.5775  0.8310
 1167TIP3   OH224915   1.807   0.077  16.621 -0.0928 -0.0132  0.5069
 1167TIP3    H124916   1.774  -0.012  16.637  0.3561 -0.2392  0.1952
 1167TIP3    H224917   1.863   0.068  16.544  2.1458  0.0180  2.0623
 1168TIP3   OH224918   1.230   4.371   6.406 -0.4235  0.4677 -0.4820
 1168TIP3    H124919   1.321   4.375   6.435  0.1098  0.6372 -2.0574
 1168TIP3    H224920   1.181   4.418   6.473  0.8114  1.3128 -0.1350
 1169TIP3   OH224921   3.238   5.956  12.375 -0.1198 -0.2367  0.1803
 1169TIP3    H124922   3.248   5.997  12.461  3.1540  0.0472 -0.2425
 1169TIP3    H224923   3.272   6.020  12.313 -0.7032 -1.1776 -1.1839
 1170TIP3   OH224924   2.417   0.365   1.270 -0.2409  0.4410 -0.4364
 1170TIP3    H124925   2.358   0.376   1.344 -0.3198  0.6673 -0.5310
 1170TIP3    H224926   2.369   0.402   1.195  0.0467  0.6819 -0.5008
 1171TIP3   OH224927   6.136   1.064  10.725 -0.2095  0.0535  0.0047
 1171TIP3    H124928   6.220   1.039  10.686 -0.4313 -2.4357  1.0001
 1171TIP3    H224929   6.073   1.057  10.653 -0.0001 -0.7591 -0.1076
 1172TIP3   OH224930   1.653   5.117   5.375 -0.4090  0.2480  0.3871
 1172TIP3    H124931   1.673   5.208   5.353 -0.3419  0.1384 -0.0051
 1172TIP3    H224932   1.722   5.066   5.332  0.3980  0.0986  1.7588
 1173TIP3   OH224933   1.475   5.936  14.751 -0.2972  0.2177 -0.4944
 1173TIP3    H124934   1.494   5.843  14.738  3.5263  0.8889 -0.9483
 1173TIP3    H224935   1.561   5.975  14.769 -1.6132  3.8160 -1.2419
 1174TIP3   OH224936   1.420   1.052   5.365 -0.7447 -0.2727 -0.4631
 1174TIP3    H124937   1.402   1.111   5.438 -0.2749 -1.7511  0.9151
 1174TIP3    H224938   1.362   0.977   5.380  0.0016 -0.9987 -1.0823
 1175TIP3   OH224939   3.019   2.192   0.583 -0.9037  0.2161  0.3042
 1175TIP3    H124940   3.089   2.241   0.628  0.7557 -2.0330  0.3365
 1175TIP3    H224941   2.969   2.152   0.654  0.3153 -1.4529  0.2935
 1176TIP3   OH224942   5.153   2.774   4.666 -0.0616 -0.6218 -0.2057
 1176TIP3    H124943   5.131   2.867   4.662  1.3350 -0.0246  2.6392
 1176TIP3    H224944   5.206   2.758   4.588 -1.4458  0.5646 -1.4560
 1177TIP3   OH224945   1.998   2.157  12.114 -0.2382  0.4712 -0.0301
 1177TIP3    H124946   2.012   2.107  12.195 -0.5055 -2.1652 -1.5282
 1177TIP3    H224947   2.074   2.215  12.108  0.8578 -0.8127  1.0279
 1178TIP3   OH224948   1.867   5.792  13.102  0.2079  0.2224 -0.0327
 1178TIP3    H124949   1.893   5.871  13.054 -0.7435  1.1951  1.0192
 1178TIP3    H224950   1.787   5.763  13.059  1.1683 -0.9061 -1.1776
 1179TIP3   OH224951   2.755   0.025   5.745  0.2788 -0.9814 -0.2576
 1179TIP3    H124952   2.839  -0.005   5.709  2.3213  1.5050  1.9928
 1179TIP3    H224953   2.752  -0.014   5.833 -1.9412 -2.5692 -0.9568
 1180TIP3   OH224954   5.116   4.160   0.854 -0.2928  0.9895 -0.1639
 1180TIP3    H124955   5.124   4.230   0.789  2.2599 -0.9659 -2.2125
 1180TIP3    H224956   5.059   4.095   0.811  3.2775 -1.3885 -1.7648
 1181TIP3   OH224957   2.667   1.279   2.405 -0.1135 -0.3930 -0.4968
 1181TIP3    H124958   2.712   1.308   2.485  0.0078 -2.2994  0.1561
 1181TIP3    H224959   2.710   1.328   2.335  2.1963 -1.2414  0.2385
 1182TIP3   OH224960   3.998   6.191  11.420  0.4012  0.5910 -0.3454
 1182TIP3    H124961   3.968   6.115  11.371  2.6260 -0.5220 -0.0470
 1182TIP3    H224962   3.994   6.164  11.512 -1.8773  2.0014  0.0546
 1183TIP3   OH224963   5.399   4.905   5.961 -0.8205  0.0862 -0.5568
 1183TIP3    H124964   5.314   4.879   5.998 -0.7780 -0.3325 -0.7445
 1183TIP3    H224965   5.463   4.855   6.012 -0.8162 -1.2433 -1.8133
 1184TIP3   OH224966   5.001   3.809   5.654 -0.0210 -0.0693 -0.1906
 1184TIP3    H124967   5.024   3.761   5.734  0.1868 -0.1085 -0.2739
 1184TIP3    H224968   5.043   3.760   5.583 -3.4366 -2.3813 -0.8113
 1185TIP3   OH224969   5.709   4.966   4.203  0.1298 -0.1506  0.5423
 1185TIP3    H124970   5.746   4.882   4.230  0.0255  0.0019  1.1678
 1185TIP3    H224971   5.781   5.012   4.161  0.3289 -0.3422  0.6756
 1186TIP3   OH224972   5.939   0.083  12.285 -0.6096  0.0039  0.0119
 1186TIP3    H124973   5.848   0.068  12.311 -1.0006  0.2093 -1.1521
 1186TIP3    H224974   5.950   0.029  12.206  0.0995  0.4292 -0.1936
 1187TIP3   OH224975   5.673   5.033   6.721  0.2408  0.2541 -0.0346
 1187TIP3    H124976   5.689   4.952   6.673 -0.8352 -0.0591  0.1036
 1187TIP3    H224977   5.743   5.092   6.693  1.6981 -1.0771  0.7207
 1188TIP3   OH224978   1.560   3.961  12.509  0.0460  0.3644 -0.0113
 1188TIP3    H124979   1.490   3.897  12.502 -0.9001  1.4969 -1.3090
 1188TIP3    H224980   1.549   3.999  12.596 -0.8617  0.4191 -0.1430
 1189TIP3   OH224981   3.794   5.483  15.571 -0.0626  0.5070  0.0299
 1189TIP3    H124982   3.816   5.567  15.611  2.3687  0.4366 -1.0155
 1189TIP3    H224983   3.824   5.418  15.634 -0.9181  0.3871  0.3309
 1190TIP3   OH224984   3.903   0.600  13.056 -0.2869  0.5593 -0.0599
 1190TIP3    H124985   3.890   0.610  13.150 -0.3175  0.4467 -0.0518
 1190TIP3    H224986   3.827   0.550  13.026 -0.5636  1.0803 -0.2367
 1191TIP3   OH224987   1.052   1.153  14.998  0.2370  0.1734  0.1854
 1191TIP3    H124988   0.967   1.182  14.964 -0.3009 -0.0849  1.2435
 1191TIP3    H224989   1.030   1.088  15.064  1.2019  0.8008  1.1672
 1192TIP3   OH224990   1.357   5.772   4.883 -0.2135  0.5648  0.1412
 1192TIP3    H124991   1.409   5.794   4.960  1.0402  0.4701 -0.6443
 1192TIP3    H224992   1.303   5.697   4.911 -1.3298  1.8084  1.5192
 1193TIP3   OH224993   3.557   5.403   6.565 -0.5981  0.2609  0.0986
 1193TIP3    H124994   3.643   5.390   6.525 -0.6793  0.8747 -0.2768
 1193TIP3    H224995   3.541   5.497   6.559 -0.5512  0.3991  1.7005
 1194TIP3   OH224996   0.121   3.041   2.812  0.0546  0.2243 -0.1561
 1194TIP3    H124997   0.065   3.059   2.888  1.8721  0.9592  1.0862
 1194TIP3    H224998   0.209   3.035   2.849  1.0322  0.8617 -2.2612
 1195TIP3   OH224999   3.085   4.738   5.609 -0.2178  0.5704  0.1724
 1195TIP3    H125000   3.137   4.657   5.611 -2.3913 -0.9085  0.6605
 1195TIP3    H225001   3.107   4.782   5.691  0.7153  0.2761  0.0869
 1196TIP3   OH225002   6.201   6.754   0.143 -0.1480  0.3328 -0.4745
 1196TIP3    H125003   6.223   6.796   0.226  2.0086  1.1991 -1.4048
 1196TIP3    H225004   6.165   6.825   0.090 -0.5519  0.0131 -0.6258
 1197TIP3   OH225005   1.087   1.909   1.332 -0.0115 -0.4260  0.1803
 1197TIP3    H125006   1.104   1.840   1.269  0.8447  0.5012 -0.6309
 1197TIP3    H225007   1.161   1.905   1.393  0.5505  0.3625 -0.4243
 1198TIP3   OH225008   2.609   0.784  10.967  0.2219 -0.5823 -0.0992
 1198TIP3    H125009   2.567   0.818  10.888 -0.2617  0.9056  0.7526
 1198TIP3    H225010   2.700   0.816  10.960  0.1170 -0.2459  0.0539
 1199TIP3   OH225011   2.583   5.836  15.157 -0.3077 -0.0824 -0.2515
 1199TIP3    H125012   2.658   5.784  15.129 -0.0576  0.2707 -0.2472
 1199TIP3    H225013   2.583   5.829  15.252 -1.3821 -1.5918 -0.3348
 1200TIP3   OH225014   4.758   3.158  12.784 -0.3517 -0.2771 -0.0547
 1200TIP3    H125015   4.723   3.144  12.872  0.3456 -1.1597  0.1017
 1200TIP3    H225016   4.683   3.189  12.733 -0.9878 -0.6522  0.6244
 1201TIP3   OH225017   5.413   5.676  16.645  0.1861 -0.3767  0.4713
 1201TIP3    H125018   5.335   5.709  16.600 -0.1630 -2.3240 -0.4540
 1201TIP3    H225019   5.380   5.647  16.730 -0.1768 -1.3057  0.0386
 1202TIP3   OH225020   6.459   5.742   0.958 -0.0116 -0.8368 -0.5106
 1202TIP3    H125021   6.485   5.707   0.872  1.3022 -0.2214 -0.3878
 1202TIP3    H225022   6.459   5.666   1.016  1.2673 -0.9167 -0.5911
 1203TIP3   OH225023   4.776   6.144   1.254 -0.0246  0.4867  0.7705
 1203TIP3    H125024   4.853   6.137   1.311  0.8220 -1.3502 -0.4989
 1203TIP3    H225025   4.782   6.068   1.196 -1.3026  1.8075 -1.2232
 1204TIP3   OH225026   2.018   3.959   1.566 -0.5940  0.1812  0.3506
 1204TIP3    H125027   2.034   3.873   1.604 -0.2729  1.0460  2.2888
 1204TIP3    H225028   1.994   3.941   1.475  0.5557 -1.8604  0.3952
 1205TIP3   OH225029   5.132   6.598   5.752 -0.5679 -0.7449 -0.1456
 1205TIP3    H125030   5.073   6.524   5.734 -0.4716 -0.6202 -1.0006
 1205TIP3    H225031   5.215   6.572   5.714 -0.7486  0.1414 -1.1649
 1206TIP3   OH225032   1.582   4.937  15.541  0.4849 -0.1237  0.1181
 1206TIP3    H125033   1.586   4.860  15.484  1.0387  0.0740 -0.1111
 1206TIP3    H225034   1.651   4.995  15.509  0.3663  0.2779  0.5743
 1207TIP3   OH225035   1.723   2.607   2.328 -0.0066  0.3149 -0.4276
 1207TIP3    H125036   1.711   2.529   2.383  0.3407 -0.0489 -0.8592
 1207TIP3    H225037   1.638   2.651   2.332  0.7386  1.7070  2.4756
 1208TIP3   OH225038   3.700   5.143  15.581  0.3630 -0.3565  0.2953
 1208TIP3    H125039   3.691   5.129  15.487  1.0754 -1.3535  0.3582
 1208TIP3    H225040   3.724   5.236  15.589 -1.3097  0.1658 -0.3777
 1209TIP3   OH225041   0.617   5.309  12.679  0.0128 -0.3077 -0.3759
 1209TIP3    H125042   0.541   5.330  12.626 -0.1981 -1.3547 -0.5156
 1209TIP3    H225043   0.628   5.214  12.669  1.2529 -0.1963 -0.2573
 1210TIP3   OH225044   6.323   0.875  11.938 -0.4435 -0.3027  0.0995
 1210TIP3    H125045   6.262   0.854  11.866 -1.1087  0.8276  0.3032
 1210TIP3    H225046   6.285   0.832  12.014 -0.4540 -0.4114  0.0334
 1211TIP3   OH225047   3.972   2.816  13.523 -0.3620  0.3939 -0.0769
 1211TIP3    H125048   4.014   2.742  13.479 -1.5515 -0.5116  0.2609
 1211TIP3    H225049   4.037   2.886  13.520  1.0257 -0.8472  0.1252
 1212TIP3   OH225050   6.246   4.668   0.743 -0.5200  0.0527 -0.0189
 1212TIP3    H125051   6.179   4.601   0.729 -0.3348 -0.1230 -0.0660
 1212TIP3    H225052   6.226   4.736   0.679 -0.8500  0.1524  0.1875
 1213TIP3   OH225053   4.542   0.591  10.651  0.2772  0.4269  0.1331
 1213TIP3    H125054   4.527   0.641  10.731  1.4973  1.6350 -0.3443
 1213TIP3    H225055   4.589   0.513  10.679  3.9787  2.4923  0.3501
 1214TIP3   OH225056   6.299   0.696   0.510  0.0180  0.3126  0.4531
 1214TIP3    H125057   6.316   0.679   0.417  1.0103  4.7683 -0.4288
 1214TIP3    H225058   6.374   0.658   0.555  0.5048 -0.2683 -0.7806
 1215TIP3   OH225059   4.383   2.408  15.961  0.2907 -0.2461 -0.2014
 1215TIP3    H125060   4.425   2.473  16.016  0.9335 -0.6198 -0.2461
 1215TIP3    H225061   4.345   2.458  15.889  1.1384  0.0425 -0.4591
 1216TIP3   OH225062   6.409   2.890   2.100 -0.5882 -0.2678 -0.3301
 1216TIP3    H125063   6.371   2.810   2.137  1.4542 -0.9191  0.5225
 1216TIP3    H225064   6.449   2.862   2.018 -0.9717  0.1696 -0.6706
 1217TIP3   OH225065   2.093   0.119   5.652 -0.3540 -0.3392  0.0227
 1217TIP3    H125066   2.136   0.197   5.688  0.1957  0.0397 -1.4034
 1217TIP3    H225067   2.000   0.143   5.649 -0.0625  0.7226 -1.4542
 1218TIP3   OH225068   4.435   1.250   1.288 -0.3088 -0.2098  0.5101
 1218TIP3    H125069   4.477   1.167   1.267  1.7619  0.7665  0.5144
 1218TIP3    H225070   4.417   1.291   1.203  0.7137  0.2632  0.5021
 1219TIP3   OH225071   4.641   2.042  10.762 -0.0012  0.0766  0.3655
 1219TIP3    H125072   4.564   2.065  10.710 -0.4834 -1.1215  0.5054
 1219TIP3    H225073   4.696   1.992  10.702  0.9380  1.4008  0.1085
 1220TIP3   OH225074   1.607   6.735   6.296  0.2716  0.2019  0.3323
 1220TIP3    H125075   1.608   6.702   6.385 -1.5269 -2.4408 -0.4982
 1220TIP3    H225076   1.516   6.759   6.280  0.9777  2.8746 -0.1215
 1221TIP3   OH225077   3.599   1.131   6.201  0.4695 -0.9520 -0.1107
 1221TIP3    H125078   3.675   1.182   6.227 -0.9896  0.7581  0.9872
 1221TIP3    H225079   3.607   1.049   6.250  1.9867 -1.1276 -0.6209
 1222TIP3   OH225080   4.843   5.287   4.573  0.2247  0.0193 -0.0056
 1222TIP3    H125081   4.915   5.339   4.536 -0.4305  0.9450 -0.0070
 1222TIP3    H225082   4.822   5.224   4.504 -0.9832  1.7190 -1.2815
 1223TIP3   OH225083   4.941   3.478  12.622 -0.0522  0.1014  0.3797
 1223TIP3    H125084   4.987   3.419  12.681 -0.3723 -0.0303  0.5017
 1223TIP3    H225085   5.009   3.536  12.587  0.0473  0.6303  1.4037
 1224TIP3   OH225086   5.152   1.051   1.030  0.5942 -0.1399  0.6698
 1224TIP3    H125087   5.212   1.000   1.085  0.1753 -1.4705 -0.0493
 1224TIP3    H225088   5.166   1.016   0.942  0.2409  0.9772  0.1570
 1225TIP3   OH225089   0.113   2.424  16.876 -0.0483 -0.3885  0.6254
 1225TIP3    H125090   0.196   2.406  16.832 -0.1498  0.6631 -0.0326
 1225TIP3    H225091   0.133   2.419  16.969  0.3315 -1.9648  0.4856
 1226TIP3   OH225092   4.338   2.093   1.971 -0.4169  0.6845  0.7868
 1226TIP3    H125093   4.277   2.124   2.038 -0.5641  1.0267  0.4939
 1226TIP3    H225094   4.341   2.163   1.907 -2.0622 -0.5543 -0.7525
 1227TIP3   OH225095   2.647   4.476  11.849  0.0156  0.0982 -0.1545
 1227TIP3    H125096   2.692   4.559  11.869  0.2740  0.3352 -1.6298
 1227TIP3    H225097   2.591   4.461  11.925  1.8845  0.2609  1.3593
 1228TIP3   OH225098   4.251   1.604  14.075  0.3955 -0.3420  0.5595
 1228TIP3    H125099   4.323   1.547  14.048  0.2930 -0.6496  0.9347
 1228TIP3    H225100   4.172   1.555  14.054  0.2411  0.6112 -1.2488
 1229TIP3   OH225101   4.728   6.234   3.818 -0.3257  0.3512 -0.4655
 1229TIP3    H125102   4.822   6.249   3.806  0.1656 -1.4720  0.6930
 1229TIP3    H225103   4.720   6.206   3.909 -1.8526 -0.5257 -0.8418
 1230TIP3   OH225104   4.262   0.503   2.847 -0.0151 -0.5942 -0.1968
 1230TIP3    H125105   4.315   0.428   2.874 -0.9506 -1.0948  0.2788
 1230TIP3    H225106   4.295   0.525   2.759  2.7353  0.7579  1.0351
 1231TIP3   OH225107   5.284   5.083  10.886  0.0173  0.7153 -0.2357
 1231TIP3    H125108   5.305   5.165  10.841 -3.7207  0.8966 -2.0489
 1231TIP3    H225109   5.232   5.034  10.823  0.8196 -2.4655  1.3477
 1232TIP3   OH225110   6.696   2.727   5.782  0.2519 -0.3362  0.1207
 1232TIP3    H125111   6.690   2.644   5.735  1.6032 -0.6145  0.4261
 1232TIP3    H225112   6.748   2.708   5.860 -0.2194  0.5898  0.6805
 1233TIP3   OH225113   6.042   3.416  15.145 -0.5430 -0.3663 -0.0099
 1233TIP3    H125114   5.953   3.449  15.154 -0.0385  0.9415  0.4454
 1233TIP3    H225115   6.066   3.434  15.054 -0.1215  1.0104  0.3410
 1234TIP3   OH225116   5.082   1.144   4.249 -0.4459 -0.0090 -0.5017
 1234TIP3    H125117   5.177   1.146   4.257 -0.5115 -0.6644  0.7144
 1234TIP3    H225118   5.064   1.191   4.168  0.6192  4.2168  1.4638
 1235TIP3   OH225119   5.146   1.642   1.159 -0.5276  0.0616 -0.1757
 1235TIP3    H125120   5.118   1.578   1.224  0.6630 -0.1308  0.1614
 1235TIP3    H225121   5.091   1.624   1.082 -0.8446 -0.7504  0.2319
 1236TIP3   OH225122   0.140   5.818  15.952  0.5461 -0.8143 -0.1661
 1236TIP3    H125123   0.078   5.830  15.881  1.2739 -0.8337 -0.8272
 1236TIP3    H225124   0.156   5.906  15.986 -0.8971 -0.9488  0.9630
 1237TIP3   OH225125   3.805   6.308  16.381 -0.0740  0.2235  0.0247
 1237TIP3    H125126   3.784   6.333  16.291 -0.0899 -1.7021 -0.5496
 1237TIP3    H225127   3.824   6.215  16.376 -1.1928 -0.1885  2.2146
 1238TIP3   OH225128   4.249   3.856  15.760 -0.0783  0.2835 -0.3670
 1238TIP3    H125129   4.188   3.841  15.688  1.6437 -0.0464 -1.8141
 1238TIP3    H225130   4.208   3.815  15.836 -0.4647 -2.3031 -1.8657
 1239TIP3   OH225131   3.645   5.420   2.292  0.1911 -0.1782 -0.1063
 1239TIP3    H125132   3.727   5.384   2.327  0.1941 -1.1080 -1.0235
 1239TIP3    H225133   3.577   5.362   2.327 -0.1592  0.9293  1.1199
 1240TIP3   OH225134   2.726   2.025   5.236  0.5312  0.3953 -0.0432
 1240TIP3    H125135   2.797   1.994   5.181 -0.6886  2.1430 -2.8269
 1240TIP3    H225136   2.666   1.951   5.243  1.4420 -0.3242  0.2799
 1241TIP3   OH225137   5.194   1.470   5.114 -0.2308  0.0379  0.1775
 1241TIP3    H125138   5.263   1.411   5.086 -0.7914 -1.0475  1.0061
 1241TIP3    H225139   5.206   1.478   5.209 -0.5555  0.7391  0.1671
 1242TIP3   OH225140   0.398   2.703   3.795  0.5104  0.1852 -0.7320
 1242TIP3    H125141   0.386   2.616   3.757 -0.6099  0.0046 -0.0154
 1242TIP3    H225142   0.319   2.717   3.848  1.3722  1.0131  0.3719
 1243TIP3   OH225143   2.944   0.143  17.213  0.3211  0.1652 -0.3031
 1243TIP3    H125144   2.947   0.229  17.255 -3.7364  0.6867 -0.7083
 1243TIP3    H225145   2.891   0.156  17.134  0.9781 -2.4152 -1.2875
 1244TIP3   OH225146   1.996   4.502   4.579  0.1317 -0.1906 -0.8432
 1244TIP3    H125147   2.046   4.438   4.528  0.2791 -0.5232 -0.2856
 1244TIP3    H225148   1.906   4.468   4.578 -0.0097  0.1742 -1.4665
 1245TIP3   OH225149   4.326   2.673   6.152 -0.2819 -0.7021  0.4680
 1245TIP3    H125150   4.240   2.674   6.194 -0.1132 -0.3897  0.8095
 1245TIP3    H225151   4.322   2.742   6.087  1.5315  3.4315  4.2266
 1246TIP3   OH225152   5.895   6.402   2.122  0.0312 -0.2753 -0.0414
 1246TIP3    H125153   5.920   6.420   2.031  0.7992  1.7404  0.5111
 1246TIP3    H225154   5.820   6.458   2.138  0.5727  0.2188  0.8633
 1247TIP3   OH225155   5.946   4.708   1.786 -0.1228  0.5803  0.1987
 1247TIP3    H125156   5.857   4.735   1.766 -0.0084  0.6479 -0.2366
 1247TIP3    H225157   5.980   4.776   1.844 -0.3597  0.5429  0.3828
 1248TIP3   OH225158   1.443   6.298  13.112 -0.1658 -0.5860 -0.5129
 1248TIP3    H125159   1.424   6.319  13.204 -1.2998  0.4947 -0.9560
 1248TIP3    H225160   1.431   6.381  13.066  0.6046 -1.0709 -1.6097
 1249TIP3   OH225161   0.428   1.932  14.293  0.0683 -0.2934 -0.4634
 1249TIP3    H125162   0.333   1.939  14.282  0.1255  0.5623 -0.4703
 1249TIP3    H225163   0.458   1.889  14.213 -0.0646  1.5531 -1.5561
 1250TIP3   OH225164   5.869   3.352  12.296  0.3253 -0.6012  0.7333
 1250TIP3    H125165   5.866   3.262  12.264 -2.3947 -0.8386  1.3678
 1250TIP3    H225166   5.943   3.353  12.357  1.3590 -1.9619 -0.4264
 1251TIP3   OH225167   1.886   0.964  13.491  0.6563 -0.2842 -0.0102
 1251TIP3    H125168   1.955   0.898  13.479  2.4843  0.9574  2.6641
 1251TIP3    H225169   1.926   1.030  13.548 -2.2886  1.2971  0.4053
 1252TIP3   OH225170   2.781   2.184   0.118  0.1458  0.8591 -0.5713
 1252TIP3    H125171   2.699   2.161   0.073 -0.7344  0.6110  1.0788
 1252TIP3    H225172   2.782   2.129   0.196  1.9254  0.8409 -0.5610
 1253TIP3   OH225173   0.025   0.088   1.837  0.2770 -0.2852  0.6825
 1253TIP3    H125174  -0.024   0.075   1.918 -0.9708  1.3564  0.2435
 1253TIP3    H225175   0.105   0.037   1.849 -0.7646 -1.6859  2.1223
 1254TIP3   OH225176   2.183   1.470   0.717  0.2815 -0.3907  0.0702
 1254TIP3    H125177   2.131   1.549   0.733 -0.2148 -0.2034 -2.1301
 1254TIP3    H225178   2.273   1.499   0.725  0.1595  0.8648 -2.2252
 1255TIP3   OH225179   5.275   2.695   0.800 -0.1267  0.8354 -0.7064
 1255TIP3    H125180   5.346   2.684   0.736 -0.2652 -0.1884 -0.7086
 1255TIP3    H225181   5.307   2.650   0.878 -0.8434  0.1960 -0.7708
 1256TIP3   OH225182   6.687   6.162   5.170  0.1965  0.2819 -0.4501
 1256TIP3    H125183   6.592   6.165   5.160 -0.0680  0.9320  1.8121
 1256TIP3    H225184   6.720   6.162   5.080 -1.9140  0.3513 -1.2840
 1257TIP3   OH225185   3.202   3.489  14.445  0.2803 -0.2306  0.0913
 1257TIP3    H125186   3.142   3.471  14.517  0.3077 -4.0402 -0.6602
 1257TIP3    H225187   3.173   3.573  14.410 -2.5250 -0.3865  1.7803
 1258TIP3   OH225188   0.405   0.492  11.561  0.3413  0.3274  0.0456
 1258TIP3    H125189   0.435   0.484  11.471  1.0971 -0.9489  0.3887
 1258TIP3    H225190   0.317   0.455  11.561  0.6544 -0.4364 -0.0229
 1259TIP3   OH225191   6.574   1.751   1.817  0.2871 -0.4353  0.1692
 1259TIP3    H125192   6.568   1.783   1.907 -0.7256  0.1371 -0.0907
 1259TIP3    H225193   6.612   1.824   1.768  1.1041 -0.8456  0.1661
 1260TIP3   OH225194   5.301   3.920  16.527 -0.7409 -0.4504  0.5044
 1260TIP3    H125195   5.211   3.947  16.510 -0.1547  1.4195  0.0755
 1260TIP3    H225196   5.318   3.851  16.463 -2.0213 -1.2339  0.9771
 1261TIP3   OH225197   1.117   4.064  11.739 -0.2466 -0.9095 -0.0381
 1261TIP3    H125198   1.157   4.087  11.655 -0.6427 -0.8785 -0.2229
 1261TIP3    H225199   1.160   3.982  11.764  0.6959 -0.3272  0.3008
 1262TIP3   OH225200   5.038   0.360   0.456  0.0039  0.4199 -0.0624
 1262TIP3    H125201   5.060   0.295   0.389  0.1772  0.3034  0.1054
 1262TIP3    H225202   5.052   0.314   0.539 -0.7822  0.3778  0.0503
 1263TIP3   OH225203   5.036   6.452  16.639 -0.1133  0.1025 -0.1699
 1263TIP3    H125204   4.977   6.523  16.613  1.0877  1.5372  0.8886
 1263TIP3    H225205   4.980   6.392  16.688 -1.5754 -0.7572 -2.6816
 1264TIP3   OH225206   5.855   0.632  16.692  0.1340 -0.4019  0.1086
 1264TIP3    H125207   5.889   0.549  16.724 -2.3549 -2.5098 -2.1388
 1264TIP3    H225208   5.913   0.656  16.620 -0.0236 -1.0933 -0.2583
 1265TIP3   OH225209   4.317   4.219   0.576 -0.1937 -0.0683 -0.1215
 1265TIP3    H125210   4.229   4.254   0.561 -0.0232  0.4440  0.0510
 1265TIP3    H225211   4.364   4.234   0.494  0.0795  0.7264  0.1735
 1266TIP3   OH225212   1.946   6.125  14.729  0.2070  1.0417  0.1209
 1266TIP3    H125213   1.949   6.089  14.817 -1.3082 -0.2281 -0.3168
 1266TIP3    H225214   2.028   6.175  14.721  1.5881 -0.8870  1.3451
 1267TIP3   OH225215   6.089   5.338   3.932  0.0518 -0.2156 -0.0031
 1267TIP3    H125216   6.132   5.342   3.847  1.2573 -1.9006  0.4672
 1267TIP3    H225217   6.161   5.324   3.994 -0.6657  2.0580  1.4685
 1268TIP3   OH225218   4.799   5.589  11.459 -0.8537 -0.8730 -0.1447
 1268TIP3    H125219   4.751   5.545  11.389  0.0520  0.2887 -1.5667
 1268TIP3    H225220   4.736   5.651  11.496 -1.8782 -2.6825  1.3164
 1269TIP3   OH225221   6.645   3.669   6.439  0.3461 -0.3804 -0.2113
 1269TIP3    H125222   6.625   3.620   6.519  2.1127  0.4760  0.8070
 1269TIP3    H225223   6.666   3.601   6.374  1.1016 -1.0280  0.6936
 1270TIP3   OH225224   6.499   1.012   5.591  0.0393 -0.8027 -0.1810
 1270TIP3    H125225   6.534   1.071   5.658 -0.2369 -0.2934 -0.4774
 1270TIP3    H225226   6.414   0.985   5.627  0.1591 -1.0051 -0.0518
 1271TIP3   OH225227   3.429   0.832   4.066  0.4713  0.3231  0.5316
 1271TIP3    H125228   3.392   0.903   4.118  0.8875  0.4128  0.7127
 1271TIP3    H225229   3.388   0.841   3.980  1.5067  1.6222  0.1287
 1272TIP3   OH225230   5.834   3.987  15.904  0.3642  0.3556 -0.0719
 1272TIP3    H125231   5.873   4.012  15.820 -0.8652  0.1060 -0.7328
 1272TIP3    H225232   5.872   3.901  15.924  1.5493  0.9200  0.2370
 1273TIP3   OH225233   1.755   3.266   4.647  0.0618  0.1041 -0.1990
 1273TIP3    H125234   1.814   3.318   4.591  1.5591 -1.7454 -0.4294
 1273TIP3    H225235   1.757   3.178   4.610 -2.2199 -0.2421  0.3280
 1274TIP3   OH225236   4.521   4.023   3.397 -0.2199 -0.1825  0.1348
 1274TIP3    H125237   4.467   4.086   3.443 -1.1443 -1.7848  1.3434
 1274TIP3    H225238   4.610   4.041   3.428 -0.5783  0.0135  1.0806
 1275TIP3   OH225239   0.443   4.149  14.758 -0.4185  0.0725 -0.4423
 1275TIP3    H125240   0.393   4.230  14.747 -0.9384 -0.0690  0.7235
 1275TIP3    H225241   0.381   4.087  14.797 -0.1317 -1.0180 -1.6274
 1276TIP3   OH225242   4.397   0.725   1.442  0.5212 -0.1956 -0.0976
 1276TIP3    H125243   4.398   0.820   1.433 -1.4895 -0.1467 -0.3791
 1276TIP3    H225244   4.434   0.693   1.360  1.4243  0.3287  0.0926
 1277TIP3   OH225245   4.274   2.233  16.434 -0.3362 -0.3116  0.0224
 1277TIP3    H125246   4.357   2.231  16.481  0.1898  0.1287 -0.8726
 1277TIP3    H225247   4.238   2.145  16.446 -0.4610 -0.0739  1.6537
 1278TIP3   OH225248   1.820   6.501  12.418  0.0500  0.0626  0.0117
 1278TIP3    H125249   1.816   6.590  12.383  2.0783  0.7189  1.3081
 1278TIP3    H225250   1.754   6.499  12.487  0.1706  0.6157  0.1388
 1279TIP3   OH225251   2.918   6.311   4.082  0.2551  0.4923 -0.2395
 1279TIP3    H125252   3.003   6.299   4.039  1.0028 -0.4354  1.3706
 1279TIP3    H225253   2.886   6.222   4.096 -1.2662  0.8471 -1.2905
 1280TIP3   OH225254   5.261   3.017  15.961 -0.0726  0.2565 -0.2011
 1280TIP3    H125255   5.194   2.965  15.917  1.1405  0.2106 -2.0972
 1280TIP3    H225256   5.240   3.009  16.054 -0.3839 -3.0228 -0.4483
 1281TIP3   OH225257   1.494   3.949  14.276 -0.2742  0.6705 -0.0877
 1281TIP3    H125258   1.516   4.023  14.333  2.4867 -0.4657  0.4848
 1281TIP3    H225259   1.548   3.961  14.198 -1.0221  0.0970 -0.7091
 1282TIP3   OH225260   4.376   1.074   0.095  0.6783  0.0791 -0.5177
 1282TIP3    H125261   4.452   1.130   0.113  2.1762 -1.9923 -0.0365
 1282TIP3    H225262   4.353   1.093   0.004  2.1339  0.3713 -0.8481
 1283TIP3   OH225263   4.671   2.186   1.200  0.4122  0.0268  0.0570
 1283TIP3    H125264   4.649   2.167   1.109 -1.4904 -1.5807  0.7669
 1283TIP3    H225265   4.716   2.108   1.231 -1.3412 -0.6128  1.1637
 1284TIP3   OH225266   6.603   3.886  15.646 -0.6815  1.0460 -0.4785
 1284TIP3    H125267   6.660   3.818  15.682 -0.4886  1.8128  0.7242
 1284TIP3    H225268   6.567   3.848  15.566 -1.4122 -0.8872  0.6977
 1285TIP3   OH225269   3.001   6.354  16.269 -0.0354 -0.3602  0.3547
 1285TIP3    H125270   2.947   6.287  16.227 -1.1620  1.2170 -0.8097
 1285TIP3    H225271   2.941   6.398  16.329  0.3428  0.4353  0.1582
 1286TIP3   OH225272   5.758   6.377   3.402 -0.4199 -0.0519  0.4346
 1286TIP3    H125273   5.701   6.450   3.427  0.2521  0.2981  0.9780
 1286TIP3    H225274   5.837   6.419   3.366 -0.9025 -0.5317 -1.2809
 1287TIP3   OH225275   3.643   0.552  16.893  0.1873 -0.1075  0.9126
 1287TIP3    H125276   3.612   0.635  16.928 -1.7424 -0.3454 -0.0809
 1287TIP3    H225277   3.597   0.485  16.943  1.2395 -0.5868  1.2752
 1288TIP3   OH225278   0.905   0.790  15.711  0.2173  0.1891  0.1295
 1288TIP3    H125279   0.962   0.731  15.759 -0.3488 -1.7304 -1.4357
 1288TIP3    H225280   0.819   0.779  15.752  0.1586  0.1216 -0.0133
 1289TIP3   OH225281   3.356   5.347   4.119  0.2169  0.0334  0.2345
 1289TIP3    H125282   3.382   5.421   4.175 -1.6055  0.9847 -0.0969
 1289TIP3    H225283   3.283   5.307   4.166 -0.5231  0.0688 -0.8769
 1290TIP3   OH225284   1.849   2.741  13.996  0.2401  0.8905  0.4862
 1290TIP3    H125285   1.870   2.647  13.992  0.4390  0.8987  1.2014
 1290TIP3    H225286   1.901   2.779  13.925  1.8327  0.7433  1.5161
 1291TIP3   OH225287   3.201   0.072  14.976  0.8111  0.3063 -0.0563
 1291TIP3    H125288   3.295   0.076  14.995  0.7029  0.8454  0.4171
 1291TIP3    H225289   3.159   0.103  15.057  0.1455 -1.5799  0.3649
 1292TIP3   OH225290   5.516   4.767  13.881  0.4788 -0.8306 -0.3824
 1292TIP3    H125291   5.557   4.850  13.856  0.0531 -0.1700  1.0577
 1292TIP3    H225292   5.571   4.701  13.839  2.5416  0.0649  0.7539
 1293TIP3   OH225293   6.499   1.474  15.582 -0.1868 -0.1615  0.0089
 1293TIP3    H125294   6.480   1.486  15.675 -0.0484 -0.7298  0.1141
 1293TIP3    H225295   6.588   1.440  15.579 -0.8655 -2.0497 -0.2006
 1294TIP3   OH225296   3.594   1.046  11.170  0.0973  0.3365  0.5776
 1294TIP3    H125297   3.507   1.086  11.175  0.4017  0.8467  2.2587
 1294TIP3    H225298   3.641   1.100  11.106 -0.4027  0.8716  0.6499
 1295TIP3   OH225299   2.007   5.253  17.090  0.1395  0.0541 -0.0252
 1295TIP3    H125300   2.040   5.301  17.014  1.2725  0.1363  0.4898
 1295TIP3    H225301   2.071   5.271  17.158 -0.1116 -1.1530  0.5453
 1296TIP3   OH225302   5.149   1.991  12.838  0.1237  0.3146 -0.0359
 1296TIP3    H125303   5.219   1.927  12.848  0.3342  0.2861 -1.5221
 1296TIP3    H225304   5.081   1.945  12.789 -0.7387  0.5048  0.9500
 1297TIP3   OH225305   5.773   1.701  15.733  0.2891 -0.2661 -0.8004
 1297TIP3    H125306   5.822   1.749  15.666 -1.4587  0.5958 -1.5189
 1297TIP3    H225307   5.831   1.629  15.758  1.1203 -0.4504 -3.0277
 1298TIP3   OH225308   2.137   4.106  11.525 -0.2148  0.1079  0.0608
 1298TIP3    H125309   2.218   4.157  11.534  1.4802 -1.3058 -4.4054
 1298TIP3    H225310   2.158   4.020  11.561  1.4418 -1.0902 -3.3477
 1299TIP3   OH225311   5.870   3.224   3.927 -1.2679 -0.2561  0.4176
 1299TIP3    H125312   5.882   3.136   3.891  1.2005 -0.0637  0.5528
 1299TIP3    H225313   5.918   3.281   3.867 -0.9326  0.6807  1.5369
 1300TIP3   OH225314   4.447   2.321  12.429  0.4920  0.0781  0.4911
 1300TIP3    H125315   4.366   2.372  12.431  0.9953  1.2022 -2.5255
 1300TIP3    H225316   4.436   2.262  12.354  0.0334 -4.3653  3.6932
 1301TIP3   OH225317   0.915   1.114   0.994  0.4053  0.3278  0.2868
 1301TIP3    H125318   0.926   1.202   1.030 -1.5082  0.0719  1.6774
 1301TIP3    H225319   0.820   1.099   0.995  0.4663 -0.8099 -2.3492
 1302TIP3   OH225320   5.717   6.754   3.907  0.4598  0.4285 -0.2594
 1302TIP3    H125321   5.765   6.735   3.987  2.3678  0.1024 -1.4163
 1302TIP3    H225322   5.625   6.736   3.929  1.1301 -1.4296  1.3286
 1303TIP3   OH225323   2.421   3.936  13.410 -0.7310  0.5968 -0.0167
 1303TIP3    H125324   2.438   3.933  13.316  0.7980 -0.2812  0.2449
 1303TIP3    H225325   2.333   3.898  13.420 -0.0227 -1.4083 -0.9330
 1304TIP3   OH225326   5.082   5.622   1.038 -0.2902 -0.0109  0.3959
 1304TIP3    H125327   5.106   5.563   0.966 -1.8604  0.9523 -0.9807
 1304TIP3    H225328   5.112   5.708   1.009 -1.7969  0.5451  0.4229
 1305TIP3   OH225329   3.125   4.229  11.326  0.0770 -0.3513  0.0035
 1305TIP3    H125330   3.115   4.288  11.252  1.0788  0.8816  0.8209
 1305TIP3    H225331   3.036   4.197  11.343 -0.4900  0.9311 -0.4532
 1306TIP3   OH225332   5.795   0.254   4.632 -0.1933  0.4879  0.2228
 1306TIP3    H125333   5.831   0.306   4.560 -1.2184 -1.0946 -1.5273
 1306TIP3    H225334   5.731   0.312   4.674  1.1195  1.7706  0.5338
 1307TIP3   OH225335   5.693   0.044   1.433 -0.3108 -0.0572  0.6273
 1307TIP3    H125336   5.685  -0.048   1.407  1.7633  0.4486 -2.3813
 1307TIP3    H225337   5.772   0.047   1.487  0.6667  0.1284 -0.7541
 1308TIP3   OH225338   6.495   2.268  12.814 -0.4270  0.0831  0.2687
 1308TIP3    H125339   6.562   2.314  12.763  0.0713 -0.1154  0.7299
 1308TIP3    H225340   6.412   2.301  12.781 -0.0840  1.0311  0.3379
 1309TIP3   OH225341   0.720   2.129  16.475 -0.8820 -0.3412 -0.4210
 1309TIP3    H125342   0.729   2.153  16.567 -0.6533  0.6608 -0.6914
 1309TIP3    H225343   0.809   2.132  16.440 -0.8703 -1.4499 -0.5094
 1310TIP3   OH225344   5.864   0.847  15.306 -0.4697 -0.0544  0.0818
 1310TIP3    H125345   5.797   0.899  15.351 -1.2775 -1.0168  0.0348
 1310TIP3    H225346   5.834   0.757  15.315  0.2609 -0.4119 -0.8788
 1311TIP3   OH225347   5.254   0.937   6.143  0.0999  0.1621 -0.4813
 1311TIP3    H125348   5.242   1.008   6.206 -0.3562 -0.0278 -0.3518
 1311TIP3    H225349   5.232   0.977   6.058 -0.9420 -0.0267 -0.3171
 1312TIP3   OH225350   1.068   3.293  13.453  0.1329 -0.3959  0.6187
 1312TIP3    H125351   1.147   3.267  13.501  1.0026 -0.7635 -0.9553
 1312TIP3    H225352   1.064   3.233  13.379  0.7325  2.2011 -1.6840
 1313TIP3   OH225353   5.902   6.374   0.057 -0.6487  0.6320 -0.2098
 1313TIP3    H125354   5.843   6.440   0.094  0.2373  1.9700 -1.1146
 1313TIP3    H225355   5.851   6.334  -0.013 -1.0504  0.6125  0.0873
 1314TIP3   OH225356   6.091   1.749   4.341  0.6135 -0.1099  0.1200
 1314TIP3    H125357   6.070   1.657   4.360 -1.5896 -0.0402 -1.6945
 1314TIP3    H225358   6.144   1.776   4.416  0.7173 -2.6431  1.0711
 1315TIP3   OH225359   5.029   6.346   0.474  0.3946 -0.1852 -0.2405
 1315TIP3    H125360   5.022   6.356   0.379  0.1458  0.1612 -0.1874
 1315TIP3    H225361   4.997   6.429   0.509 -0.2306 -0.5953  0.1671
 1316TIP3   OH225362   1.212   0.939   2.034 -0.8768 -0.2557 -0.3127
 1316TIP3    H125363   1.207   0.848   2.064 -0.2156 -0.6363 -1.3029
 1316TIP3    H225364   1.306   0.957   2.027 -1.0062  0.3058 -0.6769
 1317TIP3   OH225365   0.754   4.585  13.494 -0.0187  0.0944 -0.1386
 1317TIP3    H125366   0.779   4.598  13.402 -0.0945  2.5877  0.1255
 1317TIP3    H225367   0.703   4.504  13.494 -0.9901  0.6271 -2.5113
 1318TIP3   OH225368   2.866   2.793  14.769 -0.2590  0.1594 -0.0779
 1318TIP3    H125369   2.805   2.773  14.698 -0.0493  0.2002 -0.2730
 1318TIP3    H225370   2.874   2.711  14.818 -0.2452  0.0705 -0.2268
 1319TIP3   OH225371   3.736   5.905  13.080 -0.2180  0.6538 -0.1845
 1319TIP3    H125372   3.683   5.849  13.137 -0.1892  0.3499 -0.4563
 1319TIP3    H225373   3.747   5.854  13.000  0.4899  0.7178 -0.1327
 1320TIP3   OH225374   4.861   3.497  12.342 -0.2618  0.2478  0.4536
 1320TIP3    H125375   4.876   3.500  12.437 -0.7815 -0.7893  0.5873
 1320TIP3    H225376   4.828   3.584  12.320  0.4336  0.6881  1.1203
 1321TIP3   OH225377   5.725   4.536  15.611  0.3140 -0.0982 -0.2656
 1321TIP3    H125378   5.758   4.618  15.646 -2.5561  1.0408  0.0868
 1321TIP3    H225379   5.713   4.480  15.688  0.1033  0.0264 -0.2058
 1322TIP3   OH225380   3.594   2.182  11.894  0.2617  0.0529  0.8372
 1322TIP3    H125381   3.656   2.159  11.963  0.4863 -1.8033  0.0946
 1322TIP3    H225382   3.508   2.174  11.935  0.3961 -0.9499  0.9522
 1323TIP3   OH225383   4.823   2.322  14.771 -0.9646  0.5214  0.3249
 1323TIP3    H125384   4.822   2.308  14.866  0.3427  1.0813  0.4313
 1323TIP3    H225385   4.909   2.290  14.743 -0.0652  3.1879 -0.2057
 1324TIP3   OH225386   5.332   3.579   4.388 -0.0907  0.0357  0.0434
 1324TIP3    H125387   5.244   3.562   4.422 -0.2519  0.4478 -0.1595
 1324TIP3    H225388   5.318   3.603   4.296  0.3359 -1.0816 -0.3402
 1325TIP3   OH225389   0.544   1.621  14.050  0.1182  0.0702  0.9427
 1325TIP3    H125390   0.608   1.611  14.120  0.1276  0.1980  0.9537
 1325TIP3    H225391   0.462   1.586  14.086  0.7646 -2.6447  0.0034
 1326TIP3   OH225392   0.023   0.639  15.255  0.6088 -0.1420 -0.2500
 1326TIP3    H125393  -0.060   0.670  15.220  1.0420  1.0087 -0.2939
 1326TIP3    H225394   0.028   0.677  15.343  1.5322  0.6393 -0.6236
 1327TIP3   OH225395   0.414   2.615   4.259 -0.2949  0.1924  0.1487
 1327TIP3    H125396   0.484   2.596   4.196  0.7141 -0.8461  1.5168
 1327TIP3    H225397   0.454   2.674   4.323 -0.5164 -0.7318  1.1678
 1328TIP3   OH225398   3.025   3.287  12.309 -0.0763 -0.0492  0.0907
 1328TIP3    H125399   2.998   3.200  12.279 -0.0044  0.0033 -0.1259
 1328TIP3    H225400   3.095   3.270  12.372 -0.6673 -0.1914  0.7290
 1329TIP3   OH225401   4.292   6.628   4.628  0.2150 -0.2558 -0.2564
 1329TIP3    H125402   4.230   6.698   4.609 -1.9208 -1.7131  0.8257
 1329TIP3    H225403   4.261   6.554   4.575  0.2612 -1.3638  1.1967
 1330TIP3   OH225404   6.200   5.877  11.658  0.1461  0.7562  0.2625
 1330TIP3    H125405   6.240   5.942  11.716  3.0713 -1.5732  1.1391
 1330TIP3    H225406   6.274   5.839  11.610 -1.3559 -1.9034 -0.1421
 1331TIP3   OH225407   0.337   1.134  15.805  0.3170 -0.3291 -0.7429
 1331TIP3    H125408   0.281   1.208  15.782  0.8367  0.7297  1.1653
 1331TIP3    H225409   0.277   1.060  15.815 -0.3636  0.1156 -1.4879
 1332TIP3   OH225410   4.240   3.816   0.557 -0.4946 -0.3144  0.0337
 1332TIP3    H125411   4.152   3.827   0.592 -1.3032  1.3463 -2.2886
 1332TIP3    H225412   4.296   3.815   0.635 -2.6220 -4.6187  1.9219
 1333TIP3   OH225413   1.785   6.635  14.259 -0.6930  0.2273  0.4519
 1333TIP3    H125414   1.842   6.565  14.291 -0.0659 -0.1016 -1.2472
 1333TIP3    H225415   1.714   6.590  14.213 -0.9619  0.6841  0.4043
 1334TIP3   OH225416   6.385   5.725  11.546 -0.1733  0.0396 -0.4506
 1334TIP3    H125417   6.355   5.658  11.484 -1.5929 -1.3644  1.6192
 1334TIP3    H225418   6.467   5.691  11.580  0.4831  0.6941 -1.3442
 1335TIP3   OH225419   2.590   0.638   3.215  0.0697  0.5908  0.3442
 1335TIP3    H125420   2.650   0.650   3.142 -1.5493  0.7952 -1.0135
 1335TIP3    H225421   2.503   0.645   3.176 -0.8553  0.1012  2.2004
 1336TIP3   OH225422   3.104   2.663   5.767 -0.1796 -0.3442 -0.3937
 1336TIP3    H125423   3.129   2.731   5.830  0.7820 -1.2925  0.2937
 1336TIP3    H225424   3.148   2.687   5.686  1.2366 -0.8080  0.2049
 1337TIP3   OH225425   1.092   0.369  17.181  0.0122 -0.5588  0.1778
 1337TIP3    H125426   1.115   0.282  17.149 -0.0176 -0.1251 -1.0926
 1337TIP3    H225427   1.081   0.358  17.275  1.8987 -1.5147  0.3317
 1338TIP3   OH225428   1.074   1.042  12.403  0.1881 -0.6127  0.4993
 1338TIP3    H125429   1.034   0.955  12.409 -2.6065  0.3024 -2.0229
 1338TIP3    H225430   1.053   1.084  12.486 -0.3389 -1.6352  0.8985
 1339TIP3   OH225431   2.926   3.562   3.711  0.2994  0.1335 -0.6833
 1339TIP3    H125432   2.903   3.635   3.768 -0.4207  1.1410 -2.2036
 1339TIP3    H225433   2.884   3.486   3.751 -0.8991  0.9679 -0.3076
 1340TIP3   OH225434   2.302   3.754   3.188  0.0869  0.1590  0.1672
 1340TIP3    H125435   2.232   3.693   3.167 -2.0652  2.5875 -0.1516
 1340TIP3    H225436   2.324   3.795   3.104  0.1895  1.1071  0.6488
 1341TIP3   OH225437   6.305   4.381  15.874  0.3026 -0.5145 -0.0186
 1341TIP3    H125438   6.368   4.453  15.887  0.3778 -0.5286 -0.2890
 1341TIP3    H225439   6.303   4.369  15.779 -1.0878  0.3553 -0.1202
 1342TIP3   OH225440   2.885   1.861  12.190  0.4891  0.0019 -0.0472
 1342TIP3    H125441   2.815   1.926  12.182  0.1520 -0.3302  0.1190
 1342TIP3    H225442   2.961   1.910  12.221  0.2790  0.3379 -0.0610
 1343TIP3   OH225443   1.455   1.539  12.299  0.1068  0.3294  0.4962
 1343TIP3    H125444   1.499   1.585  12.371  1.7300  1.2494 -1.0153
 1343TIP3    H225445   1.384   1.598  12.274 -0.8229 -0.2556  1.6775
 1344TIP3   OH225446   6.150   2.416   6.085  0.0364 -0.1948 -0.1790
 1344TIP3    H125447   6.207   2.417   6.162  0.0284  0.6522 -0.1674
 1344TIP3    H225448   6.068   2.456   6.115 -0.2937 -0.7042 -0.3927
 1345TIP3   OH225449   3.304   2.794  13.547  0.2074 -0.2486 -0.1973
 1345TIP3    H125450   3.335   2.800  13.456  0.7247  1.3278  0.0513
 1345TIP3    H225451   3.208   2.792  13.539  0.2537 -0.4815 -0.7889
 1346TIP3   OH225452   1.515   5.092  16.227 -0.5458  0.4460 -0.0335
 1346TIP3    H125453   1.491   5.024  16.290 -1.1575 -0.5833 -1.3222
 1346TIP3    H225454   1.563   5.045  16.159  1.5588  1.8020  0.4444
 1347TIP3   OH225455   6.413   1.110  11.508 -0.2428 -0.1430 -0.1270
 1347TIP3    H125456   6.349   1.097  11.578 -0.0845  2.1315  0.5130
 1347TIP3    H225457   6.362   1.144  11.435  0.1951  1.9309  0.4711
 1348TIP3   OH225458   3.366   6.436   5.374  0.5098  0.2905 -0.3005
 1348TIP3    H125459   3.391   6.404   5.288  2.5364 -0.9484  0.6760
 1348TIP3    H225460   3.440   6.489   5.403  0.1940  0.1021  0.9435
 1349TIP3   OH225461   6.043   5.305  15.543  0.0848  0.3933 -0.3327
 1349TIP3    H125462   5.978   5.298  15.613  1.8083 -1.9179  1.1852
 1349TIP3    H225463   6.053   5.216  15.510  4.0395  0.0678  1.1348
 1350TIP3   OH225464   5.338   0.142  14.690  0.1663 -0.3706  0.3330
 1350TIP3    H125465   5.308   0.104  14.773 -1.3016 -1.0537 -0.4832
 1350TIP3    H225466   5.336   0.070  14.628  2.2417 -0.1132 -0.1172
 1351TIP3   OH225467   2.042   4.207   3.829 -0.0361  0.3833  0.1816
 1351TIP3    H125468   1.990   4.181   3.905  0.7673  1.8141  1.2585
 1351TIP3    H225469   2.028   4.136   3.766 -1.8171 -0.1730  1.1181
 1352TIP3   OH225470   1.257   3.178  10.848  0.4991 -0.0608 -0.3209
 1352TIP3    H125471   1.335   3.140  10.888  0.5845 -1.7083 -1.9016
 1352TIP3    H225472   1.189   3.112  10.859  0.3745 -0.3215 -2.2541
 1353TIP3   OH225473   0.454   0.336   1.909  0.2392  0.6790  0.2062
 1353TIP3    H125474   0.453   0.241   1.901 -2.4342  0.6435  0.1753
 1353TIP3    H225475   0.382   0.356   1.970 -0.1799  2.7375 -0.8757
 1354TIP3   OH225476   4.869   0.098  11.563  0.4776  0.0271  1.1112
 1354TIP3    H125477   4.947   0.153  11.563 -1.1256  2.4347  1.5150
 1354TIP3    H225478   4.798   0.157  11.537 -1.7885 -1.1589  4.0268
 1355TIP3   OH225479   1.531   3.504  14.710 -0.0622  0.1491  0.0916
 1355TIP3    H125480   1.620   3.534  14.692 -0.0303  0.7080  1.0573
 1355TIP3    H225481   1.531   3.411  14.690  0.9475 -0.0045  0.7440
 1356TIP3   OH225482   2.626   1.641  14.817 -0.0167  0.5926  0.2943
 1356TIP3    H125483   2.694   1.575  14.828 -0.3314  0.4053  1.1199
 1356TIP3    H225484   2.667   1.708  14.761  0.0530 -0.6282 -1.1677
 1357TIP3   OH225485   4.049   2.522  17.085  0.8182  0.4050 -0.8014
 1357TIP3    H125486   4.011   2.501  17.000  0.1514  0.5122 -0.5342
 1357TIP3    H225487   4.012   2.457  17.145  1.4309  0.2140 -0.6283
 1358TIP3   OH225488   2.076   1.287  14.666  0.0375 -0.2114  0.2778
 1358TIP3    H125489   2.140   1.347  14.705  0.2879 -1.6127  2.1868
 1358TIP3    H225490   2.127   1.209  14.645 -0.7713 -0.7523  0.3146
 1359TIP3   OH225491   4.894   4.799   4.806 -1.1051  0.4059  0.6399
 1359TIP3    H125492   4.914   4.892   4.819 -2.3837  0.5473  1.8213
 1359TIP3    H225493   4.966   4.753   4.850 -0.6330  0.8261  0.3209
 1360TIP3   OH225494   2.960   4.971  11.973  0.0286  0.2469  0.5277
 1360TIP3    H125495   2.989   5.050  11.926  1.6763 -1.1028 -0.8761
 1360TIP3    H225496   2.866   4.966  11.955  0.4687  0.1257 -2.2504
 1361TIP3   OH225497   2.650   4.422   2.112 -0.4354  0.3221  0.1958
 1361TIP3    H125498   2.627   4.489   2.047 -0.5542 -0.4622 -0.5882
 1361TIP3    H225499   2.569   4.408   2.161 -0.6885  0.0431 -0.2954
 1362TIP3   OH225500   2.993   4.228  13.721  0.2038  0.4879  0.1417
 1362TIP3    H125501   3.022   4.230  13.630  0.0194  1.4300  0.0933
 1362TIP3    H225502   2.923   4.162  13.723  2.0347 -1.5829  0.1970
 1363TIP3   OH225503   1.875   3.171  14.814 -0.5157 -0.1066  0.0480
 1363TIP3    H125504   1.936   3.243  14.796  2.5538 -2.4418  0.2739
 1363TIP3    H225505   1.863   3.172  14.909 -1.2010  0.5790 -0.0326
 1364TIP3   OH225506   2.112   2.752  15.607 -0.0770  0.0081 -0.3004
 1364TIP3    H125507   2.205   2.773  15.616  0.3504 -0.6820 -2.4565
 1364TIP3    H225508   2.076   2.826  15.558 -1.1478  1.2051  2.1181
 1365TIP3   OH225509   0.349   4.222  14.452 -0.2537 -0.0078 -0.2465
 1365TIP3    H125510   0.320   4.262  14.534  0.1320 -0.8699  0.3276
 1365TIP3    H225511   0.283   4.156  14.432 -0.2177  0.0290 -0.4920
 1366TIP3   OH225512   0.130   2.257   0.828 -0.1059 -0.1738  0.0850
 1366TIP3    H125513   0.142   2.352   0.836  1.1897 -0.1727 -1.2708
 1366TIP3    H225514   0.167   2.236   0.741 -1.0532 -1.8092  0.0423
 1367TIP3   OH225515   0.304   2.797  15.299  0.2193  0.0551  0.2318
 1367TIP3    H125516   0.224   2.747  15.317 -0.2342  0.9827  0.8679
 1367TIP3    H225517   0.276   2.889  15.302  1.5573  0.4673  1.9067
 1368TIP3   OH225518   3.339   3.989   1.854 -0.4333 -0.0620 -0.0940
 1368TIP3    H125519   3.291   4.003   1.772 -0.0440 -1.1192 -0.5187
 1368TIP3    H225520   3.430   4.008   1.831 -0.4431  0.5566  0.3470
 1369TIP3   OH225521   1.004   0.953   5.503  0.0602 -0.2259  0.3251
 1369TIP3    H125522   0.947   0.909   5.566  0.4589  0.8358  1.4700
 1369TIP3    H225523   1.071   0.889   5.482  0.6436 -0.2122  1.9674
 1370TIP3   OH225524   3.752   2.082  13.644  0.1652 -0.3472  0.4402
 1370TIP3    H125525   3.665   2.069  13.605 -0.6435  1.1742  1.6157
 1370TIP3    H225526   3.804   2.009  13.611 -1.0161 -0.2507 -1.8289
 1371TIP3   OH225527   3.606   1.261   4.467  0.2614 -0.7413 -0.4045
 1371TIP3    H125528   3.603   1.192   4.533  0.4018 -0.5729 -0.2178
 1371TIP3    H225529   3.624   1.216   4.385 -1.0530 -1.0810 -0.5285
 1372TIP3   OH225530   3.812   4.805  13.150  0.5328  0.5627 -0.3104
 1372TIP3    H125531   3.778   4.846  13.229  0.3358  1.1008 -0.6664
 1372TIP3    H225532   3.906   4.796  13.166  0.2954 -0.6398  0.5478
 1373TIP3   OH225533   2.962   0.091   3.164 -0.8296 -0.0448 -0.0160
 1373TIP3    H125534   2.950   0.186   3.163  0.2085  0.1386 -3.2383
 1373TIP3    H225535   3.049   0.078   3.201 -1.6101  0.0695  1.9961
 1374TIP3   OH225536   0.789   1.083  14.291 -0.3297 -0.4051  0.7947
 1374TIP3    H125537   0.793   1.178  14.280 -0.7808 -0.1692  2.3968
 1374TIP3    H225538   0.827   1.048  14.210  0.8721  1.1429  0.6340
 1375TIP3   OH225539   0.138   0.543   3.419  0.0135  0.4438  0.4469
 1375TIP3    H125540   0.226   0.582   3.413 -0.0518  1.0020  2.5205
 1375TIP3    H225541   0.145   0.481   3.491 -0.9808 -0.4791 -0.2266
 1376TIP3   OH225542   4.554   2.314  15.234 -0.0531 -0.1954 -0.5783
 1376TIP3    H125543   4.597   2.307  15.319 -0.9721 -4.0763 -0.2484
 1376TIP3    H225544   4.621   2.350  15.176  2.4621 -2.3651  0.7520
 1377TIP3   OH225545   5.304   1.762   1.540  0.0117  0.0405 -0.3097
 1377TIP3    H125546   5.249   1.749   1.462 -2.2648  1.6631  0.9369
 1377TIP3    H225547   5.276   1.693   1.600  1.7360 -1.1789 -0.8019
 1378TIP3   OH225548   6.765   5.604  10.673 -0.2828 -0.0900  0.6933
 1378TIP3    H125549   6.722   5.686  10.697 -0.5906 -0.7193  2.4402
 1378TIP3    H225550   6.706   5.535  10.704  0.7529 -0.9694  0.7935
 1379TIP3   OH225551   1.791   4.198  16.843  0.1455 -0.3287 -0.0045
 1379TIP3    H125552   1.822   4.278  16.801 -0.5928 -0.7093 -1.3183
 1379TIP3    H225553   1.865   4.138  16.838  1.1830  0.6317  2.1776
 1380TIP3   OH225554   3.723   1.890  15.903  0.3328 -0.2683 -0.2457
 1380TIP3    H125555   3.717   1.807  15.857 -2.3611 -1.1065  1.3841
 1380TIP3    H225556   3.729   1.866  15.996  0.0881  1.3264  0.2225
 1381TIP3   OH225557   4.870   6.287  16.227 -0.1875  0.0669  0.3431
 1381TIP3    H125558   4.835   6.198  16.216  0.7629 -0.4496  1.2716
 1381TIP3    H225559   4.823   6.322  16.302 -1.3527  0.7966 -0.6805
 1382TIP3   OH225560   3.833   2.693   4.443  0.4607 -0.2001 -0.0083
 1382TIP3    H125561   3.891   2.769   4.448  2.8985 -1.8908 -1.1946
 1382TIP3    H225562   3.890   2.619   4.423 -1.9110 -2.2733  0.3520
 1383TIP3   OH225563   1.792   4.661  14.640  0.1732 -0.4135 -0.2129
 1383TIP3    H125564   1.809   4.619  14.555 -0.4231 -1.0796 -0.0142
 1383TIP3    H225565   1.702   4.637  14.661  0.2429 -0.0687  0.5057
 1384TIP3   OH225566   6.056   5.643  15.755  0.2404  0.2074  0.0918
 1384TIP3    H125567   5.968   5.681  15.761  0.3982  0.4753  0.7864
 1384TIP3    H225568   6.092   5.679  15.674 -0.1857  0.3211 -0.0495
 1385TIP3   OH225569   3.510   3.645   4.368 -0.0473  0.2908  0.1657
 1385TIP3    H125570   3.489   3.681   4.454  0.4219 -1.1131  0.9046
 1385TIP3    H225571   3.447   3.573   4.358 -0.0221  0.3773 -0.6146
 1386TIP3   OH225572   5.776   3.216   3.323 -0.4453 -0.2837 -0.2817
 1386TIP3    H125573   5.837   3.166   3.269  0.6662 -0.5350  1.1357
 1386TIP3    H225574   5.749   3.155   3.392 -0.3131  0.5856  0.5671
 1387TIP3   OH225575   4.338   3.920   3.967 -0.2541  0.0616 -0.0866
 1387TIP3    H125576   4.280   3.996   3.956  1.9875  1.8707 -0.0229
 1387TIP3    H225577   4.375   3.906   3.881 -0.0636 -0.4904  0.0839
 1388TIP3   OH225578   1.593   1.260   2.285 -0.0525 -0.2350 -0.3506
 1388TIP3    H125579   1.654   1.231   2.353 -0.6744 -0.6281  0.0470
 1388TIP3    H225580   1.648   1.274   2.208  0.7828  0.8598  0.3931
 1389TIP3   OH225581   6.716   4.669   2.660  0.2135  0.2768 -0.6838
 1389TIP3    H125582   6.634   4.695   2.701  0.1282 -0.2427 -0.5209
 1389TIP3    H225583   6.779   4.668   2.731  0.0642 -0.6312 -0.5562
 1390TIP3   OH225584   4.601   6.703  12.529  0.4135  0.2369 -0.1845
 1390TIP3    H125585   4.562   6.639  12.587  0.7771  0.8816  0.7902
 1390TIP3    H225586   4.555   6.692  12.446 -0.5902 -0.2304  0.4254
 1391TIP3   OH225587   4.391   2.918  15.674  0.5543 -0.2695 -0.3237
 1391TIP3    H125588   4.431   2.962  15.598  0.3298  0.2435 -0.1466
 1391TIP3    H225589   4.298   2.912  15.652  0.0805  1.8408  0.8051
 1392TIP3   OH225590   4.031   4.380  16.022 -0.2761  0.5752  0.7541
 1392TIP3    H125591   4.087   4.383  15.945 -2.1283 -0.0401 -0.6918
 1392TIP3    H225592   4.009   4.287  16.032 -1.4261  0.8574  0.9740
 1393TIP3   OH225593   0.356   2.913   3.584 -0.0959  0.5533  1.3769
 1393TIP3    H125594   0.431   2.942   3.636  1.9798 -0.9886 -0.6065
 1393TIP3    H225595   0.343   2.821   3.610  1.2066 -0.3651 -0.9224
 1394TIP3   OH225596   4.866   1.326  16.322 -0.3440 -0.0404  0.1675
 1394TIP3    H125597   4.947   1.290  16.358  0.3775  1.2573 -0.0968
 1394TIP3    H225598   4.839   1.262  16.255  0.3637 -0.5755  0.3847
 1395TIP3   OH225599   1.742   1.640  11.008  0.4699 -0.7787  0.0250
 1395TIP3    H125600   1.750   1.605  10.919  0.6613 -0.8468  0.0673
 1395TIP3    H225601   1.655   1.679  11.011  1.1534  0.8844 -0.7945
 1396TIP3   OH225602   0.543   4.215   1.058  0.5240 -0.4406  0.3346
 1396TIP3    H125603   0.552   4.190   0.966  1.4071 -0.3920  0.3907
 1396TIP3    H225604   0.587   4.300   1.064 -1.3706  0.5725  0.3865
 1397TIP3   OH225605   6.212   4.092  15.235  0.2212  0.4371 -0.1602
 1397TIP3    H125606   6.246   4.005  15.212  0.7367  0.0395  1.9093
 1397TIP3    H225607   6.120   4.089  15.208 -0.2397 -1.4087  1.3842
 1398TIP3   OH225608   1.744   1.125   0.986  0.1016 -0.1996  0.5297
 1398TIP3    H125609   1.698   1.201   1.021  1.7853 -0.2658  3.1706
 1398TIP3    H225610   1.683   1.052   0.997 -0.1857  0.1650  1.3756
 1399TIP3   OH225611   1.614   1.246  15.550 -0.3656  0.5123  0.0558
 1399TIP3    H125612   1.575   1.176  15.497  0.0542 -0.4246  0.9416
 1399TIP3    H225613   1.597   1.326  15.501  2.0603 -0.5274 -2.7212
 1400TIP3   OH225614   5.986   0.191   6.462 -0.9306 -0.3155  0.0424
 1400TIP3    H125615   5.991   0.101   6.429 -3.9129 -0.7038  0.3995
 1400TIP3    H225616   5.914   0.231   6.413  1.0064  2.3120 -0.8905
 1401TIP3   OH225617   1.851   3.595  11.608  0.3400 -0.0264  0.1090
 1401TIP3    H125618   1.758   3.578  11.617  0.2388 -0.6655 -1.6836
 1401TIP3    H225619   1.866   3.674  11.660 -1.2956  0.3834  0.0135
 1402TIP3   OH225620   0.644   0.358   2.784  0.5011  0.5562  0.0365
 1402TIP3    H125621   0.702   0.282   2.788  0.4291  0.5275  0.6967
 1402TIP3    H225622   0.595   0.356   2.866 -1.6434 -0.3300 -1.1928
 1403TIP3   OH225623   1.452   0.805  10.848  0.6888  0.2004 -0.4413
 1403TIP3    H125624   1.471   0.721  10.805 -1.5207 -0.3368 -0.4761
 1403TIP3    H225625   1.454   0.869  10.777 -0.5592 -0.3121 -0.9629
 1404TIP3   OH225626   4.770   2.967  13.237 -0.0690  0.0359  0.3574
 1404TIP3    H125627   4.863   2.986  13.250  0.1476  0.1564 -1.2230
 1404TIP3    H225628   4.769   2.881  13.195 -0.6683  0.0711  0.2930
 1405TIP3   OH225629   4.208   4.821   5.910 -1.2087 -0.2640 -0.1496
 1405TIP3    H125630   4.138   4.885   5.921 -1.2090 -0.2595 -0.1803
 1405TIP3    H225631   4.168   4.738   5.937 -1.2706 -0.2855 -0.3050
 1406TIP3   OH225632   4.415   3.327  14.163  0.5096 -0.3623 -0.2362
 1406TIP3    H125633   4.347   3.368  14.109 -1.4856 -0.0300  2.3191
 1406TIP3    H225634   4.465   3.273  14.102 -0.7819  0.9354 -2.5938
 1407TIP3   OH225635   0.641   0.681   6.277  0.1440 -0.3457 -0.2223
 1407TIP3    H125636   0.547   0.698   6.266  0.2792  0.1614 -0.6330
 1407TIP3    H225637   0.673   0.755   6.327  0.0118 -1.3986  1.5030
 1408TIP3   OH225638   5.971   3.196   5.534 -0.6254  0.0001  0.3317
 1408TIP3    H125639   6.012   3.239   5.459 -0.0647 -0.8660  0.1263
 1408TIP3    H225640   5.884   3.237   5.541 -0.4520  0.5142 -0.4099
 1409TIP3   OH225641   5.131   2.995  14.984 -0.1285 -0.2700 -0.3829
 1409TIP3    H125642   5.196   2.925  14.990 -0.0220 -0.2411 -1.1138
 1409TIP3    H225643   5.096   3.002  15.073  1.4410  0.2726  0.2364
 1410TIP3   OH225644   5.115   0.127  16.219  0.0610  0.1112  0.1490
 1410TIP3    H125645   5.203   0.143  16.186  0.5326 -1.1776  0.6912
 1410TIP3    H225646   5.122   0.043  16.265 -1.1656  0.5689  1.2454
 1411TIP3   OH225647   0.175   5.264  13.740 -0.3355 -0.2605 -0.7507
 1411TIP3    H125648   0.147   5.174  13.726 -1.5302 -0.0934  0.3444
 1411TIP3    H225649   0.095   5.316  13.735  0.2836  0.7096 -1.0198
 1412TIP3   OH225650   2.794   6.726  12.332 -0.0975  0.2850  0.0654
 1412TIP3    H125651   2.838   6.801  12.292 -1.0903  1.6997  1.5031
 1412TIP3    H225652   2.819   6.729  12.424  0.1497 -1.4031  0.0836
 1413TIP3   OH225653   2.062   1.275   0.843 -0.2226  0.4346 -0.1013
 1413TIP3    H125654   2.098   1.336   0.779  0.5097  2.0497  1.7602
 1413TIP3    H225655   1.987   1.321   0.881 -1.7881 -1.2196 -0.9784
 1414TIP3   OH225656   5.253   3.790   5.110  0.0952  0.0449  0.4229
 1414TIP3    H125657   5.171   3.755   5.076  0.0024  1.0302 -0.3960
 1414TIP3    H225658   5.227   3.862   5.167  0.4010  0.9017 -0.4921
 1415TIP3   OH225659   2.539   3.070   2.853 -0.6117  0.3847  0.4792
 1415TIP3    H125660   2.631   3.047   2.867 -0.8545  0.6917  3.0355
 1415TIP3    H225661   2.492   2.988   2.867 -0.8187  0.4595  0.2362
 1416TIP3   OH225662   4.887   5.487  15.350 -0.1852 -0.1870  0.0570
 1416TIP3    H125663   4.920   5.398  15.346  1.5871  0.4292  0.1704
 1416TIP3    H225664   4.843   5.492  15.435 -0.4790 -0.9963 -0.0361
 1417TIP3   OH225665   6.148   6.122   2.674 -0.3527  0.5215  0.4712
 1417TIP3    H125666   6.057   6.095   2.661 -0.7118  1.8837  0.0178
 1417TIP3    H225667   6.198   6.065   2.615 -0.6532 -1.5472  2.1087
 1418TIP3   OH225668   3.098   5.736  13.630  0.1664 -0.1785  0.2459
 1418TIP3    H125669   3.169   5.785  13.589  2.0001 -0.8887  2.3927
 1418TIP3    H225670   3.105   5.757  13.723 -2.8337  0.1542  0.5036
 1419TIP3   OH225671   6.266   1.174  11.160 -0.3276 -0.1147 -0.0395
 1419TIP3    H125672   6.324   1.109  11.121 -0.3208 -0.8146  1.0794
 1419TIP3    H225673   6.178   1.140  11.144 -0.3757  0.2415 -0.5372
 1420TIP3   OH225674   2.467   4.707  14.406  0.3580  0.0665 -0.2870
 1420TIP3    H125675   2.499   4.743  14.323  0.4018 -1.1493 -0.8121
 1420TIP3    H225676   2.427   4.782  14.451 -1.5627  0.3354 -2.3072
 1421TIP3   OH225677   6.341   0.213   4.380 -0.1553  0.0634  0.1436
 1421TIP3    H125678   6.386   0.230   4.297 -1.4731  0.2360 -0.5584
 1421TIP3    H225679   6.376   0.129   4.409 -0.0180 -0.2343 -0.8375
 1422TIP3   OH225680   5.029   2.327  16.800  0.0257  0.0171 -0.1472
 1422TIP3    H125681   5.015   2.250  16.745 -1.1948 -0.3270  0.6196
 1422TIP3    H225682   5.041   2.291  16.888  0.7502  0.6342  0.0117
 1423TIP3   OH225683   2.610   4.343   0.058  0.5156 -0.1427 -0.0193
 1423TIP3    H125684   2.690   4.385   0.028  0.3424  0.2813  0.1119
 1423TIP3    H225685   2.550   4.348  -0.016 -0.0495  1.2595  0.5054
 1424TIP3   OH225686   4.760   4.759   5.151 -1.0215  0.6582 -0.0932
 1424TIP3    H125687   4.834   4.700   5.136 -0.7725  1.4244 -2.0550
 1424TIP3    H225688   4.684   4.711   5.118 -0.9229  1.1361 -1.0294
 1425TIP3   OH225689   4.347   4.277  10.702  0.3206  0.4580  0.1518
 1425TIP3    H125690   4.272   4.221  10.719  0.8778  0.3880  2.8191
 1425TIP3    H225691   4.423   4.219  10.711  0.7721  0.9620 -0.3270
 1426TIP3   OH225692   4.808   3.544  10.418 -0.3981  0.3341  0.1221
 1426TIP3    H125693   4.745   3.504  10.358 -1.2981  1.4552  0.2883
 1426TIP3    H225694   4.782   3.636  10.422  2.6912  1.4070 -1.6545
 1427TIP3   OH225695   5.199   6.333  14.622 -0.7681 -0.2752 -0.1461
 1427TIP3    H125696   5.213   6.242  14.648 -0.0013  0.2680  1.4976
 1427TIP3    H225697   5.156   6.373  14.697 -1.0163  0.7443 -0.8148
 1428TIP3   OH225698   1.922   2.618   4.747 -0.1533  0.0537  0.8432
 1428TIP3    H125699   1.844   2.617   4.692 -0.0618 -0.2909  0.7176
 1428TIP3    H225700   1.968   2.536   4.726  1.5283  1.3478 -0.9326
 1429TIP3   OH225701   3.587   5.708   0.109 -0.3239  0.4388  0.3140
 1429TIP3    H125702   3.522   5.673   0.048 -0.4858 -1.8133  1.6622
 1429TIP3    H225703   3.670   5.671   0.079 -0.4558 -0.9817  1.5961
 1430TIP3   OH225704   3.191   5.590  15.688 -0.2128  0.3040  0.2529
 1430TIP3    H125705   3.128   5.538  15.638 -1.2915  3.3169 -1.7893
 1430TIP3    H225706   3.148   5.603  15.773 -1.3204  0.3639 -0.2880
 1431TIP3   OH225707   1.125   3.424  12.316  0.2729  0.0273  0.7930
 1431TIP3    H125708   1.128   3.480  12.394  3.1809  0.9400  0.1741
 1431TIP3    H225709   1.179   3.348  12.339  0.2478 -0.2287  0.0382
 1432TIP3   OH225710   0.198   3.515   0.809 -0.0888 -0.0574  0.3625
 1432TIP3    H125711   0.216   3.484   0.898  0.7837  0.4221  0.3632
 1432TIP3    H225712   0.283   3.510   0.765 -0.4403  0.0620 -0.3391
 1433TIP3   OH225713   1.284   2.938   0.342 -0.5868  0.0972 -0.5828
 1433TIP3    H125714   1.300   2.858   0.293 -1.8568  0.0341 -0.9193
 1433TIP3    H225715   1.325   3.007   0.289 -1.5595 -0.0287 -1.5284
 1434TIP3   OH225716   5.476   1.888  15.002  0.2439 -0.1473 -0.0357
 1434TIP3    H125717   5.476   1.977  14.967  0.5106 -0.2846 -0.3900
 1434TIP3    H225718   5.386   1.873  15.030 -0.0049 -0.0828 -0.7919
 1435TIP3   OH225719   6.766   4.212   1.891 -0.0252  0.2032 -0.1529
 1435TIP3    H125720   6.724   4.163   1.963 -2.0431  2.1803  0.1192
 1435TIP3    H225721   6.700   4.215   1.822  1.1004  0.1937 -1.2679
 1436TIP3   OH225722   5.050   4.245   6.755  0.5380 -0.1649  0.3636
 1436TIP3    H125723   5.117   4.309   6.734 -1.8500  1.7645 -1.9699
 1436TIP3    H225724   5.070   4.170   6.699  1.0856  0.1185  0.1725
 1437TIP3   OH225725   5.382   1.524  11.095  0.0652  0.0176 -0.3666
 1437TIP3    H125726   5.318   1.454  11.080  0.9722 -1.1796  1.0580
 1437TIP3    H225727   5.341   1.582  11.159  0.4082 -0.8160  0.6380
 1438TIP3   OH225728   1.190   4.194  13.883 -0.0989  0.2887 -0.1970
 1438TIP3    H125729   1.211   4.148  13.802 -1.1965 -1.3277  0.3735
 1438TIP3    H225730   1.250   4.157  13.948  1.1248  1.9384 -0.3242
 1439TIP3   OH225731   4.800   4.720   5.618  0.3130  0.1412 -0.0621
 1439TIP3    H125732   4.771   4.809   5.598  0.6888  0.2923  0.0704
 1439TIP3    H225733   4.875   4.705   5.561  0.8347  0.2501  0.5813
 1440TIP3   OH225734   0.416   3.523   3.156  0.1114  0.4018  0.1006
 1440TIP3    H125735   0.502   3.526   3.114  0.9272  0.6305  1.7237
 1440TIP3    H225736   0.424   3.581   3.231 -0.9794 -0.7400  1.1379
 1441TIP3   OH225737   2.230   1.215  16.484 -0.1065  0.0590  0.1228
 1441TIP3    H125738   2.297   1.283  16.479 -0.0755  0.0079 -0.1877
 1441TIP3    H225739   2.234   1.172  16.399  1.4873 -1.8563  1.0629
 1442TIP3   OH225740   0.670   2.908   2.502  0.1178 -0.5230 -0.3214
 1442TIP3    H125741   0.708   2.870   2.422 -0.4483 -4.9789  1.2077
 1442TIP3    H225742   0.575   2.895   2.491 -0.2314  1.4866 -0.0334
 1443TIP3   OH225743   2.485   0.675  13.747 -0.3238 -0.1156  0.6545
 1443TIP3    H125744   2.528   0.644  13.827  2.4427  0.9073 -0.3259
 1443TIP3    H225745   2.527   0.625  13.677 -1.3832  0.3204 -0.3232
 1444TIP3   OH225746   2.220   6.498   3.340  0.0036  0.3127 -0.2187
 1444TIP3    H125747   2.246   6.526   3.428 -0.9851 -1.7428  0.8099
 1444TIP3    H225748   2.295   6.521   3.285  1.2079  0.5253  1.4089
 1445TIP3   OH225749   6.186   1.923  16.908  0.1178 -0.4289  0.3614
 1445TIP3    H125750   6.197   1.913  17.002 -0.4224  1.0986  0.6281
 1445TIP3    H225751   6.264   1.971  16.879  0.0078 -0.3794  0.1414
 1446TIP3   OH225752   1.481   6.692  12.383  0.1724  1.0858  0.1356
 1446TIP3    H125753   1.513   6.660  12.299 -0.7153  0.5467 -0.0133
 1446TIP3    H225754   1.440   6.616  12.424 -0.8289  1.7130  0.3452
 1447TIP3   OH225755   4.464   3.573   4.752  0.5689  0.3890 -0.5328
 1447TIP3    H125756   4.370   3.587   4.760  0.6282  1.1981 -1.1321
 1447TIP3    H225757   4.503   3.633   4.816  0.6739  0.0427 -0.2726
 1448TIP3   OH225758   5.026   3.131  16.939  0.1716  0.2424  0.2922
 1448TIP3    H125759   5.041   3.221  16.967 -1.8166  0.5252  0.5671
 1448TIP3    H225760   5.079   3.121  16.860 -0.0382  1.8312 -0.0652
 1449TIP3   OH225761   5.881   1.934   2.933  0.6182  0.1074  0.2255
 1449TIP3    H125762   5.900   1.869   2.865  1.5492  1.0720 -0.4684
 1449TIP3    H225763   5.827   1.999   2.888 -0.1478 -0.0702  0.8673
 1450TIP3   OH225764   0.057   4.212  11.905  0.3348  0.2440 -0.0329
 1450TIP3    H125765   0.053   4.119  11.928 -1.8330  0.3537  0.2673
 1450TIP3    H225766   0.070   4.213  11.810  1.6227 -0.3192  0.1191
 1451TIP3   OH225767   2.934   4.094   2.972  0.3014 -0.0041 -0.4639
 1451TIP3    H125768   3.001   4.093   2.903  0.4905  0.1440 -0.2840
 1451TIP3    H225769   2.967   4.032   3.037  1.2323  1.4534  0.5302
 1452TIP3   OH225770   2.463   1.091  12.402 -0.4137  0.6322  0.2657
 1452TIP3    H125771   2.488   0.999  12.403 -0.2726  0.6778  0.9875
 1452TIP3    H225772   2.375   1.091  12.364 -0.8632  0.0799  1.2757
 1453TIP3   OH225773   5.801   5.249   4.493  0.1237  0.5171  0.1673
 1453TIP3    H125774   5.729   5.205   4.448  0.4469  0.7763 -0.6072
 1453TIP3    H225775   5.855   5.178   4.528  1.0278  0.2365 -1.6668
 1454TIP3   OH225776   5.595   5.450  16.390 -0.0801 -0.1378 -0.1726
 1454TIP3    H125777   5.563   5.425  16.476  1.2801 -2.7906 -0.3474
 1454TIP3    H225778   5.526   5.424  16.330 -1.2469  2.1548  0.0381
 1455TIP3   OH225779   1.986   3.096   1.771  0.3739  0.5216  0.1530
 1455TIP3    H125780   2.024   3.008   1.775 -0.7634  0.0377  0.7415
 1455TIP3    H225781   1.927   3.093   1.696 -0.2330  0.5420  0.6226
 1456TIP3   OH225782   5.216   1.690  15.110  0.1311  0.0142 -0.0755
 1456TIP3    H125783   5.139   1.659  15.063  0.7132  0.3202 -1.2830
 1456TIP3    H225784   5.265   1.611  15.131 -0.9226 -0.2562  1.4958
 1457TIP3   OH225785   2.029   2.988   4.366 -0.5479  0.4061 -0.1584
 1457TIP3    H125786   1.944   3.009   4.328 -1.0636 -0.6323  0.3788
 1457TIP3    H225787   2.009   2.956   4.454  0.5037  1.2818  0.4211
 1458TIP3   OH225788   6.633   6.285  14.421 -0.3242 -0.3555  0.0096
 1458TIP3    H125789   6.646   6.371  14.381  2.0367 -1.2118 -1.2812
 1458TIP3    H225790   6.543   6.286  14.452 -0.7101  2.1683 -0.9630
 1459TIP3   OH225791   6.550   5.276  12.153  0.1513 -0.0505  0.2413
 1459TIP3    H125792   6.508   5.361  12.140 -0.6694 -0.4308  0.3323
 1459TIP3    H225793   6.556   5.238  12.065 -1.8836 -0.9857  0.4326
 1460TIP3   OH225794   4.288   4.690   6.358 -0.1361 -0.5886  0.4033
 1460TIP3    H125795   4.364   4.742   6.332 -0.6997 -0.5174 -1.2294
 1460TIP3    H225796   4.240   4.746   6.419  1.1228 -0.6496  1.4838
 1461TIP3   OH225797   1.023   4.365   0.810  0.2162  0.3217  0.9459
 1461TIP3    H125798   0.947   4.395   0.759  0.9533  0.2878 -0.2077
 1461TIP3    H225799   1.002   4.274   0.832  0.3635 -0.0260 -0.2756
 1462TIP3   OH225800   3.504   1.477   0.777  0.3142  0.6913 -0.3465
 1462TIP3    H125801   3.566   1.491   0.849  0.9649  0.7360 -0.9040
 1462TIP3    H225802   3.466   1.563   0.762 -0.4857  0.5075  0.5216
 1463TIP3   OH225803   1.318   6.380   4.192 -0.0889  0.5460 -0.7067
 1463TIP3    H125804   1.288   6.312   4.252  0.6259  0.2225 -0.7060
 1463TIP3    H225805   1.284   6.354   4.107  1.2564 -0.5316 -0.9496
 1464TIP3   OH225806   1.794   4.802  14.905  0.1339  0.2073 -0.2677
 1464TIP3    H125807   1.797   4.773  14.814 -0.4320  0.1664 -0.2753
 1464TIP3    H225808   1.872   4.763  14.946 -0.4268 -1.0534 -0.3554
 1465TIP3   OH225809   5.328   5.653  15.496 -0.1844  0.3453 -0.0010
 1465TIP3    H125810   5.277   5.607  15.563  0.6473 -0.2110  0.2646
 1465TIP3    H225811   5.341   5.588  15.427 -0.1282  0.5938 -0.2273
 1466TIP3   OH225812   3.958   2.235   5.137 -0.5483 -0.0102  0.2776
 1466TIP3    H125813   3.883   2.213   5.080  0.1617 -0.4863 -0.4911
 1466TIP3    H225814   3.938   2.324   5.168 -0.2167  0.9277 -1.9937
 1467TIP3   OH225815   4.066   4.883  11.999 -0.5975 -0.0441 -0.2188
 1467TIP3    H125816   4.130   4.850  12.062 -0.7020 -0.7890 -0.4911
 1467TIP3    H225817   4.112   4.950  11.950 -0.4629  0.4246  0.5366
 1468TIP3   OH225818   1.791   4.523   0.224  0.4540 -0.4478  0.6603
 1468TIP3    H125819   1.810   4.579   0.299 -0.6115 -1.6931  1.8932
 1468TIP3    H225820   1.822   4.436   0.249 -2.9486 -1.6639  1.1381
 1469TIP3   OH225821   1.569   0.657  16.844  0.0637  0.5160 -0.0046
 1469TIP3    H125822   1.641   0.595  16.849  0.9771  1.2173 -2.5281
 1469TIP3    H225823   1.497   0.615  16.891  1.5563 -1.0417  0.9818
 1470TIP3   OH225824   1.675   2.511  15.720  0.3679  0.1375  0.9876
 1470TIP3    H125825   1.744   2.447  15.702 -0.8069 -0.7540 -0.5413
 1470TIP3    H225826   1.719   2.596  15.714  1.1590 -0.3652 -0.9124
 1471TIP3   OH225827   5.190   0.599   1.027 -0.3594 -0.0569 -0.4261
 1471TIP3    H125828   5.270   0.647   1.004 -1.7290  2.3086 -0.6121
 1471TIP3    H225829   5.207   0.565   1.115  0.1459  2.2176  0.4246
 1472TIP3   OH225830   5.707   5.097  13.464  0.4036  0.3332 -0.3840
 1472TIP3    H125831   5.774   5.142  13.515  0.4913  0.5179 -0.6608
 1472TIP3    H225832   5.694   5.014  13.510  0.0264  0.7600  0.2919
 1473TIP3   OH225833   2.329   1.225  10.675  0.4077 -0.1184 -0.0657
 1473TIP3    H125834   2.238   1.256  10.671  0.4594  0.0189 -0.1662
 1473TIP3    H225835   2.327   1.154  10.739  0.2061 -0.1895 -0.1498
 1474TIP3   OH225836   0.649   5.998  16.309 -0.4971 -0.0856  0.0551
 1474TIP3    H125837   0.596   6.047  16.246  0.7491 -0.0222 -0.9739
 1474TIP3    H225838   0.626   5.906  16.292 -0.7999 -0.0196  0.1007
 1475TIP3   OH225839   5.112   5.113  16.586  0.3620 -0.7763 -0.6012
 1475TIP3    H125840   5.027   5.069  16.573  0.0775 -0.6119  0.5996
 1475TIP3    H225841   5.124   5.164  16.506 -1.5925  0.6840 -0.0457
 1476TIP3   OH225842   4.068   1.406   4.573  0.1014  0.0516  0.0535
 1476TIP3    H125843   3.986   1.442   4.538  0.8465  0.9548 -0.8351
 1476TIP3    H225844   4.083   1.327   4.521  0.4257  0.5703 -0.6585
 1477TIP3   OH225845   5.509   3.325  14.384 -0.5128  0.4324 -0.0092
 1477TIP3    H125846   5.578   3.389  14.401  0.2395 -0.2661 -0.2998
 1477TIP3    H225847   5.465   3.357  14.306 -0.3319  0.7439  0.0132
 1478TIP3   OH225848   0.669   6.192  12.566  0.3831 -0.0722 -0.1750
 1478TIP3    H125849   0.606   6.185  12.495 -0.1393 -1.6213  0.4155
 1478TIP3    H225850   0.626   6.248  12.631 -0.2801 -0.8711  0.0913
 1479TIP3   OH225851   6.132   3.423   4.850  0.3454 -0.4031 -0.0329
 1479TIP3    H125852   6.135   3.348   4.791  1.3565  0.1855 -0.7594
 1479TIP3    H225853   6.044   3.458   4.840 -0.3693 -1.8780  0.8270
 1480TIP3   OH225854   5.864   3.185  11.874  0.3593  0.2160 -0.3970
 1480TIP3    H125855   5.879   3.142  11.959  0.4622 -1.9923 -1.4683
 1480TIP3    H225856   5.769   3.193  11.868  0.3435  0.2572 -0.1205
 1481TIP3   OH225857   2.936   6.621  13.714 -0.1469 -0.3397 -0.2680
 1481TIP3    H125858   3.002   6.555  13.696  0.4133 -0.0649  0.6916
 1481TIP3    H225859   2.980   6.685  13.770 -1.6631 -1.0359  1.8912
 1482TIP3   OH225860   5.642   0.594  17.132  0.5804 -0.0863 -0.3380
 1482TIP3    H125861   5.653   0.500  17.147 -0.8506 -0.5966 -2.1379
 1482TIP3    H225862   5.599   0.626  17.212 -1.0098 -1.4465 -0.5895
 1483TIP3   OH225863   6.205   5.326   1.379 -0.0124 -0.1205  0.0837
 1483TIP3    H125864   6.277   5.389   1.379 -0.2134  0.1148 -0.1435
 1483TIP3    H225865   6.241   5.247   1.419 -0.3411  0.8143  2.3677
 1484TIP3   OH225866   5.971   0.442  13.851 -0.2969  0.2317  0.6142
 1484TIP3    H125867   5.917   0.415  13.776 -0.2918 -0.3750  0.8181
 1484TIP3    H225868   6.061   0.435  13.819 -0.2311 -1.2229  1.0249
 1485TIP3   OH225869   1.590   3.275   0.617 -0.1122 -0.1766  1.1549
 1485TIP3    H125870   1.511   3.226   0.597  0.5204 -0.5385 -0.7203
 1485TIP3    H225871   1.647   3.261   0.541  1.2507  1.0980  1.8717
 1486TIP3   OH225872   1.722   5.580  17.211 -0.0928 -0.2635 -0.8879
 1486TIP3    H125873   1.728   5.492  17.247 -0.4271 -0.3536 -1.0497
 1486TIP3    H225874   1.779   5.633  17.267 -2.2379  0.0484  1.1324
 1487TIP3   OH225875   4.514   3.684  12.651 -0.0675  0.6861  0.2425
 1487TIP3    H125876   4.554   3.767  12.627  0.0649  0.4235 -0.4788
 1487TIP3    H225877   4.574   3.618  12.617 -1.3257  0.2781 -1.3169
 1488TIP3   OH225878   5.021   4.264  16.530  0.4842 -0.3241 -0.2350
 1488TIP3    H125879   4.984   4.295  16.613  1.1219 -0.6218  0.1667
 1488TIP3    H225880   5.072   4.337  16.497  0.2733 -0.2240 -0.3438
 1489TIP3   OH225881   5.960   4.656  16.753 -0.0290 -0.0051 -0.4665
 1489TIP3    H125882   6.006   4.737  16.732 -1.8580  1.0351 -0.7519
 1489TIP3    H225883   5.960   4.652  16.848 -2.7517  2.1917 -0.2485
 1490TIP3   OH225884   3.310   2.893  16.333 -0.2150 -0.4594 -0.2823
 1490TIP3    H125885   3.329   2.883  16.426 -1.2388 -0.4089 -0.0540
 1490TIP3    H225886   3.344   2.813  16.293  0.9194 -0.1440  0.0015
 1491TIP3   OH225887   3.805   6.579  15.484 -0.4582  0.4311  0.4391
 1491TIP3    H125888   3.726   6.556  15.436 -1.3460 -1.3192  2.5376
 1491TIP3    H225889   3.876   6.540  15.433 -1.2248 -0.2173 -0.1629
 1492TIP3   OH225890   6.508   4.572  14.919  0.3149  0.0994 -0.1608
 1492TIP3    H125891   6.481   4.640  14.980  1.0490 -2.6067  3.5041
 1492TIP3    H225892   6.446   4.580  14.846 -1.6296  2.5778  1.5880
 1493TIP3   OH225893   2.098   3.570   5.903 -0.1255 -0.0719 -0.2790
 1493TIP3    H125894   2.138   3.493   5.863  0.8589  0.6938 -0.8263
 1493TIP3    H225895   2.166   3.638   5.898 -1.2630  1.0845 -0.5992
 1494TIP3   OH225896   5.939   3.795  13.108 -0.3515  0.6079 -0.1443
 1494TIP3    H125897   5.934   3.885  13.138  0.8765  0.8495 -0.6062
 1494TIP3    H225898   5.897   3.796  13.022 -0.7297  0.6369  0.0373
 1495TIP3   OH225899   5.136   5.131   6.125 -0.1991  0.3090  0.2665
 1495TIP3    H125900   5.106   5.169   6.208  1.9895  1.0380  0.7819
 1495TIP3    H225901   5.134   5.037   6.141 -0.7643  0.3959  0.7763
 1496TIP3   OH225902   1.150   1.967   3.158  0.3995  0.3485 -1.0560
 1496TIP3    H125903   1.125   1.914   3.083 -0.0707 -1.1921  0.1460
 1496TIP3    H225904   1.237   1.934   3.183  0.6608  1.0166 -1.0510
 1497TIP3   OH225905   4.629   3.161  12.496  0.0819  0.3278 -0.1176
 1497TIP3    H125906   4.625   3.141  12.403  0.7581  2.3907 -0.6534
 1497TIP3    H225907   4.540   3.145  12.528 -0.4906  0.8046 -1.4029
 1498TIP3   OH225908   2.312   6.608   3.574  0.0557  0.0098  0.2036
 1498TIP3    H125909   2.256   6.685   3.581  0.6495  0.5465 -0.7713
 1498TIP3    H225910   2.400   6.643   3.565  0.2855 -0.7622 -0.6798
 1499TIP3   OH225911   0.385   2.823  14.540 -0.4822 -0.3587  0.1447
 1499TIP3    H125912   0.385   2.875  14.460 -0.2387  0.6028  0.7539
 1499TIP3    H225913   0.376   2.887  14.611 -0.9512 -1.2122  0.8800
 1500TIP3   OH225914   1.339   2.895  16.469  0.5045 -0.0353  0.1092
 1500TIP3    H125915   1.360   2.925  16.381  2.4524 -0.3062  0.4322
 1500TIP3    H225916   1.253   2.853  16.461 -0.8596  2.7275 -0.9764
 1501TIP3   OH225917   4.682   1.048  15.602  0.1819  0.6477 -0.3703
 1501TIP3    H125918   4.738   1.002  15.665  0.6956  0.2841 -1.0838
 1501TIP3    H225919   4.726   1.038  15.518  0.6062  2.9270 -0.4907
 1502TIP3   OH225920   0.050   0.655   1.471 -0.0756 -0.1569 -0.0717
 1502TIP3    H125921   0.084   0.573   1.435 -2.7086 -1.5680  0.4076
 1502TIP3    H225922  -0.043   0.638   1.487 -0.2294  2.1775  2.2587
 1503TIP3   OH225923   2.297   1.560   0.300 -0.5598 -0.1381 -0.0623
 1503TIP3    H125924   2.212   1.550   0.344  0.2291  0.2240  1.6573
 1503TIP3    H225925   2.356   1.589   0.370  0.7584  0.6111 -1.4376
 1504TIP3   OH225926   4.494   1.594  15.592  0.5999  0.1074  0.4309
 1504TIP3    H125927   4.404   1.627  15.585  1.1881  1.6415 -0.2165
 1504TIP3    H225928   4.546   1.671  15.616  2.2093 -0.0210 -2.2610
 1505TIP3   OH225929   4.236   5.998  12.245  0.1689 -0.3481  0.4255
 1505TIP3    H125930   4.288   6.025  12.169 -0.3250 -0.3482  0.0837
 1505TIP3    H225931   4.242   6.073  12.305  2.8545 -1.3838  1.6375
 1506TIP3   OH225932   2.964   4.862   0.169 -0.1909 -0.2892 -0.0064
 1506TIP3    H125933   2.941   4.909   0.248 -2.6570  0.2276 -0.9224
 1506TIP3    H225934   2.915   4.780   0.175 -3.2775  1.1583 -2.3877
 1507TIP3   OH225935   6.381   5.319   0.524  0.3107  0.0460  0.3326
 1507TIP3    H125936   6.298   5.367   0.523  0.3180  0.1591 -2.6478
 1507TIP3    H225937   6.403   5.312   0.617 -1.5712  2.5080  1.0722
 1508TIP3   OH225938   4.802   1.714   4.928  0.4874  0.2379 -0.0976
 1508TIP3    H125939   4.780   1.694   5.019  0.2819  0.7467 -0.0303
 1508TIP3    H225940   4.898   1.714   4.926  0.4994 -0.9759 -0.1623
 1509TIP3   OH225941   3.386   2.341  13.655 -0.4314  0.8510  0.4465
 1509TIP3    H125942   3.387   2.274  13.586 -0.8406  0.5052  0.7709
 1509TIP3    H225943   3.337   2.414  13.616 -0.3645  0.7931  0.2495
 1510TIP3   OH225944   5.568   5.330   0.151 -0.3825  0.3228 -0.1524
 1510TIP3    H125945   5.607   5.321   0.064 -0.3731 -0.4657 -0.0795
 1510TIP3    H225946   5.490   5.384   0.137  0.5187  1.6206 -0.3540
 1511TIP3   OH225947   0.606   5.096   4.344 -0.0441  0.0702 -0.9293
 1511TIP3    H125948   0.540   5.030   4.323  0.7878 -0.7222 -1.0645
 1511TIP3    H225949   0.689   5.051   4.338  0.6049  1.3213 -1.7963
 1512TIP3   OH225950   4.261   5.122  11.918 -0.1197  0.0399  0.2634
 1512TIP3    H125951   4.304   5.170  11.988  0.6099  1.4354 -1.0600
 1512TIP3    H225952   4.328   5.063  11.884  0.3573  1.1548 -0.8314
 1513TIP3   OH225953   5.748   3.998  16.634 -0.0732  0.3845  0.1429
 1513TIP3    H125954   5.751   3.910  16.670 -1.5281  0.0379 -0.5335
 1513TIP3    H225955   5.668   4.000  16.581  1.1665  1.3621 -1.7831
 1514TIP3   OH225956   3.484   6.582  16.102 -0.4654 -0.8336  0.6248
 1514TIP3    H125957   3.578   6.599  16.103 -0.4966  0.0771 -2.0657
 1514TIP3    H225958   3.462   6.581  16.009 -3.1219 -1.0594  1.1930
 1515TIP3   OH225959   5.321   1.845  11.230  0.0198 -0.1095  0.0606
 1515TIP3    H125960   5.364   1.924  11.198  0.1076 -0.0169  0.4012
 1515TIP3    H225961   5.237   1.876  11.265  0.5499  0.0165  1.2748
 1516TIP3   OH225962   3.153   0.584   5.393  0.3202  0.1164 -0.2764
 1516TIP3    H125963   3.124   0.612   5.306  0.6700 -0.1716 -0.4889
 1516TIP3    H225964   3.110   0.499   5.405 -1.4465  1.0837  0.7308
 1517TIP3   OH225965   3.388   6.634  14.786  0.1375  0.0951 -0.4521
 1517TIP3    H125966   3.412   6.700  14.720 -0.2683  0.3347 -0.3611
 1517TIP3    H225967   3.399   6.550  14.741 -2.0012  0.3018 -1.4533
 1518TIP3   OH225968   2.313   5.387  15.457  0.5530 -0.0953 -0.2547
 1518TIP3    H125969   2.386   5.441  15.485 -0.5332  0.6813  1.2380
 1518TIP3    H225970   2.235   5.442  15.473 -0.5102 -1.7011  0.3166
 1519TIP3   OH225971   4.204   4.422   4.741  0.5089  0.1125  0.1575
 1519TIP3    H125972   4.292   4.396   4.714  0.3681 -0.0946 -0.1096
 1519TIP3    H225973   4.152   4.342   4.736  0.0521  0.4475 -0.7590
 1520TIP3   OH225974   2.360   4.148  14.842  0.3327 -0.0339  0.6120
 1520TIP3    H125975   2.416   4.215  14.802 -0.6898 -1.3848 -3.6356
 1520TIP3    H225976   2.271   4.181  14.831 -0.1531 -1.7317 -1.1230
 1521TIP3   OH225977   4.820   5.150   6.192 -0.2219  0.2777  0.1417
 1521TIP3    H125978   4.758   5.200   6.246 -0.9849  0.5619 -0.9500
 1521TIP3    H225979   4.771   5.073   6.165  0.9697 -1.1469  1.8569
 1522TIP3   OH225980   5.830   6.444  14.328 -0.2292  0.0344 -0.6604
 1522TIP3    H125981   5.908   6.402  14.364  0.2450  2.0452  0.8395
 1522TIP3    H225982   5.828   6.418  14.236  2.9947  0.9880 -1.0978
 1523TIP3   OH225983   5.351   4.704  15.398 -0.3563 -0.6772 -0.3697
 1523TIP3    H125984   5.342   4.675  15.307 -0.5510  1.6165 -1.1549
 1523TIP3    H225985   5.418   4.647  15.435  1.5016 -0.1663 -2.6984
 1524TIP3   OH225986   5.988   1.578   5.421 -0.5445  0.8471  0.5940
 1524TIP3    H125987   6.009   1.526   5.344  0.7111 -0.1782  1.5710
 1524TIP3    H225988   5.895   1.561   5.437 -0.8324  1.1391 -0.7281
 1525TIP3   OH225989   5.758   1.057  12.043  0.2214 -0.6713 -0.2552
 1525TIP3    H125990   5.823   1.098  11.986 -1.4838  0.7730 -1.2717
 1525TIP3    H225991   5.702   1.008  11.984  0.2251 -1.6980  0.5769
 1526TIP3   OH225992   5.674   4.789   5.688  0.4462  0.1631 -0.1713
 1526TIP3    H125993   5.622   4.861   5.652 -0.9947 -0.9314 -0.3446
 1526TIP3    H225994   5.624   4.710   5.667  1.8826 -0.8917  0.2002
 1527TIP3   OH225995   1.238   6.203  14.219 -0.4799 -0.0937 -0.3938
 1527TIP3    H125996   1.229   6.210  14.124 -1.2983  0.3983 -0.2844
 1527TIP3    H225997   1.289   6.280  14.244 -2.1270  0.9820 -0.1988
 1528TIP3   OH225998   5.820   0.232   4.058  0.0483 -0.3790  0.2046
 1528TIP3    H125999   5.843   0.193   4.142  1.1363  1.7815  0.9801
 1528TIP3    H226000   5.887   0.198   3.997  0.6663 -0.1558  0.7447
 1529TIP3   OH226001   5.007   0.578   3.971  0.0951  0.6067 -0.0735
 1529TIP3    H126002   4.986   0.603   4.061 -0.2620 -1.0673  0.3570
 1529TIP3    H226003   5.096   0.612   3.957 -0.5917  2.6416  0.1679
 1530TIP3   OH226004   2.322   6.569   5.311 -0.3982 -0.0815  0.3779
 1530TIP3    H126005   2.290   6.652   5.347 -0.8028  0.7985 -1.8183
 1530TIP3    H226006   2.275   6.502   5.360 -0.5462  1.0024  1.7741
 1531TIP3   OH226007   0.090   4.274   2.747  0.2687  0.4487  0.2857
 1531TIP3    H126008   0.170   4.325   2.731 -1.0044  2.2715 -0.6686
 1531TIP3    H226009   0.118   4.183   2.739  2.1823  1.0434 -0.4119
 1532TIP3   OH226010   0.257   0.130   4.831  0.5112 -0.3473  0.0016
 1532TIP3    H126011   0.228   0.098   4.917  0.8660 -0.7458 -0.0232
 1532TIP3    H226012   0.338   0.082   4.814  0.5726 -0.0878 -0.4472
 1533TIP3   OH226013   3.473   6.398   4.825 -0.4230  0.3985  0.0117
 1533TIP3    H126014   3.434   6.430   4.743 -0.6577  2.1168  0.7440
 1533TIP3    H226015   3.558   6.441   4.829  0.2456 -0.8746 -0.0420
 1534TIP3   OH226016   3.751   6.337  12.185  0.3811  0.0947 -0.4712
 1534TIP3    H126017   3.678   6.313  12.128 -1.1211  0.4372  1.2062
 1534TIP3    H226018   3.739   6.431  12.201  1.4176  0.2383 -0.4693
 1535TIP3   OH226019   5.587   0.098   4.556  0.1016  0.4493  0.9847
 1535TIP3    H126020   5.558   0.143   4.477  0.4002  0.4022  0.8481
 1535TIP3    H226021   5.664   0.147   4.585  0.5927 -0.1397  0.6802
 1536TIP3   OH226022   0.029   4.942  16.604 -0.2005 -0.1422  0.1100
 1536TIP3    H126023   0.114   4.963  16.566 -0.4597  0.6349 -0.0671
 1536TIP3    H226024   0.007   5.018  16.658 -1.7284  0.6578 -1.5085
 1537TIP3   OH226025   4.966   3.041  11.592 -0.2487  0.0388  0.0544
 1537TIP3    H126026   4.919   3.122  11.574  0.7582  0.4761 -0.7130
 1537TIP3    H226027   5.035   3.038  11.526  0.7898 -0.5904  1.1242
 1538TIP3   OH226028   0.640   2.751   3.922  0.1722  0.4398 -0.0184
 1538TIP3    H126029   0.563   2.757   3.865 -0.3039  1.7015  0.7382
 1538TIP3    H226030   0.651   2.838   3.959 -0.3020 -0.6165  2.8410
 1539TIP3   OH226031   1.054   6.584   1.452  0.1715 -0.4309 -0.0033
 1539TIP3    H126032   0.963   6.561   1.471 -0.3088  0.0288 -1.6392
 1539TIP3    H226033   1.096   6.500   1.435  0.0699 -0.6481  0.7728
 1540TIP3   OH226034   2.202   4.986  16.787  0.5039  0.3956  0.8360
 1540TIP3    H126035   2.178   4.908  16.738 -1.0015  0.9613  0.6136
 1540TIP3    H226036   2.271   4.957  16.847  0.5118 -0.9107  0.2199
 1541TIP3   OH226037   6.638   6.755  15.055  0.2716 -0.0624 -0.0101
 1541TIP3    H126038   6.653   6.663  15.077 -1.4648 -0.8350 -1.7700
 1541TIP3    H226039   6.646   6.759  14.960 -1.3357  1.2376 -0.1474
 1542TIP3   OH226040   5.334   2.320  16.463 -0.0730  0.0446 -0.0684
 1542TIP3    H126041   5.252   2.271  16.461  0.5482 -1.0190 -0.9650
 1542TIP3    H226042   5.362   2.325  16.372  0.0061  1.9257  0.0148
 1543TIP3   OH226043   5.875   2.147   0.361 -0.6241  0.7864 -0.2792
 1543TIP3    H126044   5.855   2.109   0.275 -2.7119  0.3025  0.3610
 1543TIP3    H226045   5.823   2.095   0.422  4.3619 -2.1919  2.0562
 1544TIP3   OH226046   5.323   2.611   2.931  0.1195  0.0091  0.2873
 1544TIP3    H126047   5.302   2.546   2.864  1.1868  0.5747 -0.6122
 1544TIP3    H226048   5.341   2.559   3.009 -0.2334 -0.7070 -0.0986
 1545TIP3   OH226049   3.658   5.779  14.537 -0.5937 -0.5101 -0.2577
 1545TIP3    H126050   3.688   5.828  14.614 -0.4283  1.3680 -1.4813
 1545TIP3    H226051   3.589   5.722  14.572  0.5566 -0.8847  1.5703
 1546TIP3   OH226052   0.333   6.135   2.856 -0.1417 -0.3094  0.6684
 1546TIP3    H126053   0.250   6.145   2.810  0.9460  0.1393 -1.3393
 1546TIP3    H226054   0.340   6.042   2.874 -0.7367 -0.4596  0.1604
 1547TIP3   OH226055   4.876   4.575   6.061 -0.4362 -0.5264 -0.1580
 1547TIP3    H126056   4.925   4.628   5.998  1.3070 -0.4444  1.2040
 1547TIP3    H226057   4.786   4.576   6.028 -0.5746  3.4656 -0.1017
 1548TIP3   OH226058   1.192   6.311   0.090  0.0244  0.3434  0.8934
 1548TIP3    H126059   1.258   6.375   0.065  0.1571  0.1939  0.8556
 1548TIP3    H226060   1.237   6.254   0.153 -0.6876  1.4977  2.5047
 1549TIP3   OH226061   6.188   6.576  11.904 -0.9009  0.4834  0.5094
 1549TIP3    H126062   6.162   6.585  11.995  1.4253  1.6213  1.1227
 1549TIP3    H226063   6.117   6.525  11.864 -2.3197  0.5674  2.7523
 1550TIP3   OH226064   2.054   3.561  12.931 -0.1563  0.1914  0.0275
 1550TIP3    H126065   2.112   3.564  13.008 -0.2259 -1.0336  0.1544
 1550TIP3    H226066   2.064   3.647  12.890  0.3731  0.6404  1.0496
 1551TIP3   OH226067   0.802   0.689   6.020 -0.2717 -0.0681 -0.5936
 1551TIP3    H126068   0.772   0.676   6.109 -0.9521  0.3525 -0.7520
 1551TIP3    H226069   0.820   0.783   6.014  2.0478 -0.4398 -0.2183
 1552TIP3   OH226070   4.526   5.628   1.361 -0.5194  0.0439  0.1850
 1552TIP3    H126071   4.504   5.536   1.342  0.6271 -0.2925  0.4028
 1552TIP3    H226072   4.560   5.626   1.450  1.3093  0.3585 -0.4751
 1553TIP3   OH226073   0.447   1.957  15.844 -0.2258 -0.4105  0.1276
 1553TIP3    H126074   0.366   1.955  15.794  0.2366  1.2066 -0.7391
 1553TIP3    H226075   0.505   2.014  15.794  2.0548 -2.7427 -0.1406
 1554TIP3   OH226076   5.087   2.370   1.080  0.3990  0.3829 -0.1193
 1554TIP3    H126077   5.156   2.425   1.117 -0.6028  0.7065  1.3005
 1554TIP3    H226078   5.051   2.322   1.154  0.1761 -1.0193 -1.0943
 1555TIP3   OH226079   5.909   3.371   1.801  0.6407  0.3943  0.2830
 1555TIP3    H126080   5.979   3.415   1.753  0.6404  1.6587  1.3920
 1555TIP3    H226081   5.832   3.426   1.788  0.0452 -0.4940 -0.1492
 1556TIP3   OH226082   1.539   4.830  15.082 -0.3031 -0.4675  0.3647
 1556TIP3    H126083   1.574   4.823  14.993 -0.5655  0.8054  0.1437
 1556TIP3    H226084   1.605   4.880  15.130 -0.1830 -1.1145  0.8873
 1557TIP3   OH226085   2.696   4.025   3.173  0.0733 -0.0982 -0.0837
 1557TIP3    H126086   2.671   4.087   3.242 -1.7888  0.7147 -1.4030
 1557TIP3    H226087   2.710   4.079   3.096 -0.1429 -1.1850 -0.9087
 1558TIP3   OH226088   2.491   2.558  14.731 -0.2295  0.2130  0.5967
 1558TIP3    H126089   2.557   2.528  14.794  0.4620  0.9282  0.2281
 1558TIP3    H226090   2.530   2.636  14.691 -0.9563  0.1621 -0.2278
 1559TIP3   OH226091   6.065   1.566   4.055  0.1478 -0.2077 -0.5757
 1559TIP3    H126092   6.109   1.625   4.117 -0.9045  0.2351 -0.2355
 1559TIP3    H226093   6.135   1.510   4.023  1.0978  0.9166 -0.5562
 1560TIP3   OH226094   1.350   1.354  14.291 -0.2594 -0.2897  0.0295
 1560TIP3    H126095   1.418   1.296  14.324  1.1544  1.5892  0.5843
 1560TIP3    H226096   1.304   1.385  14.370 -0.7855 -0.3803 -0.2331
 1561TIP3   OH226097   5.727   5.669   1.768 -0.2287 -0.8981  0.1087
 1561TIP3    H126098   5.795   5.712   1.821  0.6295 -0.9376 -0.9062
 1561TIP3    H226099   5.742   5.704   1.680 -0.9378 -1.6292 -0.3055
 1562TIP3   OH226100   5.769   2.857   2.426 -0.2430 -0.4748  0.4338
 1562TIP3    H126101   5.804   2.814   2.348 -0.5509 -1.6734  0.9348
 1562TIP3    H226102   5.705   2.795   2.461  1.6811 -1.1396  3.0672
 1563TIP3   OH226103   5.405   2.170   2.441  0.3573 -0.2486  0.3241
 1563TIP3    H126104   5.408   2.217   2.358  0.5023 -0.0380  0.4491
 1563TIP3    H226105   5.376   2.236   2.505  2.5675  0.2328  0.8960
 1564TIP3   OH226106   3.224   1.055   0.101  1.2730 -0.2461  0.1561
 1564TIP3    H126107   3.200   1.138   0.143 -1.3398 -0.9655  0.2669
 1564TIP3    H226108   3.272   1.081   0.023 -0.9584  1.5360 -0.7412
 1565TIP3   OH226109   3.150   4.854   4.458 -0.2820 -0.3308 -0.2437
 1565TIP3    H126110   3.150   4.909   4.537  0.3510 -0.2949 -0.2650
 1565TIP3    H226111   3.211   4.898   4.398 -0.0594 -0.8498 -0.4013
 1566TIP3   OH226112   0.308   1.334   2.707  0.2344 -0.4032 -0.1493
 1566TIP3    H126113   0.380   1.310   2.766  0.7905  1.4480  0.0240
 1566TIP3    H226114   0.230   1.333   2.763  0.7199  1.0878  0.6363
 1567TIP3   OH226115   2.215   1.858   2.556 -0.7703 -0.2110  0.4813
 1567TIP3    H126116   2.216   1.888   2.647  0.2880 -0.5391  0.5908
 1567TIP3    H226117   2.307   1.856   2.531 -1.1380  2.0804 -1.3513
 1568TIP3   OH226118   0.815   4.522  16.512 -0.4825 -0.2538  0.0742
 1568TIP3    H126119   0.862   4.507  16.429  0.5102 -0.9470  0.7468
 1568TIP3    H226120   0.884   4.527  16.578 -1.2595  0.4412  0.8589
 1569TIP3   OH226121   0.567   1.289   4.085  0.1645 -0.9023 -0.5433
 1569TIP3    H126122   0.553   1.325   3.998 -1.2376 -0.9228 -0.3467
 1569TIP3    H226123   0.534   1.199   4.079  1.1009 -1.2732 -0.2893
 1570TIP3   OH226124   4.098   3.796  13.673  0.4058 -0.2438 -0.0732
 1570TIP3    H126125   4.116   3.705  13.695  0.2638  0.1483  1.8246
 1570TIP3    H226126   4.035   3.791  13.601  1.3370 -1.6157 -0.8446
 1571TIP3   OH226127   6.450   3.336  12.357 -0.1017  0.4389  0.4664
 1571TIP3    H126128   6.427   3.243  12.364  1.0543  0.1676  0.7843
 1571TIP3    H226129   6.523   3.339  12.296 -1.2876  1.3626 -0.9920
 1572TIP3   OH226130   4.101   2.978   5.441  0.0809  0.4482  0.1921
 1572TIP3    H126131   4.054   3.061   5.446 -1.5598 -0.4743  0.5693
 1572TIP3    H226132   4.040   2.918   5.399  0.2854 -1.2117  2.1375
 1573TIP3   OH226133   4.142   3.450  13.470 -0.1599 -0.4299  0.0323
 1573TIP3    H126134   4.065   3.486  13.425  0.7766  2.5414  0.5492
 1573TIP3    H226135   4.211   3.449  13.404 -0.2530 -1.6957 -0.0592
 1574TIP3   OH226136   4.169   6.495  13.428 -0.3826  0.5448 -0.2193
 1574TIP3    H126137   4.224   6.425  13.465 -0.8037  0.4244  0.1828
 1574TIP3    H226138   4.223   6.534  13.359 -1.5255 -2.7254 -3.2652
 1575TIP3   OH226139   0.732   0.794  14.983  0.0815 -0.0200  0.4686
 1575TIP3    H126140   0.675   0.717  14.992 -1.7864  1.3038  0.6621
 1575TIP3    H226141   0.678   0.867  15.013  2.6304  1.0924  2.7220
 1576TIP3   OH226142   4.163   3.215   1.789 -0.7388  0.4406  0.3249
 1576TIP3    H126143   4.152   3.120   1.785 -0.4881  0.4661 -2.0627
 1576TIP3    H226144   4.245   3.227   1.837 -1.0379 -0.4945  1.1157
 1577TIP3   OH226145   6.288   1.860  16.098  0.0675 -0.2707  0.0190
 1577TIP3    H126146   6.292   1.826  16.009 -0.7669  0.2529 -0.2278
 1577TIP3    H226147   6.277   1.954  16.088 -0.0250 -0.2040  0.6716
 1578TIP3   OH226148   6.507   5.409  13.066 -0.2977  0.5506  0.0624
 1578TIP3    H126149   6.423   5.383  13.104 -0.5967  0.2047 -0.8180
 1578TIP3    H226150   6.560   5.435  13.142 -1.5101  1.7273  0.5328
 1579TIP3   OH226151   2.522   0.897  15.486 -0.1388 -0.6779 -0.7959
 1579TIP3    H126152   2.473   0.978  15.503 -0.4475 -0.8752 -0.7278
 1579TIP3    H226153   2.572   0.883  15.567 -0.5379 -0.8691 -0.5786
 1580TIP3   OH226154   0.183   5.610  11.756 -0.1121  0.2419 -0.3158
 1580TIP3    H126155   0.229   5.606  11.672  1.3782 -0.5798  0.5020
 1580TIP3    H226156   0.103   5.560  11.742  1.1421 -1.7786 -0.6664
 1581TIP3   OH226157   1.396   4.674   0.770  0.3208  0.0364  0.1431
 1581TIP3    H126158   1.305   4.693   0.747  0.3577 -1.3435 -1.3145
 1581TIP3    H226159   1.395   4.582   0.797  0.6700  0.9718  3.9300
 1582TIP3   OH226160   6.151   5.765  14.494 -0.3183  0.0378  0.2040
 1582TIP3    H126161   6.243   5.791  14.504 -0.1208 -0.4161 -0.3837
 1582TIP3    H226162   6.152   5.701  14.423 -0.9819 -0.5539  0.7145
 1583TIP3   OH226163   1.759   3.591   3.306 -0.1213  0.2070 -0.2593
 1583TIP3    H126164   1.765   3.556   3.217  0.9250  1.7997 -0.8425
 1583TIP3    H226165   1.764   3.513   3.362 -2.8294 -1.0403 -1.5785
 1584TIP3   OH226166   4.312   5.264   6.073  0.0644 -0.3343 -0.4077
 1584TIP3    H126167   4.274   5.206   6.006 -0.3829  0.5365 -0.9299
 1584TIP3    H226168   4.241   5.323   6.096  0.3431 -0.3660  0.5511
 1585TIP3   OH226169   1.705   2.141  12.035 -0.0397 -0.2877 -0.0568
 1585TIP3    H126170   1.663   2.189  12.106  2.6558  0.7754  0.9619
 1585TIP3    H226171   1.793   2.122  12.067  1.2150 -0.0210 -2.9837
 1586TIP3   OH226172   6.034   5.746  11.991  0.2150  0.0247  0.3848
 1586TIP3    H126173   6.015   5.780  12.079 -0.2008  0.1779  0.2361
 1586TIP3    H226174   5.996   5.810  11.931  0.8320  0.1160  0.0839
 1587TIP3   OH226175   2.060   1.297  11.883  0.4251 -0.3533 -0.2426
 1587TIP3    H126176   2.094   1.215  11.921  1.2934  1.2814  2.8483
 1587TIP3    H226177   1.977   1.310  11.928  0.4244  0.5891 -0.5136
 1588TIP3   OH226178   0.193   2.492   4.347  0.5152  0.3651 -0.0117
 1588TIP3    H126179   0.126   2.543   4.301  0.7844  0.0850 -0.7400
 1588TIP3    H226180   0.276   2.527   4.314  0.7093 -1.1253 -1.2508
 1589TIP3   OH226181   1.433   4.723  13.230  0.1703 -0.2180  0.7341
 1589TIP3    H126182   1.429   4.666  13.153  1.4523  2.6331 -1.6620
 1589TIP3    H226183   1.346   4.762  13.236  0.2363 -0.0071  0.3453
 1590TIP3   OH226184   6.753   6.668  12.087  0.0674 -0.1472  0.3855
 1590TIP3    H126185   6.673   6.621  12.111 -0.7772  1.7355  1.5144
 1590TIP3    H226186   6.807   6.666  12.166  0.2139  0.3600  0.3044
 1591TIP3   OH226187   4.766   6.687  12.757  0.1917  0.1708 -0.2530
 1591TIP3    H126188   4.854   6.696  12.719  0.3130  0.5813  0.1083
 1591TIP3    H226189   4.708   6.678  12.681  0.4892  0.4445 -0.5207
 1592TIP3   OH226190   2.936   3.268  13.849  0.4938 -0.1199  0.1315
 1592TIP3    H126191   2.991   3.345  13.834  0.4120 -0.1756 -0.4578
 1592TIP3    H226192   2.989   3.194  13.816 -0.0069 -0.1516 -0.6206
 1593TIP3   OH226193   6.283   0.767  15.537 -0.0780 -0.4783 -0.6439
 1593TIP3    H126194   6.317   0.850  15.571  0.3021 -0.6318 -0.6519
 1593TIP3    H226195   6.360   0.718  15.512 -0.2941 -0.9441 -0.3984
 1594TIP3   OH226196   0.441   0.052   5.753 -0.2959  0.2062 -0.1139
 1594TIP3    H126197   0.400  -0.001   5.685 -0.1075 -0.1505  0.0488
 1594TIP3    H226198   0.425   0.143   5.725 -1.1648  0.0792 -0.0662
 1595TIP3   OH226199   5.520   1.024  16.202  0.0772 -0.2243  0.1400
 1595TIP3    H126200   5.476   1.108  16.205  1.6568  0.6176  0.9449
 1595TIP3    H226201   5.499   0.983  16.286 -0.8232 -0.7375 -0.3164
 1596TIP3   OH226202   0.670   6.407   3.475  0.0235 -0.2435 -0.0342
 1596TIP3    H126203   0.715   6.441   3.398 -1.0771 -0.3998 -0.7633
 1596TIP3    H226204   0.622   6.331   3.443  1.2250 -1.6058  1.2453
 1597TIP3   OH226205   4.809   6.188   2.555  0.8961  0.2386 -0.6740
 1597TIP3    H126206   4.881   6.193   2.619  0.2893  1.6061 -0.0566
 1597TIP3    H226207   4.731   6.173   2.609  0.5727 -0.2202 -1.2561
 1598TIP3   OH226208   3.832   6.732   1.685  0.0636  0.8640  0.2439
 1598TIP3    H126209   3.785   6.746   1.603 -1.6756 -1.6214  0.7065
 1598TIP3    H226210   3.768   6.691   1.743  2.0942 -0.2996  1.8072
 1599TIP3   OH226211   6.297   3.259   2.475 -0.4188  0.5278 -0.5680
 1599TIP3    H126212   6.270   3.350   2.459 -2.2967  0.5460  2.0292
 1599TIP3    H226213   6.306   3.254   2.570  2.4629 -1.3439 -0.8073
 1600TIP3   OH226214   2.010   1.601  16.720 -0.6506  0.2473 -0.1499
 1600TIP3    H126215   1.963   1.537  16.667 -0.5256  1.2902 -1.5442
 1600TIP3    H226216   2.066   1.648  16.658  2.0962 -0.7469  1.3588
 1601TIP3   OH226217   5.542   5.362   0.892 -0.2205  0.9535  0.2566
 1601TIP3    H126218   5.484   5.305   0.941  0.0507 -0.3121 -0.8598
 1601TIP3    H226219   5.496   5.380   0.810  1.1336 -0.5398 -0.8990
 1602TIP3   OH226220   2.904   2.832  15.970  0.4841  0.0131 -0.4816
 1602TIP3    H126221   2.924   2.766  15.904 -0.1977 -1.7090  0.9449
 1602TIP3    H226222   2.931   2.793  16.052  1.2542  2.0760  0.3113
 1603TIP3   OH226223   3.924   5.378  16.006  0.3477  0.2806 -0.0757
 1603TIP3    H126224   3.836   5.415  16.019  0.8279  2.0352 -1.4631
 1603TIP3    H226225   3.967   5.389  16.091 -0.5421  0.0451  0.4184
 1604TIP3   OH226226   4.899   6.456   1.206  0.7104  0.2822  0.2316
 1604TIP3    H126227   4.818   6.425   1.247 -0.3187  0.9956 -1.2048
 1604TIP3    H226228   4.954   6.378   1.199 -0.3256 -0.4547  0.1465
 1605TIP3   OH226229   4.943   5.689  11.954 -0.2919 -0.2828  0.0030
 1605TIP3    H126230   4.871   5.749  11.932 -0.0782  0.0681  0.2704
 1605TIP3    H226231   4.927   5.613  11.898 -1.6991 -0.8247  1.0711
 1606TIP3   OH226232   3.881   4.363   2.204 -0.3212 -0.0767  0.0304
 1606TIP3    H126233   3.977   4.363   2.211 -0.2412  0.8439 -0.9152
 1606TIP3    H226234   3.857   4.271   2.212  0.7225 -0.4263 -0.6644
 1607TIP3   OH226235   0.851   5.045   3.947  0.4576 -0.5649  0.1644
 1607TIP3    H126236   0.763   5.037   3.984 -0.0339 -0.0120 -0.8568
 1607TIP3    H226237   0.876   5.137   3.964 -0.3591  0.1184 -2.0951
 1608TIP3   OH226238   3.744   2.789   0.140  0.4396  0.0875  0.2460
 1608TIP3    H126239   3.668   2.798   0.083  0.2875  0.7578  0.5565
 1608TIP3    H226240   3.795   2.869   0.126  1.6227 -0.7982 -0.7365
 1609TIP3   OH226241   3.294   4.196   4.061 -0.0850 -0.3733  0.0272
 1609TIP3    H126242   3.386   4.216   4.077  0.1178  0.0363 -1.4368
 1609TIP3    H226243   3.295   4.115   4.010 -0.2976  1.1183 -2.5313
 1610TIP3   OH226244   4.667   6.646  11.169  0.3075 -0.2606 -0.0424
 1610TIP3    H126245   4.747   6.629  11.119  1.2111  0.6178  1.0788
 1610TIP3    H226246   4.694   6.640  11.261 -0.7256  0.8463  0.3565
 1611TIP3   OH226247   5.455   6.662  16.669 -0.2212  0.2586  0.5941
 1611TIP3    H126248   5.507   6.637  16.744 -0.3643  0.4068  0.7432
 1611TIP3    H226249   5.373   6.695  16.706 -1.6735 -2.6836  0.3443
 1612TIP3   OH226250   2.685   6.651  14.084  0.1877  0.3654 -0.1733
 1612TIP3    H126251   2.692   6.638  13.989  0.6207 -1.0282  0.0224
 1612TIP3    H226252   2.616   6.716  14.094 -0.5203 -0.1401 -1.4165
 1613TIP3   OH226253   4.924   1.029  11.103 -0.6072 -0.2074  0.2170
 1613TIP3    H126254   4.833   1.058  11.106 -0.7345 -0.5189 -0.4996
 1613TIP3    H226255   4.962   1.078  11.030 -0.4663 -0.8146 -0.1224
 1614TIP3   OH226256   3.572   5.100  14.874  0.2588 -0.4710  0.0132
 1614TIP3    H126257   3.654   5.126  14.917  0.5971 -0.8250 -0.4075
 1614TIP3    H226258   3.599   5.040  14.805 -0.2671  0.1633 -0.7679
 1615TIP3   OH226259   3.680   5.295   1.154  1.0160 -0.7057  0.0619
 1615TIP3    H126260   3.596   5.284   1.111  0.0144  0.5670  1.5697
 1615TIP3    H226261   3.722   5.367   1.107  0.6223 -0.3808  0.2045
 1616TIP3   OH226262   2.943   1.106  11.794 -0.5425 -0.1046 -0.1257
 1616TIP3    H126263   2.974   1.032  11.742 -3.0259 -0.8027 -0.7170
 1616TIP3    H226264   2.848   1.101  11.789 -0.7977  2.2663  1.0903
 1617TIP3   OH226265   5.663   2.326   2.868  0.3062 -0.3385 -0.4660
 1617TIP3    H126266   5.599   2.287   2.928  1.1247 -1.0441 -0.0388
 1617TIP3    H226267   5.732   2.360   2.924  0.0358  0.9858 -0.8917
 1618TIP3   OH226268   3.988   5.218   3.374 -0.7731  0.1086 -0.8324
 1618TIP3    H126269   3.954   5.192   3.288 -3.1879 -3.3564  0.9156
 1618TIP3    H226270   3.936   5.293   3.399 -1.5181 -0.1597 -1.5468
 1619TIP3   OH226271   0.701   0.334   4.270 -0.0316  0.1389 -0.1288
 1619TIP3    H126272   0.660   0.415   4.299 -1.7810 -0.4147 -0.9065
 1619TIP3    H226273   0.710   0.343   4.176 -0.2697 -0.5763 -0.2281
 1620TIP3   OH226274   6.499   1.031   0.900 -0.6455 -0.7838  0.4249
 1620TIP3    H126275   6.433   1.100   0.901  1.0555  0.9363  0.1086
 1620TIP3    H226276   6.539   1.036   0.987 -0.7228 -1.6295  0.5178
 1621TIP3   OH226277   4.113   2.931   1.769 -0.3707  0.4582  0.1466
 1621TIP3    H126278   4.057   2.917   1.845  0.0751  1.7112  0.7357
 1621TIP3    H226279   4.089   2.862   1.708 -1.3757 -0.0216  1.0633
 1622TIP3   OH226280   1.040   0.286  12.098  0.2735 -0.6298 -0.4342
 1622TIP3    H126281   0.990   0.366  12.082  1.3713  0.7096  2.1520
 1622TIP3    H226282   1.021   0.263  12.189  2.0150 -1.7815 -0.3010
 1623TIP3   OH226283   2.353   4.757   2.348 -0.1836 -0.0904  0.5437
 1623TIP3    H126284   2.342   4.670   2.386 -0.5393  0.3022  1.3798
 1623TIP3    H226285   2.379   4.812   2.422 -1.2553  0.7767  0.3138
 1624TIP3   OH226286   0.143   1.942  14.350 -0.4932 -0.2762  0.5082
 1624TIP3    H126287   0.160   1.858  14.394  2.4716 -0.1302 -0.1760
 1624TIP3    H226288   0.068   1.924  14.293  0.5004 -2.7276 -0.1780
 1625TIP3   OH226289   3.986   1.384  11.843 -0.0726 -0.2741 -0.1326
 1625TIP3    H126290   3.897   1.419  11.852 -0.1304 -0.7177  1.3831
 1625TIP3    H226291   3.982   1.298  11.884  1.2878  0.1363  0.9525
 1626TIP3   OH226292   5.102   1.347   4.614 -0.0879  0.2665 -0.6867
 1626TIP3    H126293   5.059   1.350   4.699  0.5805 -0.2827 -0.3160
 1626TIP3    H226294   5.043   1.295   4.559  0.0374 -0.3865 -0.2150
 1627TIP3   OH226295   4.740   0.627  12.362 -0.0158 -0.4538 -0.4444
 1627TIP3    H126296   4.805   0.563  12.390 -0.0872 -0.3728 -0.0877
 1627TIP3    H226297   4.664   0.610  12.417 -0.1025 -0.1880 -0.4790
 1628TIP3   OH226298   1.750   2.071   2.568  0.2775  0.3681  0.0758
 1628TIP3    H126299   1.663   2.092   2.603 -0.6117 -2.5825 -0.1405
 1628TIP3    H226300   1.741   2.085   2.474  0.0386  0.0794  0.0552
 1629TIP3   OH226301   0.279   6.446  16.050 -0.2135  0.2884  0.4426
 1629TIP3    H126302   0.205   6.386  16.056 -1.1929  1.1596 -1.9550
 1629TIP3    H226303   0.270   6.503  16.126 -1.6779 -0.0014  0.5130
 1630TIP3   OH226304   0.615   3.600   3.828 -0.9676 -0.1510 -0.7038
 1630TIP3    H126305   0.611   3.505   3.813 -2.9397 -0.6071  1.9845
 1630TIP3    H226306   0.635   3.609   3.921 -0.8150  2.1165 -0.8951
 1631TIP3   OH226307   0.876   0.494  12.063  0.3952 -0.1333  0.6752
 1631TIP3    H126308   0.842   0.581  12.045  3.4525  0.8629 -0.9432
 1631TIP3    H226309   0.819   0.435  12.013 -2.3024  0.6748  2.5381
 1632TIP3   OH226310   4.463   0.887  15.345  0.0774 -0.2197 -0.0727
 1632TIP3    H126311   4.478   0.810  15.400 -0.7264 -1.3248 -1.3236
 1632TIP3    H226312   4.533   0.947  15.368  1.3650 -1.7617  0.2137
 1633TIP3   OH226313   5.873   2.397   5.958  0.7882 -0.1781  0.7856
 1633TIP3    H126314   5.841   2.307   5.967  0.1213 -0.0242  0.0622
 1633TIP3    H226315   5.912   2.399   5.871  1.6945 -0.0278  1.1874
 1634TIP3   OH226316   2.131   0.379  15.805 -0.0037 -0.0804  0.3852
 1634TIP3    H126317   2.063   0.330  15.852 -0.7085  0.5012 -0.0134
 1634TIP3    H226318   2.182   0.311  15.760 -2.3088 -0.4325 -1.9980
 1635TIP3   OH226319   3.237   0.078  11.316 -0.4517 -0.4879  0.3146
 1635TIP3    H126320   3.271   0.044  11.399  1.6828 -2.5201 -1.2699
 1635TIP3    H226321   3.311   0.127  11.279 -0.8926 -0.7884 -1.0022
 1636TIP3   OH226322   2.546   3.268  12.295  0.7077  0.4476 -0.6614
 1636TIP3    H126323   2.624   3.218  12.320 -1.0025 -1.5993  0.9736
 1636TIP3    H226324   2.509   3.219  12.221 -0.6586 -0.4501  0.5680
 1637TIP3   OH226325   1.353   6.253   2.474  0.4627  0.3216 -0.2002
 1637TIP3    H126326   1.336   6.175   2.421 -0.4599  0.5983 -0.3369
 1637TIP3    H226327   1.309   6.235   2.557 -0.5744  1.0575 -0.5589
 1638TIP3   OH226328   5.729   0.120  15.382 -0.3333 -0.2114 -0.0828
 1638TIP3    H126329   5.749   0.154  15.294 -0.7915 -0.3447 -0.2436
 1638TIP3    H226330   5.805   0.144  15.435  0.9839 -2.0452 -1.0155
 1639TIP3   OH226331   3.487   5.709  13.077  0.7054 -0.0587 -0.5525
 1639TIP3    H126332   3.438   5.790  13.091 -0.3409 -0.8147  0.4800
 1639TIP3    H226333   3.534   5.722  12.995  1.7352  2.1409  0.3179
 1640TIP3   OH226334   0.837   4.745   1.079 -0.7996  0.3705  0.0749
 1640TIP3    H126335   0.814   4.802   1.152 -1.6673  2.8440 -1.9687
 1640TIP3    H226336   0.753   4.723   1.038 -0.2559  0.2700 -1.0227
 1641TIP3   OH226337   4.862   4.264   0.602 -0.3596  0.2352  0.5852
 1641TIP3    H126338   4.945   4.224   0.629 -0.0339  1.0653  0.8442
 1641TIP3    H226339   4.806   4.257   0.679 -0.1050  0.8004  0.8239
 1642TIP3   OH226340   5.099   4.397  15.257  0.6828 -0.0131  0.0375
 1642TIP3    H126341   5.162   4.325  15.270 -0.6004 -0.9565  1.3694
 1642TIP3    H226342   5.154   4.472  15.235  2.0391 -1.4892 -1.9750
 1643TIP3   OH226343   4.789   2.429   1.056 -0.5272 -0.1667 -0.7098
 1643TIP3    H126344   4.774   2.335   1.065  1.5301 -0.4746  0.1779
 1643TIP3    H226345   4.864   2.435   0.997  0.7553  0.7433  0.9041
 1644TIP3   OH226346   6.395   2.334   0.561  0.4948 -0.4701  0.7260
 1644TIP3    H126347   6.301   2.350   0.573  0.0763  0.0579 -2.3333
 1644TIP3    H226348   6.403   2.239   0.551 -0.2794 -0.3231 -2.0773
 1645TIP3   OH226349   4.780   5.234   3.669 -0.3550  0.4772  0.2798
 1645TIP3    H126350   4.809   5.230   3.760  1.4854 -0.0319 -0.2791
 1645TIP3    H226351   4.771   5.328   3.651  2.0984  0.7636  0.2074
 1646TIP3   OH226352   3.670   2.721   1.460 -0.4763  0.4345 -0.2882
 1646TIP3    H126353   3.595   2.729   1.520 -0.2263 -1.4137  0.3134
 1646TIP3    H226354   3.723   2.798   1.480 -1.1616  0.6604  0.7985
 1647TIP3   OH226355   3.681   6.327   0.440  0.3793  0.1106 -0.2275
 1647TIP3    H126356   3.674   6.286   0.354 -1.7004 -0.1425  0.0148
 1647TIP3    H226357   3.594   6.366   0.455  0.9664  0.8876  1.3925
 1648TIP3   OH226358   5.844   3.621  11.920 -0.3744  0.5972 -0.0674
 1648TIP3    H126359   5.771   3.651  11.974 -0.3448  0.4183  0.0698
 1648TIP3    H226360   5.918   3.617  11.980  0.0064  1.7998 -0.4206
 1649TIP3   OH226361   4.141   2.209   4.535  0.0059  0.4586 -0.1535
 1649TIP3    H126362   4.051   2.196   4.568  0.6767  2.8682  3.1822
 1649TIP3    H226363   4.194   2.151   4.590  0.7298  0.8205 -0.4659
 1650TIP3   OH226364   0.415   4.552  13.743 -0.1885  0.2135  0.5442
 1650TIP3    H126365   0.429   4.548  13.649 -1.0142  1.4553  0.3476
 1650TIP3    H226366   0.498   4.526  13.781 -0.2276 -1.6296 -0.5072
 1651TIP3   OH226367   1.469   0.300   1.542  0.3463  0.3074  0.6175
 1651TIP3    H126368   1.390   0.246   1.548  0.5287  0.1153  1.3228
 1651TIP3    H226369   1.538   0.248   1.583  0.4954  1.1211  1.4467
 1652TIP3   OH226370   0.724   4.845   4.933  0.2770  0.3411  0.3925
 1652TIP3    H126371   0.653   4.802   4.885 -1.1367  2.0535  0.8896
 1652TIP3    H226372   0.786   4.774   4.951 -0.0609 -0.7479 -2.2228
 1653TIP3   OH226373   1.646   6.760   0.650 -0.2115  0.0643  0.4540
 1653TIP3    H126374   1.586   6.751   0.577  0.9264  0.0751 -0.5102
 1653TIP3    H226375   1.593   6.798   0.720 -1.3367 -0.0128 -0.3271
 1654TIP3   OH226376   0.770   4.128  12.323  0.0981 -0.1564 -0.0005
 1654TIP3    H126377   0.693   4.156  12.273  0.7281  1.0212 -0.3448
 1654TIP3    H226378   0.742   4.136  12.415 -0.2683  0.0280 -0.1243
 1655TIP3   OH226379   3.066   0.459  17.061  0.2567  0.0019  0.3913
 1655TIP3    H126380   3.118   0.392  17.105  0.0878 -0.0539  0.5077
 1655TIP3    H226381   3.088   0.541  17.106  0.8574  0.1130 -0.0908
 1656TIP3   OH226382   0.956   1.880  13.994  0.0739  0.3668 -0.2753
 1656TIP3    H126383   0.884   1.921  14.041  0.1720  1.2994 -0.9090
 1656TIP3    H226384   0.914   1.822  13.930 -0.1002  0.6351 -0.4021
 1657TIP3   OH226385   6.659   4.563   2.026 -0.3670 -0.6882  0.4975
 1657TIP3    H126386   6.593   4.529   1.966  1.2021 -0.7836 -1.2751
 1657TIP3    H226387   6.719   4.613   1.970  2.3166 -2.4262  1.6100
 1658TIP3   OH226388   2.572   1.793  14.484  0.2300  0.1486  0.2739
 1658TIP3    H126389   2.638   1.779  14.552 -2.1627 -1.1060  2.5437
 1658TIP3    H226390   2.495   1.822  14.533 -1.5137 -0.4626 -1.9789
 1659TIP3   OH226391   6.093   0.652   4.492  0.1856  0.6761  0.3668
 1659TIP3    H126392   6.058   0.577   4.444 -1.2042  1.0201  0.7929
 1659TIP3    H226393   6.178   0.622   4.524 -0.3534 -0.7428  0.5597
 1660TIP3   OH226394   5.036   4.992  12.233  0.4110 -0.1731 -0.3608
 1660TIP3    H126395   4.949   4.995  12.274  0.9272 -1.0201  0.8427
 1660TIP3    H226396   5.021   5.023  12.144 -0.7887  1.5514  0.3897
 1661TIP3   OH226397   0.010   2.873  12.878  0.0179  0.1110 -0.3368
 1661TIP3    H126398  -0.012   2.942  12.941  1.1736  1.3613 -1.2225
 1661TIP3    H226399  -0.027   2.793  12.915 -3.9465  1.5861 -0.6626
 1662TIP3   OH226400   0.507   1.435   4.810  0.1601 -0.1446 -0.2283
 1662TIP3    H126401   0.488   1.357   4.862  1.1096  0.4451  1.0727
 1662TIP3    H226402   0.449   1.503   4.845  0.1716  0.0313 -0.5443
 1663TIP3   OH226403   6.658   1.274  13.748 -0.6471 -0.3098  1.0153
 1663TIP3    H126404   6.637   1.182  13.767  0.3548 -0.6547  0.4783
 1663TIP3    H226405   6.723   1.271  13.678  1.2741  0.6968  2.6307
 1664TIP3   OH226406   6.376   3.882  13.110 -0.4583  0.4668  0.3462
 1664TIP3    H126407   6.337   3.906  13.195 -0.8814  1.8660 -0.2149
 1664TIP3    H226408   6.347   3.792  13.095 -1.9303  0.8273  0.8291
 1665TIP3   OH226409   1.643   5.098  12.312  0.1319 -0.6523 -0.1704
 1665TIP3    H126410   1.690   5.058  12.239 -1.2540 -0.7996 -1.0144
 1665TIP3    H226411   1.688   5.064  12.390  1.0584 -1.2190 -0.9199
 1666TIP3   OH226412   2.643   3.810  11.044  0.0674  0.2429 -0.5980
 1666TIP3    H126413   2.623   3.894  11.084 -0.1229  0.3293 -0.8787
 1666TIP3    H226414   2.711   3.830  10.979  1.8566 -0.1838  1.0258
 1667TIP3   OH226415   3.872   5.815   1.022 -0.5650 -0.0482  0.1441
 1667TIP3    H126416   3.926   5.824   1.100 -2.5945 -0.7332  1.6941
 1667TIP3    H226417   3.792   5.864   1.041 -1.7241 -1.4363 -0.8818
 1668TIP3   OH226418   4.651   5.065  13.918  0.2898  0.0861  0.1638
 1668TIP3    H126419   4.639   5.050  14.011 -0.6382 -0.1185  0.0199
 1668TIP3    H226420   4.563   5.074  13.883  0.6336  3.4743 -0.1850
 1669TIP3   OH226421   5.174   1.071  14.133 -0.3642 -0.0633 -0.7143
 1669TIP3    H126422   5.122   1.051  14.055 -2.6529 -0.0645  0.7243
 1669TIP3    H226423   5.129   1.026  14.204  0.6051  1.3866  0.9004
 1670TIP3   OH226424   1.093   5.589  13.950  0.0347 -0.0099  0.2175
 1670TIP3    H126425   1.137   5.528  14.009 -0.4996 -0.4395  0.1734
 1670TIP3    H226426   1.155   5.602  13.878  1.0236  1.1217  1.2340
 1671TIP3   OH226427   1.600   5.580   1.424  0.3923  0.4707 -0.1514
 1671TIP3    H126428   1.636   5.567   1.512 -1.7932 -1.9680  0.5189
 1671TIP3    H226429   1.656   5.527   1.367  0.5203  0.2920  0.1394
 1672TIP3   OH226430   4.606   3.777  15.476  0.2497  0.8154  0.2148
 1672TIP3    H126431   4.543   3.823  15.530  0.5220  0.2415  1.0395
 1672TIP3    H226432   4.580   3.797  15.386 -1.4926  0.0697  0.5257
 1673TIP3   OH226433   5.048   5.335  15.980  0.0249  0.3065 -0.3800
 1673TIP3    H126434   5.059   5.400  16.049  0.9978  0.4997 -0.6977
 1673TIP3    H226435   5.134   5.332  15.936 -0.0216 -1.1488 -0.4119
 1674TIP3   OH226436   5.546   4.115  15.535 -0.0611  0.6273 -0.6501
 1674TIP3    H126437   5.600   4.143  15.462 -0.5541  0.3485 -1.1298
 1674TIP3    H226438   5.478   4.061  15.495  1.1550 -1.7621  0.2591
 1675TIP3   OH226439   4.342   0.722  12.646 -0.1251  0.2327  0.3445
 1675TIP3    H126440   4.273   0.785  12.665  0.8964  1.3124  0.6382
 1675TIP3    H226441   4.357   0.677  12.729 -0.1253  0.3736  0.4216
 1676TIP3   OH226442   0.452   3.360  14.811  0.0187 -0.6301 -0.2763
 1676TIP3    H126443   0.365   3.397  14.817  0.9541  1.7171 -0.1504
 1676TIP3    H226444   0.469   3.322  14.898 -1.5793 -3.0243 -0.9076
 1677TIP3   OH226445   6.163   4.180   3.048 -0.1100  0.3705 -0.0017
 1677TIP3    H126446   6.139   4.190   3.141  0.1251  0.6272  0.0328
 1677TIP3    H226447   6.147   4.267   3.011  2.1226  0.9878  0.3254
 1678TIP3   OH226448   3.167   4.084  14.093  0.1981 -0.6829 -0.0998
 1678TIP3    H126449   3.116   4.161  14.119 -0.6821 -0.3497 -2.5645
 1678TIP3    H226450   3.106   4.032  14.040  1.7245 -1.4586 -1.1641
 1679TIP3   OH226451   1.690   3.431   1.442 -0.8192  0.2764 -0.1569
 1679TIP3    H126452   1.665   3.459   1.530  0.2092  2.1215 -0.4050
 1679TIP3    H226453   1.627   3.473   1.384 -2.5414 -2.2617 -0.2898
 1680TIP3   OH226454   2.804   2.173   5.574  0.1060 -0.4051  0.1408
 1680TIP3    H126455   2.843   2.170   5.661 -0.3270  2.3780  0.4998
 1680TIP3    H226456   2.722   2.124   5.582  1.1964 -2.2843  0.5767
 1681TIP3   OH226457   1.853   0.820   2.826  0.9726 -0.1361  0.4955
 1681TIP3    H126458   1.885   0.744   2.778  0.7862  0.3833 -0.4689
 1681TIP3    H226459   1.806   0.872   2.761  2.7491  1.8053  0.6616
 1682TIP3   OH226460   5.605   0.199  13.618  0.3782  0.2553 -0.2389
 1682TIP3    H126461   5.581   0.239  13.535 -2.0382  0.6726  0.5682
 1682TIP3    H226462   5.536   0.227  13.679  0.7850 -1.8902  1.3372
 1683TIP3   OH226463   0.869   5.578   0.902  0.5222  0.3714 -0.4214
 1683TIP3    H126464   0.866   5.483   0.916  0.5911  0.2672 -1.0795
 1683TIP3    H226465   0.873   5.615   0.990 -2.1098 -0.1335  0.0227
 1684TIP3   OH226466   5.805   2.595  11.309 -0.0169 -0.2284 -0.2571
 1684TIP3    H126467   5.738   2.623  11.372 -0.0839 -0.8635 -0.0422
 1684TIP3    H226468   5.888   2.612  11.354 -0.0606 -0.5150 -0.0666
 1685TIP3   OH226469   2.604   5.258   2.466 -0.3128  0.0398  0.5205
 1685TIP3    H126470   2.673   5.192   2.456 -1.7475 -1.5501  0.4659
 1685TIP3    H226471   2.566   5.239   2.552 -2.1634 -0.7078 -0.3927
 1686TIP3   OH226472   4.547   1.869   1.798 -0.6093 -0.3662 -0.2856
 1686TIP3    H126473   4.489   1.873   1.722 -0.3088  1.3738 -0.4668
 1686TIP3    H226474   4.634   1.891   1.763 -0.4363  0.2538  0.5021
 1687TIP3   OH226475   0.099   1.720   2.405  0.0927  0.2437 -0.2391
 1687TIP3    H126476   0.184   1.678   2.415  1.3792  2.5348 -0.7609
 1687TIP3    H226477   0.098   1.750   2.314 -0.0337  2.5851  0.4531
 1688TIP3   OH226478   3.663   2.918   4.975 -0.1402  0.4538  0.1253
 1688TIP3    H126479   3.748   2.910   4.931  0.1447  2.4166  0.2351
 1688TIP3    H226480   3.602   2.872   4.918  1.2038 -2.4933  0.8626
 1689TIP3   OH226481   0.681   3.367  12.413  0.9008 -0.5940 -0.7184
 1689TIP3    H126482   0.738   3.308  12.463  0.9866  0.6248  0.6737
 1689TIP3    H226483   0.726   3.452  12.415 -0.9488  0.4118  0.4396
 1690TIP3   OH226484   3.477   5.361  12.490 -0.2576 -0.1703  0.0690
 1690TIP3    H126485   3.407   5.319  12.440 -1.9197  1.9339  0.4855
 1690TIP3    H226486   3.506   5.433  12.435  0.3823  0.0184  0.6355
 1691TIP3   OH226487   6.551   6.738   4.283  0.1895  0.4507 -0.5368
 1691TIP3    H126488   6.510   6.671   4.228 -1.0916  0.4138  0.4250
 1691TIP3    H226489   6.631   6.696   4.315 -0.9096 -0.9179  0.5891
 1692TIP3   OH226490   6.640   2.891  10.385 -0.0375 -0.2578  0.0346
 1692TIP3    H126491   6.559   2.938  10.365  0.3720  0.5969  0.2833
 1692TIP3    H226492   6.671   2.932  10.466  0.6511 -0.5489 -0.0741
 1693TIP3   OH226493   6.595   0.610   4.894  0.0717  0.5044 -0.0221
 1693TIP3    H126494   6.659   0.541   4.880 -1.1328 -0.7357  0.4148
 1693TIP3    H226495   6.633   0.687   4.852  0.8553 -0.7354 -1.6780
 1694TIP3   OH226496   5.464   0.360  14.337 -0.2699 -0.0024 -0.0134
 1694TIP3    H126497   5.499   0.418  14.269  1.1432 -0.6052  0.1765
 1694TIP3    H226498   5.525   0.369  14.410 -1.5988  0.4102  1.0968
 1695TIP3   OH226499   0.432   1.695   4.903 -1.0322 -0.0502  0.5388
 1695TIP3    H126500   0.404   1.748   4.829 -2.3743 -1.0999  0.2479
 1695TIP3    H226501   0.379   1.727   4.976 -0.5130  0.2315  0.7988
 1696TIP3   OH226502   0.598   3.593  12.105  0.1345  0.6832  0.2987
 1696TIP3    H126503   0.512   3.623  12.134  0.3043  0.4963  1.0193
 1696TIP3    H226504   0.580   3.530  12.036 -0.2754  1.3215 -0.1818
 1697TIP3   OH226505   5.065   6.237   3.883  0.0897 -0.2396 -0.2116
 1697TIP3    H126506   5.089   6.321   3.920  0.7275  0.4879 -2.1350
 1697TIP3    H226507   5.095   6.173   3.948  0.9847  0.9481  0.5878
 1698TIP3   OH226508   1.143   1.937  12.185 -0.3592 -0.0231 -0.5593
 1698TIP3    H126509   1.237   1.956  12.180 -1.0094  4.1005 -1.3753
 1698TIP3    H226510   1.116   1.924  12.094 -0.6478 -0.9833 -0.3456
 1699TIP3   OH226511   6.511   4.377  13.893  0.1780  0.5392 -0.0077
 1699TIP3    H126512   6.580   4.314  13.912  0.9217  1.8631  1.9701
 1699TIP3    H226513   6.554   4.448  13.845 -0.4420  0.0708 -1.3151
 1700TIP3   OH226514   1.567   3.922  14.801 -0.2600  0.2967 -0.5012
 1700TIP3    H126515   1.543   3.894  14.713 -0.5613  1.3998 -0.7759
 1700TIP3    H226516   1.495   3.979  14.829  0.5250  1.1097 -0.1001
 1701TIP3   OH226517   3.899   0.935  13.144  0.5056 -0.1574  0.0963
 1701TIP3    H126518   3.813   0.926  13.185 -0.0634 -1.2204 -1.2685
 1701TIP3    H226519   3.890   0.892  13.059  1.9268  1.1339 -0.7527
 1702TIP3   OH226520   1.644   0.690  12.083 -0.0552 -0.4179 -0.1233
 1702TIP3    H126521   1.635   0.713  12.176  2.0859  2.2272 -0.4258
 1702TIP3    H226522   1.728   0.643  12.078  0.0161 -0.2284 -0.7427
 1703TIP3   OH226523   1.393   1.400  16.291 -0.0382 -0.3611 -0.9852
 1703TIP3    H126524   1.336   1.378  16.365 -1.5163 -0.3566 -2.1026
 1703TIP3    H226525   1.371   1.336  16.224 -0.4112  1.0712 -2.2701
 1704TIP3   OH226526   1.957   4.922   6.660 -0.2911  0.0651  0.2917
 1704TIP3    H126527   1.866   4.929   6.633 -0.2965  0.1990  0.3437
 1704TIP3    H226528   1.972   5.000   6.714  0.1938  0.6993 -0.7220
 1705TIP3   OH226529   2.358   3.521  16.250  0.0056 -0.8320  0.6543
 1705TIP3    H126530   2.416   3.450  16.221 -0.1586 -0.3416 -0.9550
 1705TIP3    H226531   2.300   3.536  16.176 -0.9815 -0.0540  1.5623
 1706TIP3   OH226532   3.312   4.904   6.259 -0.6433  0.0384  0.4337
 1706TIP3    H126533   3.407   4.908   6.263 -0.6992  1.5964  0.7847
 1706TIP3    H226534   3.293   4.837   6.193  0.7248  1.3429 -1.3770
 1707TIP3   OH226535   5.833   2.229   2.031 -0.1100  0.0265  0.0114
 1707TIP3    H126536   5.835   2.248   2.125 -0.5465 -3.1304  0.7842
 1707TIP3    H226537   5.753   2.177   2.020 -0.6252  1.2068 -2.3500
 1708TIP3   OH226538   1.955   1.844  11.412 -0.3494  0.8956  0.6410
 1708TIP3    H126539   1.958   1.832  11.507  0.1280  0.7041  0.6038
 1708TIP3    H226540   1.895   1.776  11.381 -0.2809  0.7718  0.7795
 1709TIP3   OH226541   1.784   4.454  15.106  0.1782  0.5041 -0.2610
 1709TIP3    H126542   1.773   4.366  15.140 -0.7098  0.5319 -0.4593
 1709TIP3    H226543   1.872   4.480  15.134  0.5121 -0.5030 -0.3546
 1710TIP3   OH226544   0.199   2.515   0.865  0.2210  0.0435  0.1556
 1710TIP3    H126545   0.159   2.571   0.798  1.9699 -0.0316 -1.0114
 1710TIP3    H226546   0.140   2.522   0.940 -1.1350  1.1413 -0.9500
 1711TIP3   OH226547   5.877   6.515   6.571  0.1034  0.1612 -0.4076
 1711TIP3    H126548   5.903   6.604   6.593 -0.5461 -0.0954  1.5827
 1711TIP3    H226549   5.957   6.463   6.577  0.6246  0.6662 -2.2437
 1712TIP3   OH226550   3.908   2.523  11.461 -0.6738  0.4088  0.1610
 1712TIP3    H126551   3.923   2.452  11.398 -0.1733  0.3243  0.3771
 1712TIP3    H226552   3.871   2.594  11.408 -0.2441  0.3457 -0.2313
 1713TIP3   OH226553   6.626   0.701   3.734  0.0248 -0.0011  0.1153
 1713TIP3    H126554   6.697   0.707   3.670  0.1437 -0.3085  0.2183
 1713TIP3    H226555   6.547   0.696   3.681  0.0690  0.4707  0.0007
 1714TIP3   OH226556   6.486   0.864   0.026 -0.0990  0.0717 -0.1466
 1714TIP3    H126557   6.468   0.778  -0.013 -2.5629  0.1726  0.6144
 1714TIP3    H226558   6.470   0.926  -0.045 -1.7989  0.0830  0.2183
 1715TIP3   OH226559   3.179   1.845  15.569  0.3600  0.2537  0.0481
 1715TIP3    H126560   3.141   1.883  15.647 -2.6554 -0.4691 -0.9583
 1715TIP3    H226561   3.235   1.774  15.601  0.0613  0.6883  1.5695
 1716TIP3   OH226562   6.106   2.139   5.272 -0.0114  0.5166  0.0315
 1716TIP3    H126563   6.092   2.152   5.179 -1.0129 -1.4491 -0.1264
 1716TIP3    H226564   6.162   2.061   5.278  1.2499  1.4314  1.0630
 1717TIP3   OH226565   5.243   2.614   3.393 -0.0235  0.0185  0.3804
 1717TIP3    H126566   5.234   2.540   3.452 -1.1677 -0.6352 -0.5702
 1717TIP3    H226567   5.185   2.681   3.430 -2.2234 -1.0521 -0.9423
 1718TIP3   OH226568   6.095   1.903   3.071 -0.4010 -0.0291  0.3384
 1718TIP3    H126569   6.134   1.876   2.988 -1.1266 -0.9220  0.2711
 1718TIP3    H226570   6.001   1.894   3.057 -0.5803  0.7619  0.9465
 1719TIP3   OH226571   0.708   5.701   4.917 -0.0381  0.0569  0.1531
 1719TIP3    H126572   0.706   5.620   4.866 -0.3561  1.3939 -2.1417
 1719TIP3    H226573   0.789   5.697   4.967  3.2424  0.8413 -4.5026
 1720TIP3   OH226574   3.608   2.662   3.046  0.8669 -0.3255  0.4846
 1720TIP3    H126575   3.608   2.642   2.953 -1.6569 -0.5638  0.4811
 1720TIP3    H226576   3.611   2.757   3.050 -1.7293 -0.1526  0.0018
 1721TIP3   OH226577   5.947   1.941  11.345 -0.0247  0.6781  0.2864
 1721TIP3    H126578   5.894   1.882  11.290  0.3476 -0.0237  0.6608
 1721TIP3    H226579   5.891   1.959  11.421  0.3752 -0.3304  0.8429
 1722TIP3   OH226580   4.268   2.494   6.434  0.1488 -0.2532 -0.2874
 1722TIP3    H126581   4.270   2.581   6.474 -0.6582 -0.9737  1.4575
 1722TIP3    H226582   4.351   2.454   6.459  1.0657  0.3981 -2.1278
 1723TIP3   OH226583   2.538   5.367  11.818  0.3518 -0.1752  0.3129
 1723TIP3    H126584   2.453   5.398  11.848  0.7679  2.6733 -1.0460
 1723TIP3    H226585   2.537   5.380  11.723  1.4260 -2.5167 -0.0793
 1724TIP3   OH226586   5.863   2.225  13.054 -1.0288  0.1866 -0.5497
 1724TIP3    H126587   5.889   2.311  13.086  0.9791 -0.8593  0.8223
 1724TIP3    H226588   5.793   2.196  13.113  0.6380 -0.4909  1.1919
 1725TIP3   OH226589   4.684   4.390   5.116 -0.3007  0.1912  0.3799
 1725TIP3    H126590   4.650   4.423   5.199 -2.4069 -1.4416  0.2569
 1725TIP3    H226591   4.676   4.464   5.056 -0.8764  0.7340  1.0986
 1726TIP3   OH226592   6.747   3.745   4.348 -0.2570  0.0807 -0.2483
 1726TIP3    H126593   6.732   3.820   4.405 -0.3492  0.8486 -1.2530
 1726TIP3    H226594   6.834   3.760   4.311 -1.7295  1.7698 -3.4083
 1727TIP3   OH226595   1.562   6.316   4.632  0.2459 -0.3882 -0.3672
 1727TIP3    H126596   1.520   6.238   4.669  0.6535  0.4237  1.9895
 1727TIP3    H226597   1.497   6.352   4.572 -0.9922 -1.1167  0.4865
 1728TIP3   OH226598   1.168   4.845  10.324  0.3986  0.0855 -0.4873
 1728TIP3    H126599   1.130   4.760  10.301  1.7611 -0.3333 -1.2735
 1728TIP3    H226600   1.223   4.827  10.401 -0.2782  0.5120  0.1072
 1729TIP3   OH226601   1.521   4.661  11.166  0.3228  0.1088  0.1529
 1729TIP3    H126602   1.504   4.578  11.122 -0.0803  1.2084 -1.9012
 1729TIP3    H226603   1.604   4.692  11.128 -0.0315  1.0975  0.1570
 1730TIP3   OH226604   3.526   2.315   2.805  0.4190  0.3379 -0.1577
 1730TIP3    H126605   3.508   2.304   2.898 -1.0507  0.3486 -0.4191
 1730TIP3    H226606   3.443   2.296   2.761  1.0923  0.2812 -1.4776
 1731TIP3   OH226607   0.821   1.896   4.344 -0.5406 -0.2663 -0.0360
 1731TIP3    H126608   0.830   1.856   4.257 -0.0440 -0.8650  0.2860
 1731TIP3    H226609   0.799   1.987   4.325 -0.8502 -0.4829 -0.7875
 1732TIP3   OH226610   1.239   2.822   2.136 -0.3164  0.3073 -0.4087
 1732TIP3    H126611   1.275   2.894   2.085 -1.4175  1.5638  0.5070
 1732TIP3    H226612   1.315   2.768   2.159  0.4994  1.0329 -1.3261
 1733TIP3   OH226613   0.404   0.119  12.083  0.1814 -0.5228  0.7345
 1733TIP3    H126614   0.375   0.053  12.021 -1.0679 -0.1528  0.9026
 1733TIP3    H226615   0.441   0.189  12.029 -1.3139  0.0061  0.3470
 1734TIP3   OH226616   4.381   2.856   3.982 -0.2694 -0.0021  0.2859
 1734TIP3    H126617   4.310   2.819   4.033 -0.7131  3.2021  2.2105
 1734TIP3    H226618   4.342   2.929   3.934  1.5310  1.5474  1.0273
 1735TIP3   OH226619   4.513   4.879   0.468 -0.6297  0.4758  0.0642
 1735TIP3    H126620   4.483   4.843   0.551  0.1379  0.4993  0.3628
 1735TIP3    H226621   4.442   4.860   0.406 -0.0722 -1.9774  0.0874
 1736TIP3   OH226622   6.205   2.127  16.658  0.0820 -0.2237 -0.1697
 1736TIP3    H126623   6.277   2.128  16.721 -0.2872  0.3050  0.2561
 1736TIP3    H226624   6.232   2.064  16.591  0.2351 -1.2076  0.7923
 1737TIP3   OH226625   0.894   5.162  11.803 -0.3033  0.2610 -0.1799
 1737TIP3    H126626   0.977   5.120  11.780 -0.3770 -0.4685  0.8172
 1737TIP3    H226627   0.918   5.228  11.868 -0.2900  1.2766 -1.1859
 1738TIP3   OH226628   1.711   2.660   5.591 -0.1287  0.5118 -0.8773
 1738TIP3    H126629   1.737   2.720   5.660 -1.7543 -0.0574  0.2936
 1738TIP3    H226630   1.757   2.691   5.513  0.0216  2.5293 -0.0349
 1739TIP3   OH226631   3.851   1.041   0.536  0.1601 -0.5730  0.6551
 1739TIP3    H126632   3.775   1.002   0.493  1.0864 -2.4082  0.5722
 1739TIP3    H226633   3.882   0.973   0.596  0.8183  0.7301  1.8496
 1740TIP3   OH226634   4.066   2.014  16.185  0.1529 -0.0635 -0.3207
 1740TIP3    H126635   4.161   2.020  16.173  0.1431  1.3707  0.1831
 1740TIP3    H226636   4.030   2.015  16.096  0.6599 -2.6428 -0.6373
 1741TIP3   OH226637   3.421   2.634  15.569  0.4098  0.3282 -0.5120
 1741TIP3    H126638   3.340   2.654  15.522  0.0813  0.3293  0.0371
 1741TIP3    H226639   3.437   2.542  15.552 -0.0482  0.1729 -0.1213
 1742TIP3   OH226640   3.508   0.289  16.556 -0.0794  0.9085 -0.2403
 1742TIP3    H126641   3.432   0.327  16.511  0.6683  1.7608 -0.8136
 1742TIP3    H226642   3.562   0.364  16.579  0.4767  0.3269  0.3813
 1743TIP3   OH226643   3.395   5.079  15.276  0.1494 -0.1175  0.4766
 1743TIP3    H126644   3.355   5.115  15.355 -1.3437 -0.0577 -0.2568
 1743TIP3    H226645   3.373   4.986  15.279 -1.5369  0.1957 -0.7357
 1744TIP3   OH226646   5.480   2.532   1.393  0.5736 -0.3859  0.3382
 1744TIP3    H126647   5.464   2.437   1.398  1.6699 -0.7049 -1.2536
 1744TIP3    H226648   5.575   2.540   1.392  0.5762  0.9795  3.1851
 1745TIP3   OH226649   5.520   4.443  12.954 -0.5155  0.0769 -0.6015
 1745TIP3    H126650   5.586   4.503  12.920 -1.3203  0.0151 -2.3344
 1745TIP3    H226651   5.534   4.362  12.906 -0.5596 -0.6035  0.4875
 1746TIP3   OH226652   0.030   3.380   2.789  0.0085 -0.2396  0.3943
 1746TIP3    H126653  -0.052   3.337   2.768 -0.8233  0.2733  2.3718
 1746TIP3    H226654   0.073   3.322   2.852 -0.1940  0.8132  1.5397
 1747TIP3   OH226655   3.557   1.454   2.161  0.2811  0.0967 -0.2962
 1747TIP3    H126656   3.549   1.389   2.092 -0.3054  0.6167 -0.7320
 1747TIP3    H226657   3.520   1.534   2.122  1.0317  0.6954  0.2070
 1748TIP3   OH226658   1.340   0.946   4.967 -0.0749 -0.0085  0.2777
 1748TIP3    H126659   1.376   1.034   4.978  2.0162 -0.6675 -0.7574
 1748TIP3    H226660   1.308   0.922   5.053  0.6033  1.2386  0.9037
 1749TIP3   OH226661   1.974   6.577  14.829 -0.4076  0.3261 -0.0886
 1749TIP3    H126662   1.892   6.559  14.875 -1.1001  1.5574 -0.7907
 1749TIP3    H226663   1.949   6.580  14.736  0.9830 -2.2228 -0.6357
 1750TIP3   OH226664   6.402   0.846  13.694  0.3210 -0.0300  0.3896
 1750TIP3    H126665   6.491   0.821  13.717  1.0409  1.5887 -0.5450
 1750TIP3    H226666   6.400   0.941  13.702 -0.8321  0.1289 -1.2827
 1751TIP3   OH226667   6.611   3.479  15.627  0.2107 -0.3569 -0.1893
 1751TIP3    H126668   6.643   3.389  15.641  0.2867 -0.0564  1.7821
 1751TIP3    H226669   6.530   3.484  15.677  0.3849  0.7835 -0.0047
 1752TIP3   OH226670   0.276   2.126  17.217  0.5116 -0.1513  0.5504
 1752TIP3    H126671   0.213   2.107  17.286  0.3706  0.7705  0.6876
 1752TIP3    H226672   0.358   2.088  17.247 -0.3871 -3.4272 -0.6316
 1753TIP3   OH226673   2.341   6.585   6.181 -0.3936 -0.4527  0.1421
 1753TIP3    H126674   2.423   6.560   6.138 -0.2359 -0.4736  0.4472
 1753TIP3    H226675   2.364   6.661   6.234 -0.8451  0.2756 -0.6789
 1754TIP3   OH226676   2.832   3.628  15.772 -0.5710  0.5269 -0.1508
 1754TIP3    H126677   2.791   3.593  15.693 -2.4504 -0.2828  1.1056
 1754TIP3    H226678   2.864   3.551  15.818  0.5759  0.9994 -0.1197
 1755TIP3   OH226679   1.189   2.989   1.773 -0.4173  0.3032  0.1308
 1755TIP3    H126680   1.102   3.024   1.792 -0.7055 -1.0922  1.5844
 1755TIP3    H226681   1.176   2.895   1.767  0.6597  0.2298 -1.8059
 1756TIP3   OH226682   1.909   0.480   3.822 -0.1137  0.3584  0.5221
 1756TIP3    H126683   1.813   0.482   3.822 -0.1383 -0.0420 -0.6813
 1756TIP3    H226684   1.932   0.417   3.890 -0.6812  0.8025  1.1444
 1757TIP3   OH226685   3.843   0.420   5.958  0.3778 -0.2507 -0.2851
 1757TIP3    H126686   3.838   0.428   6.054 -1.0176 -1.7131 -0.1748
 1757TIP3    H226687   3.761   0.458   5.927  0.8342  0.2361 -0.9096
 1758TIP3   OH226688   5.283   1.241   0.286 -0.7799  0.0541  0.3388
 1758TIP3    H126689   5.240   1.327   0.289 -0.8712 -0.0102  1.0022
 1758TIP3    H226690   5.377   1.261   0.295 -0.6505  0.1970 -1.1432
 1759TIP3   OH226691   5.067   6.174   1.459  0.0271  0.5962  0.4120
 1759TIP3    H126692   5.033   6.090   1.491  2.7472 -0.4595  0.7642
 1759TIP3    H226693   5.112   6.151   1.378  2.3333  1.3487  1.4221
 1760TIP3   OH226694   0.725   4.333  14.740  0.1189  0.1469  0.5086
 1760TIP3    H126695   0.697   4.406  14.685 -1.9180  0.7337  2.1909
 1760TIP3    H226696   0.713   4.255  14.685  1.5098  0.9385 -1.0132
 1761TIP3   OH226697   5.299   4.879   4.895 -0.7298 -0.3021 -0.0362
 1761TIP3    H126698   5.304   4.960   4.844 -1.3229  1.5394  2.6265
 1761TIP3    H226699   5.332   4.902   4.982  0.5203 -3.3541  0.4297
 1762TIP3   OH226700   1.416   3.593   4.560 -0.2587 -0.1890  0.2645
 1762TIP3    H126701   1.470   3.528   4.605 -0.4491  0.3492  1.3171
 1762TIP3    H226702   1.330   3.586   4.602 -0.7600 -0.4318 -0.7892
 1763TIP3   OH226703   0.468   6.006   3.811 -0.1155  0.3333  0.1605
 1763TIP3    H126704   0.413   6.040   3.882  1.2655 -0.3689  1.6404
 1763TIP3    H226705   0.553   6.050   3.823 -0.1278  0.9451 -1.6898
 1764TIP3   OH226706   3.723   4.735  11.904  0.6848 -0.1855 -0.4832
 1764TIP3    H126707   3.814   4.719  11.877  0.7509  1.9389 -1.7781
 1764TIP3    H226708   3.730   4.767  11.994  0.9336 -2.4606  0.3715
 1765TIP3   OH226709   5.597   5.986  14.678 -0.6547  0.4955  0.1684
 1765TIP3    H126710   5.560   6.044  14.611  1.5184  1.7155 -0.0789
 1765TIP3    H226711   5.599   5.900  14.637 -1.4203  0.7687 -0.4719
 1766TIP3   OH226712   4.687   6.735   5.256 -0.2509 -0.6083  0.0573
 1766TIP3    H126713   4.634   6.810   5.280  2.2673  2.3208 -2.6680
 1766TIP3    H226714   4.639   6.694   5.184 -0.7903 -0.5499  0.3784
 1767TIP3   OH226715   4.542   1.550  12.906 -0.4185 -0.0708  0.6868
 1767TIP3    H126716   4.524   1.597  12.824  2.1930  1.2310  0.7466
 1767TIP3    H226717   4.556   1.620  12.971 -1.0387 -1.0676  1.9357
 1768TIP3   OH226718   5.092   4.293   6.339 -0.0020  0.9982  0.5058
 1768TIP3    H126719   5.117   4.378   6.375 -0.1220  1.6387 -0.8558
 1768TIP3    H226720   5.010   4.310   6.293  0.5384  0.4110 -0.7257
 1769TIP3   OH226721   0.301   3.315   1.185  0.0800 -0.3668  0.0054
 1769TIP3    H126722   0.226   3.370   1.209  0.4383  0.3785 -0.5331
 1769TIP3    H226723   0.315   3.334   1.092  1.5891  0.3108  0.3428
 1770TIP3   OH226724   5.372   4.331  17.073 -0.0941  0.5927 -0.7232
 1770TIP3    H126725   5.416   4.397  17.126 -0.8417  0.0153  0.6513
 1770TIP3    H226726   5.414   4.339  16.987  0.8328  1.8523 -0.1970
 1771TIP3   OH226727   1.427   2.716  13.365  0.2323  0.9322 -0.0615
 1771TIP3    H126728   1.516   2.683  13.375 -0.2912 -0.7409 -0.6334
 1771TIP3    H226729   1.429   2.765  13.283  0.1877 -0.8371 -1.1819
 1772TIP3   OH226730   4.802   1.596  15.719  0.0421 -0.2748 -0.3655
 1772TIP3    H126731   4.854   1.526  15.678  1.4152 -0.8889  2.2009
 1772TIP3    H226732   4.784   1.563  15.807 -3.0401  0.8180 -0.4696
 1773TIP3   OH226733   3.884   5.587  14.716 -0.0270  0.2022  0.2384
 1773TIP3    H126734   3.915   5.535  14.642  0.1112  0.2040  0.2935
 1773TIP3    H226735   3.800   5.623  14.688  0.7470  1.4853 -0.5161
 1774TIP3   OH226736   3.233   6.341   2.584  0.1865 -0.0411 -0.0412
 1774TIP3    H126737   3.205   6.251   2.565  1.0924 -0.2655 -0.3966
 1774TIP3    H226738   3.201   6.358   2.673 -2.3302  0.2791 -0.9291
 1775TIP3   OH226739   0.242   2.147   2.903 -0.3094 -0.1888  0.1562
 1775TIP3    H126740   0.333   2.142   2.872 -0.7372 -3.1698 -0.9766
 1775TIP3    H226741   0.220   2.057   2.928 -2.6808  0.6179  1.2775
 1776TIP3   OH226742   1.771   5.467  16.712 -0.2029  0.2840 -0.5417
 1776TIP3    H126743   1.732   5.479  16.798  0.8113  0.4280 -0.0905
 1776TIP3    H226744   1.829   5.392  16.722 -0.3670  0.0527 -1.2110
 1777TIP3   OH226745   5.896   6.414  15.784 -0.4927  0.1108 -0.0966
 1777TIP3    H126746   5.958   6.404  15.712 -1.5420  0.3401 -1.0727
 1777TIP3    H226747   5.811   6.424  15.741 -0.9870  1.5633  1.1293
 1778TIP3   OH226748   5.016   4.102   2.154  0.3332  0.3658  0.1228
 1778TIP3    H126749   5.047   4.052   2.229 -0.6012  0.1713  0.3908
 1778TIP3    H226750   5.060   4.064   2.079  1.3197  0.5966  0.5731
 1779TIP3   OH226751   4.796   2.952   0.930  0.2175  0.3893  0.0466
 1779TIP3    H126752   4.706   2.932   0.903  1.1431 -2.1892 -1.5753
 1779TIP3    H226753   4.835   2.996   0.854  1.3637 -2.2137 -1.0295
 1780TIP3   OH226754   6.116   1.640  14.247 -0.0318 -0.3822  0.5957
 1780TIP3    H126755   6.202   1.624  14.286 -0.2036 -0.5010  0.9289
 1780TIP3    H226756   6.060   1.570  14.282 -0.1435 -0.6029 -0.0064
 1781TIP3   OH226757   3.788   6.514  16.779  0.0729  0.5288  0.4751
 1781TIP3    H126758   3.741   6.432  16.761  1.4947  0.0828 -1.5986
 1781TIP3    H226759   3.760   6.573  16.710  1.7745  0.5447 -0.2636
 1782TIP3   OH226760   0.337   6.458  12.776 -0.3460  0.2297 -0.0534
 1782TIP3    H126761   0.279   6.511  12.720  0.3659 -0.4562 -1.4728
 1782TIP3    H226762   0.322   6.368  12.748  0.9363 -0.0146  0.0170
 1783TIP3   OH226763   3.595   2.360   5.159  0.4955  0.1466 -0.3282
 1783TIP3    H126764   3.661   2.428   5.176 -1.1398  1.8373 -0.3938
 1783TIP3    H226765   3.513   2.399   5.189 -0.7483 -1.2084 -1.7878
 1784TIP3   OH226766   5.907   1.282   1.694  0.3161  0.4018  0.0825
 1784TIP3    H126767   5.964   1.357   1.708  0.6234  0.2614 -0.3796
 1784TIP3    H226768   5.889   1.249   1.781 -0.1748  1.2690  0.3229
 1785TIP3   OH226769   6.585   5.841   4.425  0.8503 -0.4887  0.2805
 1785TIP3    H126770   6.498   5.816   4.456  0.9257  1.0133  1.7791
 1785TIP3    H226771   6.614   5.765   4.374 -1.3615 -0.9745 -0.3617
 1786TIP3   OH226772   4.296   4.855  16.472  0.7195 -0.1091  0.2541
 1786TIP3    H126773   4.307   4.760  16.476  1.0545 -0.0394  1.7085
 1786TIP3    H226774   4.268   4.873  16.382  0.2696 -1.6158  0.0742
 1787TIP3   OH226775   1.933   1.956  14.261  0.2892  0.3381  0.7957
 1787TIP3    H126776   1.935   1.892  14.190  4.2342  0.7594  0.2833
 1787TIP3    H226777   1.841   1.962  14.286 -0.5668 -3.7424 -0.6770
 1788TIP3   OH226778   2.887   4.244  15.855  0.0284 -0.3300 -0.4354
 1788TIP3    H126779   2.907   4.272  15.766  1.4445  0.5631  0.1318
 1788TIP3    H226780   2.956   4.283  15.909 -1.1516 -0.3181  1.1417
 1789TIP3   OH226781   6.361   4.359  13.418  0.1798  0.0349  0.2764
 1789TIP3    H126782   6.426   4.327  13.355 -1.3277 -0.8476 -0.9037
 1789TIP3    H226783   6.392   4.446  13.443  1.6340 -0.2319 -0.4960
 1790TIP3   OH226784   2.850   5.187  10.698  0.0736 -1.0016  0.3122
 1790TIP3    H126785   2.940   5.216  10.686 -0.1426  0.9358  2.6186
 1790TIP3    H226786   2.856   5.093  10.713  1.5494 -1.1040 -0.7140
 1791TIP3   OH226787   1.117   5.252  13.626  0.4978 -0.0610  0.0320
 1791TIP3    H126788   1.101   5.332  13.677 -1.2465  0.7760 -1.7020
 1791TIP3    H226789   1.208   5.230  13.645  0.5163  1.3408  1.9129
 1792TIP3   OH226790   1.999   6.483  11.827 -0.0966 -0.1898  0.0704
 1792TIP3    H126791   1.935   6.498  11.758 -0.1435 -1.2332 -0.1342
 1792TIP3    H226792   2.077   6.531  11.799 -0.7412  0.9860  0.2622
 1793TIP3   OH226793   2.361   4.262   3.741 -0.7703  0.3134 -0.0677
 1793TIP3    H126794   2.287   4.231   3.688 -0.6723  1.7719 -1.1123
 1793TIP3    H226795   2.379   4.189   3.801 -3.2465  0.0319  0.4484
 1794TIP3   OH226796   4.993   1.538  12.926 -0.1748 -0.0641  0.1358
 1794TIP3    H126797   5.003   1.545  12.831  0.0657 -0.8960  0.0938
 1794TIP3    H226798   5.081   1.517  12.958 -0.0264  1.2866  0.6606
 1795TIP3   OH226799   4.705   2.376   5.071  0.0821  0.2538  0.2355
 1795TIP3    H126800   4.761   2.301   5.088  0.9359  0.7627 -0.2695
 1795TIP3    H226801   4.764   2.443   5.038 -0.9785  0.4553 -1.3656
 1796TIP3   OH226802   1.587   4.722  11.945  1.1566 -0.4462  0.1938
 1796TIP3    H126803   1.581   4.781  11.869 -0.0313 -0.4372  0.2767
 1796TIP3    H226804   1.546   4.771  12.016  1.8478 -0.6446  0.7389
 1797TIP3   OH226805   5.541   3.157  14.603  0.1355  0.5310 -0.2287
 1797TIP3    H126806   5.625   3.181  14.642  1.5917  0.8586 -3.2764
 1797TIP3    H226807   5.529   3.218  14.530 -2.2638 -0.1519 -0.5129
 1798TIP3   OH226808   3.756   6.637  16.140  0.1069 -0.2624 -0.6753
 1798TIP3    H126809   3.746   6.699  16.212  0.0775 -2.8318  1.7281
 1798TIP3    H226810   3.851   6.633  16.125  0.6292 -2.6127  2.2170
 1799TIP3   OH226811   4.644   0.578   0.664  0.6866  0.1382 -0.0739
 1799TIP3    H126812   4.602   0.663   0.652  1.3417  0.6856  1.2696
 1799TIP3    H226813   4.711   0.574   0.596  0.1218  0.3344 -0.6509
 1800TIP3   OH226814   6.238   0.408  13.228  0.4576 -0.2542  0.0884
 1800TIP3    H126815   6.262   0.316  13.240  0.6595 -0.0499  1.4149
 1800TIP3    H226816   6.142   0.409  13.236  0.4378 -0.3672 -0.1197
 1801TIP3   OH226817   5.024   5.133  12.757  0.3044 -0.2754  0.3732
 1801TIP3    H126818   5.048   5.042  12.773  0.7647 -0.1912  0.1835
 1801TIP3    H226819   4.941   5.128  12.710  0.9535 -0.6405 -0.7768
 1802TIP3   OH226820   6.480   5.538   5.608 -0.3288 -0.1660 -0.2985
 1802TIP3    H126821   6.480   5.510   5.700 -1.9016 -1.1484 -0.5544
 1802TIP3    H226822   6.565   5.580   5.596  0.0839 -0.3902  1.4922
 1803TIP3   OH226823   5.567   0.783   1.429 -0.1729  0.0372 -0.3358
 1803TIP3    H126824   5.595   0.813   1.343 -0.3595  0.5277 -0.2282
 1803TIP3    H226825   5.504   0.713   1.410 -2.0113  1.6864 -0.6763
 1804TIP3   OH226826   2.756   2.665  13.547  0.7707 -0.4588  0.7601
 1804TIP3    H126827   2.697   2.740  13.552 -0.7949 -1.5479 -0.4643
 1804TIP3    H226828   2.763   2.634  13.637  0.0950  0.1672  1.0398
 1805TIP3   OH226829   2.220   4.060   5.351  0.2837 -0.0858  0.5962
 1805TIP3    H126830   2.297   4.038   5.404  0.5440  3.6025  2.0210
 1805TIP3    H226831   2.147   4.019   5.398  1.0483 -1.2733  0.7923
 1806TIP3   OH226832   0.564   5.900   6.272  0.1395 -0.1876  0.0342
 1806TIP3    H126833   0.508   5.826   6.246  0.5593 -0.3694 -0.3763
 1806TIP3    H226834   0.552   5.964   6.202  0.4241 -0.2189 -0.0444
 1807TIP3   OH226835   6.343   4.228   3.612 -0.1949 -0.7519 -0.7649
 1807TIP3    H126836   6.395   4.180   3.676 -3.2854 -1.0418  1.7725
 1807TIP3    H226837   6.288   4.161   3.571  0.4065 -0.2838 -2.4161
 1808TIP3   OH226838   4.589   3.666  12.260  0.2070 -0.0263 -0.1441
 1808TIP3    H126839   4.671   3.709  12.236  0.2524 -0.5409 -0.9287
 1808TIP3    H226840   4.535   3.737  12.296  0.7335  0.4490 -0.2763
 1809TIP3   OH226841   3.646   4.881  13.367  0.8553 -0.5854 -0.0277
 1809TIP3    H126842   3.700   4.948  13.408 -1.3872  0.2748  1.7230
 1809TIP3    H226843   3.571   4.928  13.332 -0.2642 -2.0355  0.3022
 1810TIP3   OH226844   1.629   2.697   4.700  0.0473  0.7984  0.3048
 1810TIP3    H126845   1.542   2.726   4.729 -0.0235  0.9935 -0.1073
 1810TIP3    H226846   1.623   2.692   4.605  0.3792  0.4542  0.2992
 1811TIP3   OH226847   1.035   1.679  16.836  0.1549 -0.0114  0.2763
 1811TIP3    H126848   1.082   1.648  16.913  1.2505  0.7068 -0.0665
 1811TIP3    H226849   1.046   1.774  16.838  1.5930 -0.0748 -1.5715
 1812TIP3   OH226850   3.082   5.727   3.113  0.1487  0.3033  0.4197
 1812TIP3    H126851   3.026   5.729   3.191 -0.3936  1.7952  0.0251
 1812TIP3    H226852   3.057   5.647   3.068 -0.2801 -0.0402  1.2419
 1813TIP3   OH226853   4.508   3.623  16.650 -0.1551  0.1201  1.0314
 1813TIP3    H126854   4.450   3.670  16.711 -0.2231 -0.1126  1.1469
 1813TIP3    H226855   4.570   3.689  16.620 -0.4256  0.3545  0.9741
 1814TIP3   OH226856   6.020   5.448  12.161 -0.0419  0.4802  0.0396
 1814TIP3    H126857   5.997   5.521  12.218  1.1153 -0.8556  2.4019
 1814TIP3    H226858   5.957   5.379  12.185  0.3806 -0.0589 -0.3873
 1815TIP3   OH226859   3.897   5.824   4.765 -0.1449  0.1971  0.3214
 1815TIP3    H126860   3.821   5.822   4.707  0.8820 -0.9459 -1.0656
 1815TIP3    H226861   3.956   5.758   4.730  0.8775  0.0110  2.2460
 1816TIP3   OH226862   3.980   0.196   2.456 -0.0782  0.0391  0.3049
 1816TIP3    H126863   4.005   0.258   2.525 -1.1682 -0.7894  1.4893
 1816TIP3    H226864   3.888   0.177   2.474 -1.0062  1.3253 -2.5869
 1817TIP3   OH226865   0.176   1.190  12.660 -0.3065  0.3992  0.2482
 1817TIP3    H126866   0.128   1.137  12.724  0.1045  0.9186  0.9957
 1817TIP3    H226867   0.244   1.132  12.627 -1.0093 -0.1271 -0.3219
 1818TIP3   OH226868   5.263   5.169   1.379 -0.2064 -0.4776  0.0530
 1818TIP3    H126869   5.186   5.206   1.336 -0.9144 -0.4830  1.2853
 1818TIP3    H226870   5.295   5.239   1.435  0.1627 -0.7822  0.2272
 1819TIP3   OH226871   1.020   4.553   3.407 -0.1830  0.3997 -0.1677
 1819TIP3    H126872   1.078   4.586   3.476 -0.7696  2.8259 -0.7450
 1819TIP3    H226873   1.078   4.539   3.332  0.2473 -1.0088  0.3995
 1820TIP3   OH226874   0.046   0.029  11.571  0.4741  0.2831 -0.4527
 1820TIP3    H126875  -0.049   0.041  11.577  0.1568 -1.8089 -0.5001
 1820TIP3    H226876   0.059  -0.019  11.489  1.5902  0.5866 -0.4705
 1821TIP3   OH226877   6.573   4.322  16.986 -0.2189  0.0454 -0.3965
 1821TIP3    H126878   6.665   4.310  17.010 -0.4725  0.6866  0.9940
 1821TIP3    H226879   6.576   4.351  16.895  1.0328  1.0100 -0.0814
 1822TIP3   OH226880   4.111   3.253  16.741  0.3290  0.1292 -0.2941
 1822TIP3    H126881   4.147   3.175  16.698 -0.5056 -0.4903  0.0999
 1822TIP3    H226882   4.073   3.304  16.669  2.3761  1.0476 -0.7867
 1823TIP3   OH226883   3.722   1.606  13.480  0.2258 -0.2223 -0.2109
 1823TIP3    H126884   3.748   1.531  13.427  1.1354 -0.0786  0.0254
 1823TIP3    H226885   3.724   1.681  13.420 -2.4296 -0.5999 -0.9289
 1824TIP3   OH226886   3.728   1.641  12.528  0.0739 -0.4485 -0.0355
 1824TIP3    H126887   3.647   1.648  12.478  0.7661 -0.1735 -1.1399
 1824TIP3    H226888   3.788   1.702  12.486  0.9461 -0.8502  0.5910
 1825TIP3   OH226889   3.745   4.781   2.059 -0.2054 -0.1249 -0.1734
 1825TIP3    H126890   3.752   4.851   1.994 -3.9547 -0.6160 -1.2925
 1825TIP3    H226891   3.802   4.712   2.025 -1.1603  0.0800 -2.3787
 1826TIP3   OH226892   6.578   3.252   0.846  0.4469  0.4296  0.5245
 1826TIP3    H126893   6.599   3.323   0.907 -0.8022  1.5584 -0.2980
 1826TIP3    H226894   6.653   3.249   0.787  0.8284  0.5779  0.9925
 1827TIP3   OH226895   2.529   5.040   6.240  0.4307  0.5776  0.6645
 1827TIP3    H126896   2.540   5.011   6.331  0.5958 -3.6375 -0.5177
 1827TIP3    H226897   2.436   5.029   6.222  0.5236  0.6943  0.0981
 1828TIP3   OH226898   3.848   6.476   4.101  0.9616 -0.4987 -0.5261
 1828TIP3    H126899   3.783   6.424   4.054 -0.5020  1.3617 -0.6569
 1828TIP3    H226900   3.873   6.421   4.176 -3.8593  0.1956  1.9461
 1829TIP3   OH226901   4.277   1.871  11.681  0.4031  0.0515  0.3754
 1829TIP3    H126902   4.225   1.923  11.620  0.1099  0.5252  1.0143
 1829TIP3    H226903   4.359   1.855  11.635 -0.0288 -0.0956 -0.3681
 1830TIP3   OH226904   0.177   0.155   6.837 -0.7832  0.6776 -0.0363
 1830TIP3    H126905   0.136   0.129   6.754 -1.0929  2.4430 -0.4748
 1830TIP3    H226906   0.253   0.098   6.846 -2.4743 -1.7422  0.0881
 1831TIP3   OH226907   0.889   0.208  16.364  0.0947 -0.3074 -0.8615
 1831TIP3    H126908   0.940   0.184  16.286  0.8210  2.1755 -1.2164
 1831TIP3    H226909   0.954   0.216  16.434 -0.2607 -0.3176 -0.5290
 1832TIP3   OH226910   1.520   3.343   6.363  0.0245 -0.0176  0.0959
 1832TIP3    H126911   1.533   3.300   6.447 -2.1866 -1.2659 -0.1160
 1832TIP3    H226912   1.603   3.387   6.345  0.7602 -0.2463  2.6025
 1833TIP3   OH226913   4.610   3.192   3.558 -0.0283  0.7014  0.2826
 1833TIP3    H126914   4.701   3.220   3.555  0.4238 -0.7461  0.0458
 1833TIP3    H226915   4.576   3.211   3.470  1.1055 -2.0513 -0.8761
 1834TIP3   OH226916   3.295   5.967  17.261 -0.2555 -0.1978 -0.4616
 1834TIP3    H126917   3.354   6.020  17.315 -1.3322  1.0360 -0.4441
 1834TIP3    H226918   3.221   6.025  17.244 -1.8820 -1.9740  0.2449
 1835TIP3   OH226919   2.649   0.853   5.711 -0.7463 -0.0642 -0.4549
 1835TIP3    H126920   2.677   0.929   5.763 -0.2295 -0.0496 -0.7502
 1835TIP3    H226921   2.555   0.847   5.727 -1.1828  1.8496 -1.9739
 1836TIP3   OH226922   3.462   0.879  15.195  0.0217  0.1212  0.2099
 1836TIP3    H126923   3.415   0.814  15.247  0.1501  0.0473  0.2348
 1836TIP3    H226924   3.443   0.856  15.104 -1.0770  0.8963  0.2296
 1837TIP3   OH226925   2.113   4.075  13.642  0.2492  0.3472 -0.3467
 1837TIP3    H126926   2.054   4.020  13.591  0.9474 -0.5238 -0.2354
 1837TIP3    H226927   2.198   4.032  13.635  0.5896  0.8427  0.6114
 1838TIP3   OH226928   4.639   1.972  11.075  0.5631 -0.1699  0.0474
 1838TIP3    H126929   4.619   2.039  11.139  0.1407 -0.1586 -0.0916
 1838TIP3    H226930   4.632   2.016  10.990  0.9931 -0.2142 -0.0138
 1839TIP3   OH226931   4.279   3.821  14.621 -0.2480 -0.4126  0.5485
 1839TIP3    H126932   4.353   3.764  14.641  1.3026  1.2320 -0.3065
 1839TIP3    H226933   4.245   3.788  14.538 -0.4438 -1.1003  0.8876
 1840TIP3   OH226934   3.066   0.969  16.719  0.3949  0.4335  0.1459
 1840TIP3    H126935   3.015   0.955  16.639 -1.4847  2.7055  0.8204
 1840TIP3    H226936   3.033   0.902  16.780  0.0322  0.2743 -0.2192
 1841TIP3   OH226937   3.843   3.324   3.883  0.5594 -1.2618  0.6661
 1841TIP3    H126938   3.896   3.303   3.806 -1.7367 -1.7107 -0.9166
 1841TIP3    H226939   3.785   3.395   3.853 -0.1710 -1.2176  2.1048
 1842TIP3   OH226940   5.726   3.724  16.719 -0.7984 -0.2800 -0.4809
 1842TIP3    H126941   5.697   3.692  16.634  0.2771 -0.6027 -0.7347
 1842TIP3    H226942   5.799   3.667  16.743 -0.5872  0.3003  0.2981
 1843TIP3   OH226943   5.562   1.385  15.644  0.5559  0.0841  0.5312
 1843TIP3    H126944   5.534   1.335  15.721  1.0063 -0.5448  0.3019
 1843TIP3    H226945   5.489   1.443  15.624 -0.3211 -1.0418  0.3513
 1844TIP3   OH226946   0.906   2.037  14.708 -0.8286 -0.0286 -0.5564
 1844TIP3    H126947   0.984   2.001  14.667 -1.3695 -2.5252  0.4191
 1844TIP3    H226948   0.833   1.987  14.670 -1.7626  0.8610 -0.0007
 1845TIP3   OH226949   3.548   0.563  16.597  0.1324 -0.1559  0.0292
 1845TIP3    H126950   3.476   0.585  16.538  1.2923  0.8248 -1.0573
 1845TIP3    H226951   3.510   0.571  16.685 -0.7868  1.5585 -0.4799
 1846TIP3   OH226952   0.033   6.438   2.375 -0.0257  0.0864 -0.2126
 1846TIP3    H126953  -0.041   6.499   2.368 -0.9113 -0.9988 -0.6060
 1846TIP3    H226954   0.089   6.461   2.301  0.4977  1.4763  0.5707
 1847TIP3   OH226955   3.180   2.785   2.100  0.0377 -0.6400 -0.1053
 1847TIP3    H126956   3.208   2.694   2.111  1.4504 -0.5835 -2.3738
 1847TIP3    H226957   3.260   2.836   2.111 -0.9798  0.5618  2.5819
 1848TIP3   OH226958   6.185   5.255  12.077 -0.6076 -0.6636  0.1668
 1848TIP3    H126959   6.106   5.201  12.086 -1.8148  1.0846  0.6379
 1848TIP3    H226960   6.152   5.344  12.070  1.2458 -0.0710 -2.3002
 1849TIP3   OH226961   3.448   1.863  14.997 -0.1140 -0.4086  0.1068
 1849TIP3    H126962   3.363   1.830  14.968  0.6165 -0.4815 -2.2046
 1849TIP3    H226963   3.427   1.940  15.050 -1.6399 -0.8962  0.2617
 1850TIP3   OH226964   3.721   4.876   4.021 -0.3685  0.4412  0.0373
 1850TIP3    H126965   3.692   4.924   4.099 -0.8603 -0.0987  0.2021
 1850TIP3    H226966   3.661   4.904   3.952  1.3245  2.4510 -0.6799
 1851TIP3   OH226967   2.998   2.573   4.805  0.4539  0.0263  0.1129
 1851TIP3    H126968   2.904   2.592   4.811  0.5358  0.2874  0.5658
 1851TIP3    H226969   3.003   2.496   4.747  0.2065  2.2865 -3.2017
 1852TIP3   OH226970   4.336   6.670   6.151 -0.5643  0.0276  0.1335
 1852TIP3    H126971   4.309   6.745   6.203 -1.2712 -0.3695  0.3624
 1852TIP3    H226972   4.254   6.624   6.131 -0.4302  0.6159 -2.0547
 1853TIP3   OH226973   3.624   4.678   0.860  0.2877  0.3375  0.1112
 1853TIP3    H126974   3.625   4.719   0.946 -0.4173 -0.2361  0.3943
 1853TIP3    H226975   3.632   4.752   0.799 -2.5631  1.1087  0.5432
 1854TIP3   OH226976   3.601   1.593   5.340 -0.1690 -0.0174 -0.1173
 1854TIP3    H126977   3.535   1.558   5.400  0.8276  0.5129  1.3246
 1854TIP3    H226978   3.557   1.667   5.297 -1.5477 -1.5999 -1.5743
 1855TIP3   OH226979   4.578   0.113  11.960 -0.4780  0.1250 -0.4037
 1855TIP3    H126980   4.653   0.054  11.951 -0.9135 -0.2238 -2.2459
 1855TIP3    H226981   4.538   0.088  12.043  0.7725 -0.4690  0.0531
 1856TIP3   OH226982   3.959   3.714  12.677  0.1096 -0.3684  0.2270
 1856TIP3    H126983   3.924   3.797  12.644 -1.0490 -1.1958 -0.7220
 1856TIP3    H226984   4.021   3.739  12.745  1.1723  1.3698 -1.2709
 1857TIP3   OH226985   6.196   1.331  15.794  0.3345 -0.0286 -0.2757
 1857TIP3    H126986   6.227   1.341  15.704  0.6807 -1.2142 -0.2991
 1857TIP3    H226987   6.249   1.261  15.830 -0.1352  0.1062  0.7084
 1858TIP3   OH226988   2.554   2.682  15.751 -0.3702 -0.3098 -0.2476
 1858TIP3    H126989   2.544   2.756  15.811  0.9093  0.5874 -1.0677
 1858TIP3    H226990   2.616   2.624  15.795  0.2998  0.1788 -0.5272
 1859TIP3   OH226991   5.406   6.361   3.270  0.0256 -0.1494 -0.7130
 1859TIP3    H126992   5.488   6.328   3.306  0.3317 -2.9727 -3.6106
 1859TIP3    H226993   5.346   6.286   3.274 -0.9961  0.4929 -2.6701
 1860TIP3   OH226994   1.511   2.377   5.353 -0.0024  0.2302 -0.5771
 1860TIP3    H126995   1.504   2.446   5.287 -1.0665  0.7599  0.0662
 1860TIP3    H226996   1.601   2.383   5.384  0.0475  1.0336 -0.8502
 1861TIP3   OH226997   2.077   5.041   2.309  0.2459  0.4261 -0.8163
 1861TIP3    H126998   2.075   5.083   2.395 -0.4548 -0.1136 -0.5521
 1861TIP3    H226999   2.106   5.109   2.249 -0.7712  1.2656 -0.3873
 1862TIP3   OH227000   4.394   3.198   3.825 -0.0835 -0.1904 -0.2560
 1862TIP3    H127001   4.359   3.277   3.783  0.7914  0.5131  0.3044
 1862TIP3    H227002   4.449   3.159   3.758 -0.4725 -0.3044 -0.5165
 1863TIP3   OH227003   2.159   1.525  16.325  0.5637  0.1009 -0.0637
 1863TIP3    H127004   2.253   1.509  16.329  0.4778 -0.2222  1.3468
 1863TIP3    H227005   2.131   1.493  16.239  1.6379 -0.3298 -0.2567
 1864TIP3   OH227006   1.622   6.635  13.445  0.1369 -0.2576 -0.0292
 1864TIP3    H127007   1.538   6.621  13.487 -1.1437  2.3339 -1.4390
 1864TIP3    H227008   1.614   6.593  13.359  0.2568  0.0075 -0.1745
 1865TIP3   OH227009   1.633   1.726   5.704  1.0854 -0.8544  0.6128
 1865TIP3    H127010   1.640   1.652   5.764 -1.6060 -1.1689  0.6382
 1865TIP3    H227011   1.621   1.686   5.618  1.6666 -0.4104  0.3168
 1866TIP3   OH227012   0.134   6.588  14.860  0.4625  0.0514 -0.4001
 1866TIP3    H127013   0.053   6.630  14.886  0.3004 -1.5718  2.1103
 1866TIP3    H227014   0.181   6.654  14.809 -1.8968  1.4140 -0.9263
 1867TIP3   OH227015   2.791   5.238  14.267 -0.4698 -0.3885 -0.1380
 1867TIP3    H127016   2.780   5.212  14.359 -1.6552  1.9379  0.4457
 1867TIP3    H227017   2.728   5.184  14.220  0.1773 -1.6353  0.3657
 1868TIP3   OH227018   4.803   6.248   0.328 -0.0218 -0.2142 -0.1785
 1868TIP3    H127019   4.748   6.298   0.388  1.4636  0.2277  0.8721
 1868TIP3    H227020   4.831   6.172   0.380  0.1456 -0.5825 -0.7939
 1869TIP3   OH227021   4.043   3.155  12.816 -0.0354 -0.4834  0.3180
 1869TIP3    H127022   3.986   3.150  12.739 -2.1179  2.2219  1.4971
 1869TIP3    H227023   4.012   3.084  12.872  0.4418 -1.4856 -0.6409
 1870TIP3   OH227024   4.345   5.786   2.440 -0.3974  0.7592  0.6216
 1870TIP3    H127025   4.392   5.817   2.517  1.9916  0.3768 -0.5948
 1870TIP3    H227026   4.334   5.692   2.455 -0.9204  0.8710  0.9643
 1871TIP3   OH227027   2.696   3.367  14.704  0.1016 -0.0503 -0.2722
 1871TIP3    H127028   2.754   3.312  14.757 -0.4460 -0.1570  0.2137
 1871TIP3    H227029   2.751   3.441  14.679  0.3033  0.1199  0.6364
 1872TIP3   OH227030   6.410   2.010   3.033  0.1284 -0.5242  0.6326
 1872TIP3    H127031   6.371   1.986   2.949 -0.3156  0.8138  0.4265
 1872TIP3    H227032   6.337   2.008   3.095  0.3253 -0.8593  0.8599
 1873TIP3   OH227033   4.671   2.689  12.546  0.0704 -0.5368  0.0933
 1873TIP3    H127034   4.692   2.708  12.637 -0.3984  0.4444  0.0197
 1873TIP3    H227035   4.622   2.766  12.517  1.9783  0.1172 -1.5985
 1874TIP3   OH227036   3.677   0.497   1.372  0.6502 -0.0709 -0.7882
 1874TIP3    H127037   3.674   0.462   1.462  0.7848 -1.0852 -1.1645
 1874TIP3    H227038   3.766   0.478   1.342 -0.6464 -4.2103 -2.8074
 1875TIP3   OH227039   0.270   2.487  11.055  0.2472  0.3079  0.4943
 1875TIP3    H127040   0.319   2.566  11.078  2.3648 -0.2911 -1.5976
 1875TIP3    H227041   0.247   2.499  10.963  0.6104 -1.4974  0.1302
 1876TIP3   OH227042   3.968   4.443  13.142  0.2586 -0.0210 -0.0577
 1876TIP3    H127043   4.012   4.423  13.225  0.1289 -0.6693 -0.1389
 1876TIP3    H227044   3.893   4.384  13.141  0.5955 -0.4429 -0.9182
 1877TIP3   OH227045   3.365   2.500   1.040  0.2219 -0.0332  0.3495
 1877TIP3    H127046   3.318   2.462   1.114  1.4291 -0.7798  0.7717
 1877TIP3    H227047   3.443   2.445   1.031  0.1298  0.0872 -1.4499
 1878TIP3   OH227048   5.309   6.407   2.312 -0.0446  0.1582  0.1206
 1878TIP3    H127049   5.304   6.498   2.341 -0.8308  0.3892 -0.6908
 1878TIP3    H227050   5.265   6.406   2.227 -0.1480 -1.0008  0.1652
 1879TIP3   OH227051   3.455   2.387  16.259 -0.4588  0.0174 -0.1746
 1879TIP3    H127052   3.503   2.316  16.217 -1.3687  0.0192 -1.2635
 1879TIP3    H227053   3.523   2.446  16.292  0.3728 -2.1906  2.3690
 1880TIP3   OH227054   5.437   1.072   1.998 -0.2435 -0.5956  0.4386
 1880TIP3    H127055   5.472   1.154   1.964  0.5338 -0.7813  0.7691
 1880TIP3    H227056   5.356   1.058   1.949  0.1242 -0.1290 -0.3128
 1881TIP3   OH227057   1.408   2.132   0.805 -0.2731  0.3768  0.4770
 1881TIP3    H127058   1.494   2.155   0.769 -1.0665  2.6365 -0.1245
 1881TIP3    H227059   1.389   2.047   0.765  1.1679  0.3789 -0.3213
 1882TIP3   OH227060   0.101   1.855  13.380  0.2907 -0.7799  0.0500
 1882TIP3    H127061   0.036   1.884  13.316 -1.6277 -1.5705  1.5239
 1882TIP3    H227062   0.159   1.929  13.392 -0.2851 -0.0655 -1.3940
 1883TIP3   OH227063   1.059   2.651   5.760  0.2295 -0.3885 -0.2598
 1883TIP3    H127064   0.963   2.651   5.757  0.1686  1.6418  0.0165
 1883TIP3    H227065   1.082   2.743   5.768  2.1482 -0.9688  1.7138
 1884TIP3   OH227066   0.107   4.305  16.986  0.5454  0.0661 -0.8965
 1884TIP3    H127067   0.181   4.283  17.044 -0.5335  0.1080  0.5650
 1884TIP3    H227068   0.135   4.383  16.939  2.2219 -1.0822 -1.9245
 1885TIP3   OH227069   1.132   3.613  14.394 -0.3279 -0.1840 -0.0539
 1885TIP3    H127070   1.175   3.545  14.446 -0.0468 -0.7141 -0.9612
 1885TIP3    H227071   1.080   3.662  14.458 -1.0676 -1.6535  0.5284
 1886TIP3   OH227072   5.543   4.938  12.200 -0.2647 -0.3294  0.4163
 1886TIP3    H127073   5.551   5.031  12.179  1.7886 -0.6449 -0.5092
 1886TIP3    H227074   5.632   4.904  12.194 -0.7354 -2.0932  2.1736
 1887TIP3   OH227075   3.979   5.530  13.858  0.0099 -0.2238 -0.3381
 1887TIP3    H127076   4.064   5.496  13.828 -1.0454 -2.0029 -1.5155
 1887TIP3    H227077   3.928   5.539  13.778 -0.5232  2.1496  0.2074
 1888TIP3   OH227078   3.278   0.769   5.846 -0.2084 -0.4400  0.2435
 1888TIP3    H127079   3.198   0.802   5.804  0.4391  0.2035 -0.5083
 1888TIP3    H227080   3.251   0.750   5.936 -1.1174  0.1286  0.1099
 1889TIP3   OH227081   6.234   4.079   0.515 -0.0484  0.1155 -0.0343
 1889TIP3    H127082   6.173   4.022   0.561  2.7532 -1.9794  1.3730
 1889TIP3    H227083   6.236   4.047   0.425  0.2114 -0.9345  0.3351
 1890TIP3   OH227084   4.727   4.555  16.794 -0.1714 -0.8506 -0.2771
 1890TIP3    H127085   4.739   4.512  16.709 -0.0906 -0.0104 -0.6982
 1890TIP3    H227086   4.632   4.567  16.801 -0.1433 -0.5114 -0.4569
 1891TIP3   OH227087   3.603   0.764  10.902  0.1382 -0.3226  0.5295
 1891TIP3    H127088   3.527   0.723  10.945 -0.0985  0.5459  0.9761
 1891TIP3    H227089   3.568   0.797  10.819 -0.2369  0.9332  1.1580
 1892TIP3   OH227090   5.293   6.543   3.097  0.7988 -0.2668 -0.8406
 1892TIP3    H127091   5.347   6.570   3.023  1.0817  0.6392 -0.3324
 1892TIP3    H227092   5.343   6.473   3.139  0.9535 -0.3258 -1.1199
 1893TIP3   OH227093   0.946   2.605   2.910  0.0072  0.4594  0.4547
 1893TIP3    H127094   1.003   2.528   2.913 -1.6346 -0.8831 -0.5996
 1893TIP3    H227095   0.869   2.575   2.861 -1.4589  2.2749  1.5260
 1894TIP3   OH227096   3.304   4.459   3.359  0.5185  0.1593 -0.0245
 1894TIP3    H127097   3.284   4.546   3.393 -0.3309  0.5691 -1.4743
 1894TIP3    H227098   3.349   4.414   3.431  0.8247  1.7292  0.8017
 1895TIP3   OH227099   3.326   1.312   1.837 -0.1916 -0.6848 -0.1791
 1895TIP3    H127100   3.353   1.230   1.879  1.4621  0.1847  0.5666
 1895TIP3    H227101   3.296   1.286   1.750  3.3029 -1.8691 -1.2149
 1896TIP3   OH227102   3.175   2.864  17.198  0.0408  0.0913  0.5714
 1896TIP3    H127103   3.188   2.933  17.133 -0.8787  0.6005  0.8956
 1896TIP3    H227104   3.171   2.783  17.147  0.8899  0.2959  0.1634
 1897TIP3   OH227105   3.760   0.297  12.624  0.1248 -0.5695 -0.0446
 1897TIP3    H127106   3.747   0.386  12.591 -1.8961 -0.8322 -0.0558
 1897TIP3    H227107   3.832   0.306  12.687 -0.6128  1.2781  0.6222
 1898TIP3   OH227108   5.518   1.177  15.245 -0.5415 -0.1650  0.2121
 1898TIP3    H127109   5.573   1.215  15.176  0.3054 -2.2933 -0.3716
 1898TIP3    H227110   5.432   1.167  15.204 -0.2662 -0.6179 -0.2721
 1899TIP3   OH227111   2.202   2.791   6.301  0.2261 -0.1424  0.0374
 1899TIP3    H127112   2.203   2.882   6.329  1.1316  0.0729 -0.6486
 1899TIP3    H227113   2.204   2.741   6.383 -0.3869  0.4435  0.4207
 1900TIP3   OH227114   6.387   5.749  15.774 -0.0791  0.3708  0.1339
 1900TIP3    H127115   6.353   5.673  15.821 -1.3666  0.4121 -0.6977
 1900TIP3    H227116   6.369   5.823  15.832 -0.1344  0.2255  0.3036
 1901TIP3   OH227117   5.311   2.573  10.820 -1.3545  0.9139  0.8299
 1901TIP3    H127118   5.385   2.534  10.867 -0.3591  1.6265 -0.1051
 1901TIP3    H227119   5.241   2.508  10.829 -0.2097 -0.4312  0.5778
 1902TIP3   OH227120   3.183   3.674   4.691 -0.1264 -0.2963  0.1014
 1902TIP3    H127121   3.211   3.584   4.674 -0.6798 -0.3931 -0.3143
 1902TIP3    H227122   3.087   3.670   4.691 -0.1911 -0.2186  2.7628
 1903TIP3   OH227123   3.436   1.420  14.648  0.6017 -0.1591  0.2302
 1903TIP3    H127124   3.457   1.327  14.661  2.8906  0.5336  2.1438
 1903TIP3    H227125   3.343   1.427  14.672  0.7507 -1.7275  1.4171
 1904TIP3   OH227126   6.394   0.324  14.158  0.0780  0.2500  0.2173
 1904TIP3    H127127   6.418   0.393  14.096 -0.8656  0.3228 -0.0928
 1904TIP3    H227128   6.457   0.254  14.141  0.6666  0.8005  0.1112
 1905TIP3   OH227129   0.107   0.833  10.859  0.0071 -0.1395 -0.1226
 1905TIP3    H127130   0.073   0.747  10.885  2.2534 -1.0304  0.0610
 1905TIP3    H227131   0.200   0.829  10.879  0.3325  2.0410 -0.9608
 1906TIP3   OH227132   3.188   2.158   3.492 -0.2459  0.1223  0.3310
 1906TIP3    H127133   3.259   2.117   3.541 -1.3744 -0.4724  1.5259
 1906TIP3    H227134   3.142   2.085   3.451 -1.5168  0.2645  1.4467
 1907TIP3   OH227135   1.900   6.265  16.882  0.8535 -0.1458 -0.2780
 1907TIP3    H127136   1.847   6.290  16.958  3.5739  1.8780  1.1349
 1907TIP3    H227137   1.934   6.179  16.904  1.1043  0.1482  0.4989
 1908TIP3   OH227138   3.380   3.288   1.299  0.1087 -0.3479 -1.1181
 1908TIP3    H127139   3.293   3.328   1.300 -0.6915 -1.9346  1.0618
 1908TIP3    H227140   3.429   3.337   1.366  0.1393 -0.8933 -0.7326
 1909TIP3   OH227141   5.343   3.458  11.145  0.0534 -0.0099 -0.2873
 1909TIP3    H127142   5.358   3.545  11.182  0.4386 -0.4250  0.5850
 1909TIP3    H227143   5.379   3.462  11.057  2.7517 -0.0931  0.6998
 1910TIP3   OH227144   6.494   6.666   5.814  0.4084 -0.5991 -0.0053
 1910TIP3    H127145   6.437   6.673   5.890  0.0099 -1.0349 -0.2596
 1910TIP3    H227146   6.440   6.695   5.741  0.8102 -0.1110 -0.1166
 1911TIP3   OH227147   5.176   3.631  16.891 -0.8114  0.0600 -0.2755
 1911TIP3    H127148   5.242   3.661  16.954 -1.8675  3.4316 -0.5650
 1911TIP3    H227149   5.160   3.707  16.835 -2.0401 -1.9100 -2.7844
 1912TIP3   OH227150   4.216   6.333  12.034 -0.2954 -0.3167 -0.2098
 1912TIP3    H127151   4.207   6.391  11.958  1.4797 -0.6543 -0.7241
 1912TIP3    H227152   4.130   6.291  12.042 -0.9251  0.7358 -1.1922
 1913TIP3   OH227153   4.848   0.215   4.246 -0.0318  0.3206 -0.6779
 1913TIP3    H127154   4.795   0.162   4.186  0.1808 -1.3928  0.5623
 1913TIP3    H227155   4.936   0.178   4.239  0.2962  1.0044 -0.3044
 1914TIP3   OH227156   1.458   4.392  16.732  0.1849  0.0183  0.2138
 1914TIP3    H127157   1.368   4.359  16.726  0.1833  0.1018 -0.2539
 1914TIP3    H227158   1.451   4.476  16.777  0.0840 -0.1972  0.6014
 1915TIP3   OH227159   2.026   0.221   1.153  0.2570  0.5677  0.3197
 1915TIP3    H127160   1.981   0.140   1.130 -2.4480  1.6238  1.4269
 1915TIP3    H227161   2.115   0.194   1.176  1.1091 -1.3541 -4.2730
 1916TIP3   OH227162   0.361   4.065   0.115  0.2800  0.4498  0.2789
 1916TIP3    H127163   0.355   3.997   0.182  2.3825 -0.3800 -0.2796
 1916TIP3    H227164   0.316   4.141   0.153  0.4528 -0.3368  2.1765
 1917TIP3   OH227165   4.806   2.565  11.351 -0.4347  0.2582  0.3326
 1917TIP3    H127166   4.720   2.605  11.359 -1.8985 -2.5751  0.1241
 1917TIP3    H227167   4.863   2.635  11.320 -3.1402  1.7644 -1.6812
 1918TIP3   OH227168   5.595   6.434   0.681 -0.1934 -0.2738  0.2317
 1918TIP3    H127169   5.654   6.389   0.742 -1.5068 -1.4691  0.6853
 1918TIP3    H227170   5.545   6.494   0.736  2.0191  2.3841 -0.4708
 1919TIP3   OH227171   4.336   2.040  16.158 -0.2413 -0.3967 -0.1940
 1919TIP3    H127172   4.403   2.086  16.108  0.2748  0.2890  1.0853
 1919TIP3    H227173   4.363   2.049  16.250 -1.3904 -1.2300  0.2568
 1920TIP3   OH227174   1.538   1.702   2.136  0.1533  0.1217 -0.0692
 1920TIP3    H127175   1.539   1.677   2.228 -0.2596  1.5440  0.3559
 1920TIP3    H227176   1.451   1.741   2.122  0.4468  0.5199 -0.8788
 1921TIP3   OH227177   0.202   1.478   4.955  0.5927  0.1726  0.0567
 1921TIP3    H127178   0.173   1.564   4.925 -1.4153 -0.2450  0.6313
 1921TIP3    H227179   0.241   1.495   5.041 -1.8497  0.3153  1.2300
 1922TIP3   OH227180   0.077   5.903  16.382  0.0593 -0.2883  0.1207
 1922TIP3    H127181   0.108   5.825  16.336  0.0200  0.2997 -0.9525
 1922TIP3    H227182   0.035   5.956  16.314 -0.7286  0.2536  0.9967
 1923TIP3   OH227183   5.492   2.694  12.719 -0.8629 -0.0059 -0.2199
 1923TIP3    H127184   5.406   2.655  12.736 -0.7932 -0.0206  0.1058
 1923TIP3    H227185   5.483   2.784  12.751 -0.6901 -0.0714  0.0170
 1924TIP3   OH227186   0.819   1.868  15.641  0.2165 -0.1740 -0.0052
 1924TIP3    H127187   0.733   1.883  15.600  0.7093  2.8964 -0.1597
 1924TIP3    H227188   0.809   1.905  15.729  0.7686 -1.8877  0.8269
 1925TIP3   OH227189   4.596   5.363  14.201  0.0337  0.3088 -0.4465
 1925TIP3    H127190   4.567   5.323  14.119  0.4923 -0.7591 -0.1053
 1925TIP3    H227191   4.521   5.415  14.230 -0.4418  0.0066 -1.1027
 1926TIP3   OH227192   1.048   6.657   1.170  0.3646 -0.3683 -0.2651
 1926TIP3    H127193   1.058   6.654   1.265  1.7395 -1.5051 -0.4077
 1926TIP3    H227194   0.991   6.583   1.148 -1.1068  0.7146 -0.2405
 1927TIP3   OH227195   1.521   1.555   0.342 -0.3207  0.3470 -0.2927
 1927TIP3    H127196   1.608   1.588   0.321  0.6464 -3.2426 -2.9681
 1927TIP3    H227197   1.537   1.480   0.400 -1.5368 -0.5560 -1.0492
 1928TIP3   OH227198   5.626   1.772  11.642 -0.0938  0.0697  0.6838
 1928TIP3    H127199   5.547   1.719  11.654  0.2273 -0.7974 -0.8006
 1928TIP3    H227200   5.618   1.806  11.552 -0.1812  2.3969  1.5111
 1929TIP3   OH227201   1.815   5.176  16.452  0.1792  0.1214 -0.5159
 1929TIP3    H127202   1.793   5.131  16.534  0.0245 -2.0633 -1.6921
 1929TIP3    H227203   1.886   5.124  16.414  2.1219  2.6228 -0.5415
 1930TIP3   OH227204   4.231   6.069   3.509  0.3208  0.5084  0.1001
 1930TIP3    H127205   4.189   6.067   3.595  0.9251 -0.8856  0.3832
 1930TIP3    H227206   4.281   6.151   3.509 -1.8959  1.9611 -0.0483
 1931TIP3   OH227207   1.866   6.432  15.190  0.2900  0.1679 -0.0232
 1931TIP3    H127208   1.775   6.425  15.160 -0.1722  1.5028  0.9712
 1931TIP3    H227209   1.904   6.499  15.134  0.0835  1.0038  0.8067
 1932TIP3   OH227210   0.436   4.740  15.395  0.7001  0.1694  0.1879
 1932TIP3    H127211   0.416   4.725  15.302 -1.4431  2.1711  0.2594
 1932TIP3    H227212   0.351   4.739  15.438  1.4820  1.2097  1.8349
 1933TIP3   OH227213   5.896   1.179   1.014 -0.4316 -0.1675 -0.2648
 1933TIP3    H127214   5.842   1.134   1.079 -2.0620 -0.4717 -1.7474
 1933TIP3    H227215   5.937   1.251   1.062 -2.1424  0.0580  0.9572
 1934TIP3   OH227216   1.710   5.874   0.278  0.2814  0.3187 -0.7203
 1934TIP3    H127217   1.691   5.942   0.342 -0.4162 -0.2418 -0.3201
 1934TIP3    H227218   1.642   5.808   0.292  0.7656 -0.3192 -1.3059
 1935TIP3   OH227219   6.251   4.841   0.410 -0.0309  0.4287 -0.0368
 1935TIP3    H127220   6.288   4.892   0.338  0.3888 -0.8751 -0.7779
 1935TIP3    H227221   6.309   4.766   0.419 -2.7423 -2.0733 -1.6669
 1936TIP3   OH227222   1.717   3.088   0.872 -0.2343 -0.0264  0.9819
 1936TIP3    H127223   1.678   3.108   0.787  0.1297 -0.5270  0.6907
 1936TIP3    H227224   1.796   3.037   0.850  0.2233  0.4182  1.5859
 1937TIP3   OH227225   4.708   1.778  14.874 -0.3080 -0.1842 -0.2123
 1937TIP3    H127226   4.641   1.847  14.868 -0.1141  0.0192 -0.0380
 1937TIP3    H227227   4.714   1.758  14.967 -0.8274 -0.8976 -0.3244
 1938TIP3   OH227228   6.702   1.334   4.494  0.5575  0.4003 -0.6579
 1938TIP3    H127229   6.777   1.298   4.541 -0.8270  0.1726  1.5325
 1938TIP3    H227230   6.717   1.429   4.494  0.1418  0.5089  1.2085
 1939TIP3   OH227231   3.319   1.278   4.266 -0.6420  0.1962 -0.1292
 1939TIP3    H127232   3.400   1.282   4.215 -0.9780 -0.7870 -0.7643
 1939TIP3    H227233   3.260   1.338   4.220 -0.2127  1.0894  0.4669
 1940TIP3   OH227234   2.149   2.916   5.176 -0.1475 -1.0887 -0.0123
 1940TIP3    H127235   2.057   2.898   5.152 -0.8286  1.3623  0.5196
 1940TIP3    H227236   2.146   3.002   5.218  2.1925 -1.6778  1.5005
 1941TIP3   OH227237   6.357   2.779  13.256  0.4106 -0.1409  0.3322
 1941TIP3    H127238   6.328   2.869  13.274 -0.5217 -0.3105 -0.2277
 1941TIP3    H227239   6.451   2.787  13.239  0.0788  0.9872 -1.2228
 1942TIP3   OH227240   4.543   5.431  16.436  0.1570 -0.0236  0.1261
 1942TIP3    H127241   4.532   5.337  16.426  0.2034  0.0142 -0.2922
 1942TIP3    H227242   4.595   5.457  16.360 -0.2358  0.4090  0.0029
 1943TIP3   OH227243   2.957   2.013   2.665 -0.3360 -0.1534 -0.1601
 1943TIP3    H127244   3.038   2.063   2.677  0.0047 -0.9850  1.1932
 1943TIP3    H227245   2.898   2.073   2.620  0.4639  1.0368  0.3455
 1944TIP3   OH227246   5.618   5.682   0.305  0.2766 -0.0469 -0.0021
 1944TIP3    H127247   5.697   5.655   0.258  0.2323 -0.1142 -0.0382
 1944TIP3    H227248   5.650   5.740   0.373  0.3034  0.3438 -0.3465
 1945TIP3   OH227249   1.858   4.542  16.179  0.2902 -0.0279 -0.2235
 1945TIP3    H127250   1.925   4.592  16.227  0.3485 -0.5289  0.2161
 1945TIP3    H227251   1.903   4.514  16.099 -0.0261  1.4438 -0.9503
 1946TIP3   OH227252   1.543   2.130  11.643 -0.5969 -0.6766 -0.5687
 1946TIP3    H127253   1.605   2.061  11.623  0.4021 -0.3050  1.0605
 1946TIP3    H227254   1.590   2.211  11.626  0.4962 -0.3003  3.1881
 1947TIP3   OH227255   1.682   1.913   2.233  0.3037  0.0537 -0.3896
 1947TIP3    H127256   1.629   1.991   2.216 -1.5585 -1.0246  0.1572
 1947TIP3    H227257   1.628   1.840   2.200  2.2546 -0.9847 -1.4607
 1948TIP3   OH227258   6.208   1.383   2.516  0.0630 -0.6133  0.1469
 1948TIP3    H127259   6.139   1.346   2.460 -0.4485  1.4487 -0.7015
 1948TIP3    H227260   6.287   1.335   2.493 -0.7969 -2.0721  0.1155
 1949TIP3   OH227261   4.294   2.820   4.762  0.5937 -0.3062 -0.4154
 1949TIP3    H127262   4.326   2.873   4.689  2.2759  0.6920  0.9362
 1949TIP3    H227263   4.338   2.736   4.751  0.8659 -0.1499 -0.5502
 1950TIP3   OH227264   0.971   1.350  15.239  0.0861 -0.6978  0.3718
 1950TIP3    H127265   1.035   1.358  15.168 -0.4366 -1.4937 -0.2181
 1950TIP3    H227266   0.886   1.351  15.194 -0.2231 -2.2261  0.8807
 1951TIP3   OH227267   3.621   1.364   0.072 -0.4000  0.0922 -0.0660
 1951TIP3    H127268   3.602   1.458   0.081 -3.6690 -0.4734 -0.0057
 1951TIP3    H227269   3.585   1.340  -0.013 -0.3907 -1.2705  0.2904
 1952TIP3   OH227270   3.837   4.084   3.403 -0.4676  0.2769  0.3472
 1952TIP3    H127271   3.886   4.022   3.457 -0.9485 -0.2104  0.2403
 1952TIP3    H227272   3.777   4.029   3.352 -1.2473  0.8622  0.6073
 1953TIP3   OH227273   2.232   1.331  15.727 -0.0156  0.0686 -0.2641
 1953TIP3    H127274   2.192   1.245  15.716  0.6241 -0.1932 -0.5452
 1953TIP3    H227275   2.219   1.375  15.643 -1.3482  0.6867  0.2295
 1954TIP3   OH227276   2.950   4.823   6.021  0.2055  0.3652 -0.5967
 1954TIP3    H127277   2.996   4.742   6.046 -0.5805  0.2159  0.4088
 1954TIP3    H227278   2.990   4.847   5.937  0.1257 -1.3342 -1.1708
 1955TIP3   OH227279   3.351   0.406   5.672 -0.2653 -0.1602  0.7102
 1955TIP3    H127280   3.407   0.355   5.731 -0.5764 -0.5725  0.6536
 1955TIP3    H227281   3.394   0.492   5.666  1.5169 -1.1025 -1.0046
 1956TIP3   OH227282   3.587   3.519   1.269 -0.4795 -0.3277 -0.0888
 1956TIP3    H127283   3.598   3.541   1.176  1.0052  1.8404  0.5066
 1956TIP3    H227284   3.519   3.579   1.300  0.2122  0.1425  0.5572
 1957TIP3   OH227285   0.722   0.814  15.328  0.3200  0.3469 -0.1863
 1957TIP3    H127286   0.673   0.756  15.270  0.7119  0.0057 -0.1862
 1957TIP3    H227287   0.757   0.755  15.395  2.7142  0.1454 -1.4832
 1958TIP3   OH227288   4.266   5.259   3.833  0.4279 -0.1541 -0.2865
 1958TIP3    H127289   4.233   5.172   3.808 -0.9533  0.1858  0.2664
 1958TIP3    H227290   4.272   5.255   3.928  1.2275  0.0712 -0.3224
 1959TIP3   OH227291   3.326   4.810  15.305 -0.2155  0.8845 -0.2976
 1959TIP3    H127292   3.240   4.830  15.342 -0.2411  3.1712 -1.4021
 1959TIP3    H227293   3.307   4.757  15.228 -0.3928 -0.9932  0.9863
 1960TIP3   OH227294   1.780   4.307   4.933 -0.5546  0.0117 -0.6153
 1960TIP3    H127295   1.701   4.304   4.879 -1.7925 -0.6683  1.1623
 1960TIP3    H227296   1.760   4.251   5.008  1.7672 -0.4752 -0.2870
 1961TIP3   OH227297   5.100   0.291   2.383  0.3017  0.2198 -0.3938
 1961TIP3    H127298   5.071   0.266   2.471  0.1401  1.5936 -0.0237
 1961TIP3    H227299   5.193   0.270   2.381  0.1533 -0.4752 -0.1437
 1962TIP3   OH227300   4.047   2.814   3.817  0.0147  0.2397 -0.4986
 1962TIP3    H127301   3.970   2.760   3.836  0.7958 -0.6887  0.1619
 1962TIP3    H227302   4.111   2.752   3.781  0.6614  0.8820 -0.4680
 1963TIP3   OH227303   4.588   4.110  11.394  0.0478  0.2662 -0.1348
 1963TIP3    H127304   4.502   4.138  11.361  0.1626 -2.4757 -3.2672
 1963TIP3    H227305   4.573   4.094  11.488 -1.9883  2.6224  0.0783
 1964TIP3   OH227306   3.395   4.165   0.157 -0.0166  0.0638  0.1002
 1964TIP3    H127307   3.421   4.077   0.132 -0.5704 -0.1190  0.1471
 1964TIP3    H227308   3.300   4.166   0.144  0.0550  0.8249 -0.4282
 1965TIP3   OH227309   5.701   0.343  13.045  0.0444 -0.1808  0.2313
 1965TIP3    H127310   5.613   0.345  13.083 -0.8439  1.2566 -1.7299
 1965TIP3    H227311   5.688   0.367  12.953  2.6565  1.3863  0.1843
 1966TIP3   OH227312   1.969   4.888  13.653 -0.0831  0.0705 -0.0040
 1966TIP3    H127313   1.922   4.846  13.581  0.5950  1.8072 -1.5168
 1966TIP3    H227314   2.061   4.863  13.640  0.0197  0.2316  0.3890
 1967TIP3   OH227315   2.183   0.642  14.265 -0.4108 -0.1140 -0.1429
 1967TIP3    H127316   2.175   0.662  14.358 -0.6970 -3.9550  0.8218
 1967TIP3    H227317   2.120   0.701  14.223  0.2109  2.1914  1.9223
 1968TIP3   OH227318   1.415   6.748  14.478 -0.2590  0.1609 -0.0277
 1968TIP3    H127319   1.486   6.729  14.540  0.1251 -0.9253 -0.7697
 1968TIP3    H227320   1.459   6.757  14.393 -0.4418  4.0103  0.0818
 1969TIP3   OH227321   3.668   1.060   4.274  0.1839 -0.0056 -0.1145
 1969TIP3    H127322   3.659   0.993   4.342 -0.1637 -1.0398 -1.1486
 1969TIP3    H227323   3.757   1.048   4.241  0.1360  0.0848 -0.2750
 1970TIP3   OH227324   1.708   3.004   0.398  0.0374  0.0185  0.3435
 1970TIP3    H127325   1.670   3.024   0.312 -1.4736  0.3167  1.0552
 1970TIP3    H227326   1.703   2.908   0.405 -0.0002  0.0082  0.1769
 1971TIP3   OH227327   5.603   5.196   3.087  0.2587 -0.1276 -0.0378
 1971TIP3    H127328   5.591   5.291   3.090  0.4400 -0.1167  1.2592
 1971TIP3    H227329   5.642   5.175   3.172 -0.7342 -1.4886  0.1203
 1972TIP3   OH227330   1.516   5.509   5.569  0.0455  0.9734 -0.3007
 1972TIP3    H127331   1.476   5.430   5.533 -0.1318  0.7667  0.3333
 1972TIP3    H227332   1.472   5.581   5.523 -1.5434  0.7818  0.8095
 1973TIP3   OH227333   3.530   5.777  11.782  0.3214 -0.2556 -0.0991
 1973TIP3    H127334   3.622   5.765  11.805  0.1090  0.4399  1.2264
 1973TIP3    H227335   3.482   5.723  11.844 -0.2296  0.6842  0.3164
 1974TIP3   OH227336   3.886   5.941   5.675  0.2304  0.2151  0.2567
 1974TIP3    H127337   3.814   5.895   5.632  2.2853 -0.8775 -2.2398
 1974TIP3    H227338   3.908   5.886   5.750 -0.3205 -0.4325 -0.0518
 1975TIP3   OH227339   3.146   3.644  13.767  0.3170  0.0617  0.0791
 1975TIP3    H127340   3.235   3.640  13.730 -1.4935 -1.3015 -4.9531
 1975TIP3    H227341   3.092   3.676  13.695 -3.3332  1.3266  3.0562
 1976TIP3   OH227342   6.265   5.900   3.541 -0.0273 -0.1578 -0.0399
 1976TIP3    H127343   6.314   5.817   3.545  1.2703  0.5901  0.1744
 1976TIP3    H227344   6.190   5.881   3.486  1.3966 -0.9183 -1.8032
 1977TIP3   OH227345   5.901   0.050  13.834 -0.4226  0.4415  0.1289
 1977TIP3    H127346   5.896   0.098  13.916 -1.1872  0.1312  0.2743
 1977TIP3    H227347   5.820  -0.002  13.831 -0.4731  0.5488 -0.8721
 1978TIP3   OH227348   3.367   4.644   2.649 -0.7943 -0.1394  0.8686
 1978TIP3    H127349   3.393   4.715   2.590  1.4191 -1.5344  0.0280
 1978TIP3    H227350   3.318   4.687   2.719 -1.1922  1.9289 -0.5938
 1979TIP3   OH227351   1.937   2.110  11.159  0.4335  0.0718 -0.4472
 1979TIP3    H127352   1.891   2.159  11.227  1.4661  0.6998 -0.1807
 1979TIP3    H227353   1.940   2.170  11.084  1.5428  0.3731 -0.1786
 1980TIP3   OH227354   2.681   2.682   4.882 -0.2998  0.2498 -0.4205
 1980TIP3    H127355   2.713   2.770   4.899 -1.6975  0.7221 -0.0521
 1980TIP3    H227356   2.636   2.657   4.963  0.3073 -0.9253 -0.4137
 1981TIP3   OH227357   2.336   4.724  15.100  0.2570 -0.0965  0.2824
 1981TIP3    H127358   2.409   4.779  15.071  0.6343 -1.1410 -0.8632
 1981TIP3    H227359   2.304   4.765  15.180  1.1535  1.2106 -0.0120
 1982TIP3   OH227360   0.134   6.035  16.905 -0.7279  0.1588 -0.8326
 1982TIP3    H127361   0.176   6.116  16.877  1.8026 -0.9814 -0.6166
 1982TIP3    H227362   0.151   6.030  16.999  2.2032 -2.1249 -1.3183
 1983TIP3   OH227363   1.186   4.895  13.769 -0.1856  0.2401 -0.0376
 1983TIP3    H127364   1.105   4.844  13.780  0.9530 -1.7738 -0.5342
 1983TIP3    H227365   1.161   4.985  13.793 -2.8371 -0.0902 -1.1909
 1984TIP3   OH227366   3.082   1.562   3.506 -0.1895  0.2862  0.4524
 1984TIP3    H127367   3.174   1.569   3.533  0.0419  0.7957 -0.4561
 1984TIP3    H227368   3.039   1.636   3.547  0.0222  0.6586  0.0078
 1985TIP3   OH227369   0.983   3.249   0.435  0.2520  0.3916 -0.3931
 1985TIP3    H127370   1.034   3.281   0.509  0.4914 -2.0410  0.5821
 1985TIP3    H227371   1.010   3.157   0.425  0.0928  0.5846 -3.4046
 1986TIP3   OH227372   3.739   1.007  12.382 -0.1865  0.2735 -0.3392
 1986TIP3    H127373   3.819   1.059  12.391  0.7383 -1.0488 -0.5867
 1986TIP3    H227374   3.675   1.052  12.437  1.0275  0.7731  0.7158
 1987TIP3   OH227375   3.172   5.261   1.003 -0.2173 -0.4340 -0.1432
 1987TIP3    H127376   3.146   5.257   0.912  0.1991  1.4024 -0.3936
 1987TIP3    H227377   3.143   5.347   1.033  1.5197 -0.1345  0.8280
 1988TIP3   OH227378   4.630   2.478   1.671 -0.0191  0.3238 -0.0241
 1988TIP3    H127379   4.696   2.517   1.727  1.4535  1.1597 -2.2318
 1988TIP3    H227380   4.669   2.396   1.641 -0.4730  0.2391 -0.4045
 1989TIP3   OH227381   3.554   0.228  11.494  0.1167 -0.1635 -0.2706
 1989TIP3    H127382   3.492   0.164  11.460  0.9595 -0.2393 -1.7664
 1989TIP3    H227383   3.510   0.267  11.570 -1.8468 -0.0383 -1.4089
 1990TIP3   OH227384   3.383   2.517   1.999  0.0268  0.0978 -0.3490
 1990TIP3    H127385   3.313   2.482   2.055  0.0231 -0.5393 -0.7448
 1990TIP3    H227386   3.444   2.444   1.989  1.2707  0.9290  0.7930
 1991TIP3   OH227387   2.600   2.687   5.528 -0.7716  0.0565 -0.4827
 1991TIP3    H127388   2.584   2.629   5.454  0.9047  0.9816 -1.6301
 1991TIP3    H227389   2.632   2.629   5.597  0.5402 -0.4655 -1.4927
 1992TIP3   OH227390   4.542   0.098  16.818 -0.1722  0.5898  0.4708
 1992TIP3    H127391   4.495   0.056  16.890 -1.0100  0.2093 -0.2728
 1992TIP3    H227392   4.528   0.040  16.743  2.0657  0.0862  0.3517
 1993TIP3   OH227393   6.233   0.717  12.133 -0.3985 -0.0488 -0.3247
 1993TIP3    H127394   6.151   0.748  12.093  1.2026  2.5445 -1.8703
 1993TIP3    H227395   6.251   0.781  12.202  0.7905 -0.0335 -0.6369
 1994TIP3   OH227396   5.175   1.470  13.340  0.0959  0.7288  0.0805
 1994TIP3    H127397   5.118   1.452  13.266  0.7805 -1.4506 -0.0063
 1994TIP3    H227398   5.171   1.565  13.352 -0.5254  1.0716 -2.3276
 1995TIP3   OH227399   4.641   3.437   1.058 -0.3556 -0.0808  0.5522
 1995TIP3    H127400   4.654   3.488   0.978 -0.8768 -1.4940 -0.4775
 1995TIP3    H227401   4.692   3.482   1.125  2.8112 -0.6725 -1.3008
 1996TIP3   OH227402   5.144   6.576   3.489  0.1867 -0.3391 -0.0572
 1996TIP3    H127403   5.224   6.583   3.438 -0.1825  1.3191 -0.4553
 1996TIP3    H227404   5.169   6.520   3.563  1.5520 -0.2953 -0.4436
 1997TIP3   OH227405   5.897   1.191  12.334 -0.7036 -0.5407 -0.8681
 1997TIP3    H127406   5.915   1.212  12.242 -1.9496  1.2227 -0.7630
 1997TIP3    H227407   5.898   1.096  12.338  3.0986 -0.7253 -1.9138
 1998TIP3   OH227408   2.564   3.695   2.866  0.1834 -0.0269  0.4368
 1998TIP3    H127409   2.489   3.657   2.821  0.6413  0.8679 -1.1466
 1998TIP3    H227410   2.565   3.652   2.952 -0.8156 -1.6724 -0.3340
 1999TIP3   OH227411   2.951   5.952   2.288  0.3534 -0.1098 -0.1384
 1999TIP3    H127412   2.901   5.975   2.209  3.5552  0.7194 -2.0833
 1999TIP3    H227413   2.978   5.861   2.273 -0.9987 -0.7905  1.2297
 2000TIP3   OH227414   3.966   2.376  16.467 -0.1209 -0.0925  0.5116
 2000TIP3    H127415   3.930   2.383  16.555 -0.3111 -1.0600  0.5215
 2000TIP3    H227416   4.002   2.463  16.449 -1.8354  0.7307  0.7732
 2001TIP3   OH227417   0.736   1.781  12.769 -0.6709 -0.0922  0.1446
 2001TIP3    H127418   0.721   1.692  12.802 -0.3469 -0.5414 -0.8608
 2001TIP3    H227419   0.653   1.826  12.782 -0.5249 -0.2089  1.6283
 2002TIP3   OH227420   6.258   3.273  16.367  0.1204 -0.8150 -0.2322
 2002TIP3    H127421   6.257   3.308  16.278 -1.4614 -0.1473  0.0063
 2002TIP3    H227422   6.296   3.343  16.420 -0.1496 -0.6904 -0.2020
 2003TIP3   OH227423   6.695   1.446  12.501 -0.1849 -0.4152 -0.0422
 2003TIP3    H127424   6.616   1.448  12.555  0.4115  0.8225  0.8183
 2003TIP3    H227425   6.715   1.352  12.492  0.1468 -0.6889  2.6040
 2004TIP3   OH227426   5.097   3.483   2.771 -0.1536 -0.3475 -0.1275
 2004TIP3    H127427   5.062   3.563   2.808  0.4356  1.4220 -3.0880
 2004TIP3    H227428   5.192   3.495   2.772 -0.1127 -0.1043 -2.2810
 2005TIP3   OH227429   4.730   0.453  12.651 -0.1644 -0.2311  0.1433
 2005TIP3    H127430   4.686   0.386  12.704 -2.1734  1.0773  0.2276
 2005TIP3    H227431   4.691   0.444  12.564  2.7002 -1.9796 -1.1129
 2006TIP3   OH227432   2.827   1.474   2.286 -0.9733 -0.0609 -0.3672
 2006TIP3    H127433   2.919   1.491   2.262 -0.9156  0.6332  0.3071
 2006TIP3    H227434   2.792   1.561   2.307 -1.4089 -0.4820  0.6946
 2007TIP3   OH227435   2.340   2.871   0.437  0.2752  0.1690 -0.1819
 2007TIP3    H127436   2.362   2.961   0.414  0.1726  0.2301 -0.0438
 2007TIP3    H227437   2.244   2.869   0.437  0.2640  0.3056  0.7544
 2008TIP3   OH227438   4.844   3.987   4.510  0.3210 -0.3381 -0.1089
 2008TIP3    H127439   4.920   4.016   4.560  0.4968 -0.1218 -0.4997
 2008TIP3    H227440   4.874   3.907   4.465 -0.2869 -1.3935  1.2986
 2009TIP3   OH227441   2.604   0.252   4.111 -0.5300 -0.3806 -0.0429
 2009TIP3    H127442   2.619   0.183   4.046 -1.2389 -0.1588 -0.4542
 2009TIP3    H227443   2.562   0.208   4.184 -3.7723  0.0316 -1.4815
 2010TIP3   OH227444   3.119   1.771  16.690 -0.1603 -0.4208  0.2813
 2010TIP3    H127445   3.089   1.846  16.742  0.9975  0.2715 -0.0190
 2010TIP3    H227446   3.165   1.809  16.616  0.4675 -1.4352  0.1256
 2011TIP3   OH227447   6.178   3.752  13.307 -0.4680 -0.4786 -0.2323
 2011TIP3    H127448   6.206   3.709  13.227  0.1044  1.2109 -0.9992
 2011TIP3    H227449   6.104   3.807  13.280 -0.1361  0.2687  0.3201
 2012TIP3   OH227450   6.643   3.096   3.784  0.1755  0.2633 -0.0635
 2012TIP3    H127451   6.577   3.162   3.766  1.0040  1.0826 -0.1648
 2012TIP3    H227452   6.727   3.138   3.762  0.7873 -0.5001  0.7115
 2013TIP3   OH227453   5.312   2.962   0.389 -0.1807  0.3616 -0.3749
 2013TIP3    H127454   5.341   2.914   0.311  1.1449  1.7142 -0.7522
 2013TIP3    H227455   5.374   2.937   0.457 -0.5149  0.2381 -0.1127
 2014TIP3   OH227456   0.511   4.142  15.625 -0.1479 -0.6231 -0.5889
 2014TIP3    H127457   0.476   4.231  15.620  1.4839  0.0011 -1.5105
 2014TIP3    H227458   0.459   4.100  15.694 -0.9763  1.0052 -0.1606
 2015TIP3   OH227459   2.432   0.195   6.004  0.0306  0.1582 -0.2239
 2015TIP3    H127460   2.355   0.222   5.954 -0.1780 -0.2720 -0.1484
 2015TIP3    H227461   2.476   0.276   6.027 -0.1905  0.3895 -0.6034
 2016TIP3   OH227462   1.063   2.078  14.457 -0.6486 -0.2479  0.3854
 2016TIP3    H127463   0.970   2.099  14.456 -0.4737  0.5867 -0.7716
 2016TIP3    H227464   1.072   2.003  14.398 -0.4863  0.2096 -0.1816
 2017TIP3   OH227465   4.986   2.059  15.731  0.0311 -0.1593  0.5079
 2017TIP3    H127466   5.047   2.070  15.805  2.0194  0.7674 -1.1757
 2017TIP3    H227467   4.946   1.973  15.747  1.3835 -0.5767  2.0025
 2018TIP3   OH227468   3.090   3.290   0.920 -0.0151  0.3602  0.0606
 2018TIP3    H127469   3.032   3.229   0.965 -0.0048  0.7768  0.6570
 2018TIP3    H227470   3.170   3.240   0.903  0.0400  0.2435  0.6595
 2019TIP3   OH227471   5.640   3.221  10.349 -0.3580 -0.3210 -0.1534
 2019TIP3    H127472   5.674   3.159  10.284  1.4137 -0.4350  0.8076
 2019TIP3    H227473   5.621   3.167  10.425 -1.5880 -0.0584 -0.2486
 2020TIP3   OH227474   1.727   5.963   4.384 -0.1399 -0.2019 -0.1082
 2020TIP3    H127475   1.636   5.943   4.362 -0.2101  1.0703 -1.0985
 2020TIP3    H227476   1.724   6.000   4.472 -0.8505  1.4544 -0.7821
 2021TIP3   OH227477   1.788   1.696  14.242 -0.6392  0.1589 -0.1110
 2021TIP3    H127478   1.747   1.764  14.295 -0.1065  0.7863 -0.4933
 2021TIP3    H227479   1.746   1.615  14.270 -1.8729  0.7378 -0.2214
 2022TIP3   OH227480   6.403   0.186  13.365 -0.2896 -0.2267 -0.5603
 2022TIP3    H127481   6.469   0.216  13.302  0.4803 -1.5742 -0.4275
 2022TIP3    H227482   6.428   0.227  13.448 -0.0356 -0.1727 -0.6636
 2023TIP3   OH227483   3.985   3.638  15.215  0.0829 -0.1809 -0.3674
 2023TIP3    H127484   4.013   3.628  15.306  2.3796  0.8614 -0.8909
 2023TIP3    H227485   4.039   3.576  15.166  1.1725  1.4556 -1.3576
 2024TIP3   OH227486   4.800   2.694  10.987 -0.9344  0.0142  0.1125
 2024TIP3    H127487   4.819   2.764  11.049 -2.0129  0.2185  0.2247
 2024TIP3    H227488   4.884   2.677  10.944 -0.5771  1.0963  0.3581
 2025TIP3   OH227489   4.501   6.019  12.380  0.0038 -0.1495  0.0818
 2025TIP3    H127490   4.537   5.956  12.442 -0.0250 -0.3677 -0.1255
 2025TIP3    H227491   4.407   5.999  12.378  0.3179 -1.6511 -1.7649
 2026TIP3   OH227492   5.256   6.633  11.716  0.1503  0.1014  0.0278
 2026TIP3    H127493   5.261   6.728  11.705  0.1567  0.3327  1.7477
 2026TIP3    H227494   5.162   6.614  11.712  0.1576  0.1516 -0.4645
 2027TIP3   OH227495   2.069   2.513   6.499  0.4876 -0.3269 -0.5734
 2027TIP3    H127496   2.155   2.489   6.464  0.8210 -0.5092  0.3428
 2027TIP3    H227497   2.014   2.436   6.483  0.1128  0.2803 -2.3624
 2028TIP3   OH227498   4.685   0.039  15.739  0.0632  0.3509 -0.6794
 2028TIP3    H127499   4.749  -0.032  15.733 -0.8105 -0.3745 -1.7175
 2028TIP3    H227500   4.722   0.108  15.683  1.2993  1.0835  0.9403
 2029TIP3   OH227501   1.235   3.395  15.944 -0.0951 -0.2324 -0.0304
 2029TIP3    H127502   1.262   3.473  15.894  0.1877  0.2726  0.8819
 2029TIP3    H227503   1.162   3.426  15.997  0.6368 -0.3129  1.0566
 2030TIP3   OH227504   6.034   2.137  12.272 -0.0159  0.2980 -0.2919
 2030TIP3    H127505   6.031   2.200  12.344  1.2262 -0.0272  0.0657
 2030TIP3    H227506   6.027   2.051  12.315  0.8599  0.0980 -0.5219
 2031TIP3   OH227507   5.464   5.651   6.055 -0.1019  0.1246 -0.2898
 2031TIP3    H127508   5.413   5.716   6.007 -0.0180 -0.1559 -0.7712
 2031TIP3    H227509   5.399   5.589   6.087 -0.2123  0.6231  0.4505
 2032TIP3   OH227510   2.424   3.394   1.757 -0.4254 -0.2776 -0.3482
 2032TIP3    H127511   2.379   3.476   1.774 -0.5615 -0.7204  1.6473
 2032TIP3    H227512   2.513   3.420   1.732 -0.6653  0.4927 -0.4163
 2033TIP3   OH227513   6.606   3.693  11.349 -0.4000  0.5695 -0.3103
 2033TIP3    H127514   6.584   3.600  11.341  0.0600  0.4963 -0.7781
 2033TIP3    H227515   6.533   3.739  11.306  0.6831  0.2952 -2.5915
 2034TIP3   OH227516   0.292   3.855   5.055  0.2331  0.7490  1.3091
 2034TIP3    H127517   0.205   3.830   5.085 -1.0561  1.3217 -1.6687
 2034TIP3    H227518   0.324   3.778   5.008 -1.4239  2.4452 -3.0343
 2035TIP3   OH227519   4.833   3.717  14.625  0.1279 -0.1170 -0.4329
 2035TIP3    H127520   4.794   3.630  14.614 -1.6798  0.6103 -0.1180
 2035TIP3    H227521   4.820   3.760  14.540  2.8533 -0.7833 -1.2867
 2036TIP3   OH227522   1.628   0.881   4.519  0.1357 -0.2610  0.6611
 2036TIP3    H127523   1.596   0.941   4.587  1.0070 -0.8895  1.6631
 2036TIP3    H227524   1.722   0.899   4.513  0.2402 -0.9008  0.3240
 2037TIP3   OH227525   0.567   1.240  17.239  0.0542  0.5973  0.1721
 2037TIP3    H127526   0.547   1.330  17.265  0.2177  0.4780  0.7265
 2037TIP3    H227527   0.644   1.247  17.184  0.1365  0.7850  0.3119
 2038TIP3   OH227528   1.754   5.531  14.441 -0.0267 -0.7603 -0.3038
 2038TIP3    H127529   1.808   5.461  14.404 -2.2561 -1.8270 -1.7805
 2038TIP3    H227530   1.781   5.610  14.395  2.5964 -0.5154  1.4517
 2039TIP3   OH227531   2.436   5.415   2.707  0.4494  0.0264  0.8585
 2039TIP3    H127532   2.352   5.404   2.751 -1.4550  0.9293 -2.2676
 2039TIP3    H227533   2.476   5.328   2.710 -2.4223 -1.4776 -0.9298
 2040TIP3   OH227534   5.562   4.178  14.840 -0.0821  0.3500  0.4195
 2040TIP3    H127535   5.589   4.170  14.749 -1.4753  3.0117 -0.3120
 2040TIP3    H227536   5.644   4.171  14.889  0.4450 -3.7496 -0.6742
 2041TIP3   OH227537   2.836   6.270   6.142  0.1430 -0.3012  0.3925
 2041TIP3    H127538   2.840   6.208   6.215  1.0717 -0.9326 -0.1813
 2041TIP3    H227539   2.750   6.255   6.104  0.4146 -1.3838  0.1538
 2042TIP3   OH227540   4.826   5.250   0.417  0.2941 -0.0906 -0.0018
 2042TIP3    H127541   4.809   5.336   0.378 -0.5176  0.0017  0.5389
 2042TIP3    H227542   4.770   5.190   0.368  0.3984 -0.2151  0.0318
 2043TIP3   OH227543   3.202   3.293  17.240  0.0384 -0.0817 -0.1432
 2043TIP3    H127544   3.132   3.274  17.177 -0.6765 -0.3701  0.7118
 2043TIP3    H227545   3.242   3.373  17.208  1.0528 -1.2833 -2.1105
 2044TIP3   OH227546   4.986   4.816   4.052 -0.2788 -0.2685  0.7761
 2044TIP3    H127547   4.896   4.784   4.063 -0.1866 -0.5139  0.8052
 2044TIP3    H227548   4.976   4.895   3.997 -0.4295 -0.8009  0.0200
 2045TIP3   OH227549   4.821   1.401  10.913  0.3249  0.1997  0.2126
 2045TIP3    H127550   4.892   1.339  10.899 -0.2405 -0.3572 -0.2888
 2045TIP3    H227551   4.745   1.346  10.931 -0.3400  0.7154 -0.9185
 2046TIP3   OH227552   1.077   3.384   0.671 -0.1814  0.4841  0.4742
 2046TIP3    H127553   0.985   3.390   0.642  0.0230  0.5726 -0.1720
 2046TIP3    H227554   1.074   3.325   0.746 -0.5790 -0.6428 -0.4041
 2047TIP3   OH227555   3.816   3.171   4.776 -0.0192  0.0916  0.3260
 2047TIP3    H127556   3.746   3.213   4.725  0.4816  0.2529 -0.2467
 2047TIP3    H227557   3.824   3.084   4.739 -0.1372 -0.0396  0.6085
 2048TIP3   OH227558   5.316   1.345  10.695  0.3327 -0.2083 -0.2076
 2048TIP3    H127559   5.306   1.256  10.729  1.2696 -0.7799 -1.3356
 2048TIP3    H227560   5.397   1.377  10.733 -0.0668  0.2217  0.2948
 2049TIP3   OH227561   2.732   5.083  16.036 -0.1832  0.4064 -0.0764
 2049TIP3    H127562   2.645   5.120  16.023  0.1707  1.7758  1.1086
 2049TIP3    H227563   2.758   5.113  16.124  0.6673 -1.6498  0.4502
 2050TIP3   OH227564   2.001   6.358   2.856 -0.2614  0.0939 -0.2484
 2050TIP3    H127565   2.004   6.430   2.919  0.2524 -0.6043  0.5468
 2050TIP3    H227566   2.056   6.290   2.894  0.0295 -0.3644 -1.4419
 2051TIP3   OH227567   5.380   3.779   2.847 -0.4475 -0.0926  0.1743
 2051TIP3    H127568   5.468   3.748   2.870  0.1984  0.9619 -0.7734
 2051TIP3    H227569   5.394   3.835   2.771 -2.1935 -1.5431 -1.3069
 2052TIP3   OH227570   5.679   3.844  13.769  0.1041 -0.1984 -0.1904
 2052TIP3    H127571   5.769   3.831  13.797 -0.0721 -1.0185  0.0271
 2052TIP3    H227572   5.682   3.839  13.674  0.4396  0.8465 -0.2499
 2053TIP3   OH227573   0.514   3.469  15.574  0.3117 -0.4000  0.0671
 2053TIP3    H127574   0.422   3.491  15.587  0.7399  1.1092  0.9028
 2053TIP3    H227575   0.531   3.486  15.481  0.2371  1.5600  0.3543
 2054TIP3   OH227576   1.697   0.387  14.799  0.2241  0.0085 -0.2354
 2054TIP3    H127577   1.776   0.358  14.844  0.8513  2.7340  0.6031
 2054TIP3    H227578   1.630   0.323  14.825  1.3354 -0.3673  1.9503
 2055TIP3   OH227579   5.823   4.421   3.056 -0.1118 -0.5230 -0.4352
 2055TIP3    H127580   5.759   4.367   3.101 -1.5669  1.8401  0.5362
 2055TIP3    H227581   5.862   4.475   3.124  3.3095 -2.0995 -0.9305
 2056TIP3   OH227582   1.861   4.330   5.277  0.3375 -0.3523 -0.1591
 2056TIP3    H127583   1.805   4.382   5.219 -2.5578 -1.8901  1.0075
 2056TIP3    H227584   1.872   4.385   5.355 -1.7373 -0.9000  0.6002
 2057TIP3   OH227585   2.969   6.206   1.815  0.1984  0.7800  0.0653
 2057TIP3    H127586   3.060   6.179   1.807 -0.1588 -0.6391  0.3995
 2057TIP3    H227587   2.955   6.268   1.743  1.5956  1.5750  0.4388
 2058TIP3   OH227588   5.010   3.169   3.686 -0.3748  0.0842  0.0218
 2058TIP3    H127589   4.942   3.209   3.632 -0.3291  0.1133 -0.0154
 2058TIP3    H227590   5.073   3.240   3.702 -1.1143  0.4694  1.3535
 2059TIP3   OH227591   4.825   5.144   3.409 -0.1043 -0.1452 -0.0196
 2059TIP3    H127592   4.825   5.150   3.504  1.3821 -0.1434  0.0069
 2059TIP3    H227593   4.910   5.178   3.383  0.9621 -3.3190 -1.1034
 2060TIP3   OH227594   5.187   1.319   1.117 -0.2873  0.4012 -0.7564
 2060TIP3    H127595   5.171   1.230   1.084 -0.6989  0.2251 -0.1144
 2060TIP3    H227596   5.106   1.367   1.099 -0.7127  0.1636  0.3982
 2061TIP3   OH227597   5.732   4.430   0.508  0.1212 -0.0891 -0.2320
 2061TIP3    H127598   5.682   4.424   0.590 -1.8723  1.1728 -1.2634
 2061TIP3    H227599   5.749   4.523   0.496  2.8784 -0.4680  0.0699
 2062TIP3   OH227600   5.118   5.879   2.996 -0.1056 -0.1304 -0.6889
 2062TIP3    H127601   5.129   5.876   2.901  1.3635 -0.3550 -0.5487
 2062TIP3    H227602   5.055   5.949   3.011 -2.4476 -1.8498 -1.9404
 2063TIP3   OH227603   5.264   0.449   1.248 -1.0384 -0.6456 -0.6341
 2063TIP3    H127604   5.355   0.455   1.220 -0.8162  1.6055  0.2678
 2063TIP3    H227605   5.239   0.359   1.231  0.6847 -0.7888 -2.8941
 2064TIP3   OH227606   0.455   3.445  12.610  0.3361 -0.8928 -0.6041
 2064TIP3    H127607   0.527   3.426  12.550  0.5565  1.4858 -1.1894
 2064TIP3    H227608   0.496   3.492  12.683 -0.6771  1.2740 -1.3626
 2065TIP3   OH227609   4.913   0.833  12.674 -0.2206  0.1993  0.1662
 2065TIP3    H127610   4.834   0.843  12.622  1.3852 -0.6447 -2.7011
 2065TIP3    H227611   4.975   0.895  12.635  0.8930 -0.0211  1.5131
 2066TIP3   OH227612   6.352   5.867  16.117 -0.3652 -0.3840  0.0016
 2066TIP3    H127613   6.330   5.824  16.199  0.6176  0.7511  0.8882
 2066TIP3    H227614   6.443   5.894  16.127 -0.4746  0.4981 -1.1388
 2067TIP3   OH227615   3.989   1.827  11.801  0.4550  0.3471  0.1759
 2067TIP3    H127616   4.080   1.855  11.788  0.2737  0.8904  0.0922
 2067TIP3    H227617   3.994   1.731  11.798  0.7934  0.3918 -1.4146
 2068TIP3   OH227618   1.423   0.227   0.227 -0.1739  0.3689 -0.1871
 2068TIP3    H127619   1.382   0.192   0.306 -0.9502  0.5698 -0.4964
 2068TIP3    H227620   1.509   0.184   0.224 -0.9996 -1.3212 -0.4226
 2069TIP3   OH227621   3.708   3.752  11.730  0.1158  0.2512  0.7245
 2069TIP3    H127622   3.783   3.726  11.784 -0.9181  0.2031  2.1930
 2069TIP3    H227623   3.631   3.722  11.779 -0.8741 -0.6456 -1.2422
 2070TIP3   OH227624   1.966   4.542  11.943  0.0274 -0.1626  0.1423
 2070TIP3    H127625   1.912   4.474  11.982 -0.9102 -0.4626 -1.5743
 2070TIP3    H227626   2.053   4.528  11.981 -0.3395 -1.7804  0.4622
 2071TIP3   OH227627   1.147   3.963   5.881  0.2187  0.0126 -0.2127
 2071TIP3    H127628   1.090   3.902   5.834 -0.0995  1.4498 -1.7911
 2071TIP3    H227629   1.096   3.988   5.959 -0.3496 -0.4577 -0.4253
 2072TIP3   OH227630   2.911   4.598  16.285 -0.4020  0.4070 -0.2803
 2072TIP3    H127631   2.901   4.685  16.247 -1.0092 -0.1577 -1.4507
 2072TIP3    H227632   2.993   4.565  16.250  1.6406  1.7837  2.8282
 2073TIP3   OH227633   6.244   0.917   5.422  0.0541  0.4480 -0.1997
 2073TIP3    H127634   6.236   0.824   5.404 -0.9457  0.4845 -0.0452
 2073TIP3    H227635   6.265   0.922   5.515  1.6192  0.3477 -0.5356
 2074TIP3   OH227636   0.267   0.344  13.607 -0.0643  0.2056 -0.0603
 2074TIP3    H127637   0.187   0.301  13.576 -0.3673  0.3196  0.5604
 2074TIP3    H227638   0.258   0.435  13.579 -0.6704  0.4739  0.9681
 2075TIP3   OH227639   4.370   1.617   1.586  0.1113  0.5001  0.4358
 2075TIP3    H127640   4.291   1.670   1.599  0.6719  1.5496 -0.2866
 2075TIP3    H227641   4.417   1.661   1.515  1.4992  0.0688  1.0512
 2076TIP3   OH227642   4.407   4.594  16.831  0.6176  0.2215 -0.0412
 2076TIP3    H127643   4.445   4.507  16.842 -2.2408 -1.1132  0.2195
 2076TIP3    H227644   4.360   4.610  16.913  0.1772  1.5344 -0.5225
 2077TIP3   OH227645   5.845   2.038   0.079 -0.2598  0.2305  0.4615
 2077TIP3    H127646   5.854   1.984   0.158 -0.8855 -0.6002 -0.0181
 2077TIP3    H227647   5.894   1.991   0.012 -0.5464  0.4319  0.1104
 2078TIP3   OH227648   1.009   6.040  12.862 -0.0490  0.3430 -0.2234
 2078TIP3    H127649   1.095   6.077  12.845 -0.0306  0.6194  0.4577
 2078TIP3    H227650   1.022   5.979  12.935 -0.1502 -0.7401 -1.0862
 2079TIP3   OH227651   1.546   0.790  16.020 -0.1603 -0.6341 -0.4136
 2079TIP3    H127652   1.574   0.876  15.990 -0.6084 -0.1289  0.5853
 2079TIP3    H227653   1.456   0.803  16.050  0.5970 -0.8215  2.1810
 2080TIP3   OH227654   4.236   1.684  15.547  0.8384  0.2254  0.3790
 2080TIP3    H127655   4.191   1.748  15.492  0.7409 -1.0310 -1.0747
 2080TIP3    H227656   4.200   1.698  15.634  0.1060  1.4853 -0.1022
 2081TIP3   OH227657   2.001   1.047  11.340  0.7375 -0.3798  0.0475
 2081TIP3    H127658   1.991   1.110  11.412  1.1466  0.5223 -0.6541
 2081TIP3    H227659   2.052   1.095  11.274 -0.4243 -0.8591 -1.2310
 2082TIP3   OH227660   6.714   3.234  15.639 -0.2233  0.3344  0.3333
 2082TIP3    H127661   6.703   3.139  15.637  0.7426  0.2223 -0.1542
 2082TIP3    H227662   6.808   3.248  15.638 -0.3112  1.2874  1.9218
 2083TIP3   OH227663   0.383   6.304   6.641 -0.4496  0.3708 -0.0724
 2083TIP3    H127664   0.321   6.335   6.708 -0.3214  0.7408 -0.1232
 2083TIP3    H227665   0.365   6.210   6.634 -0.5690  0.3560  0.3726
 2084TIP3   OH227666   3.307   2.672   0.084 -0.1153  0.6684 -0.1574
 2084TIP3    H127667   3.258   2.590   0.074 -0.1150  0.6043  0.3228
 2084TIP3    H227668   3.247   2.740   0.056 -0.1372  0.5065 -0.5050
 2085TIP3   OH227669   1.660   2.752  12.945  0.3279 -0.0744 -0.3318
 2085TIP3    H127670   1.592   2.685  12.946 -0.1913  0.4316 -0.7910
 2085TIP3    H227671   1.738   2.708  12.911  0.6876 -1.0729  1.6661
 2086TIP3   OH227672   1.631   4.911   4.274 -0.4336 -0.6318  0.2388
 2086TIP3    H127673   1.711   4.866   4.249  0.1416 -0.3492  1.4757
 2086TIP3    H227674   1.588   4.851   4.335 -1.3071 -0.8928 -0.6123
 2087TIP3   OH227675   2.458   5.026  14.417  0.7827  0.1978  0.9653
 2087TIP3    H127676   2.426   5.114  14.440 -1.5588 -0.0888 -0.7794
 2087TIP3    H227677   2.428   4.971  14.489 -0.0346  0.4507  0.8364
 2088TIP3   OH227678   3.136   3.618   5.493  0.0159  0.3501 -0.1668
 2088TIP3    H127679   3.117   3.566   5.415  1.4012  0.9693 -0.9638
 2088TIP3    H227680   3.182   3.557   5.552  0.5928  0.3571 -0.6041
 2089TIP3   OH227681   1.803   3.321   3.441  0.6300 -0.2825  0.2826
 2089TIP3    H127682   1.875   3.350   3.497  2.5488 -1.1768 -1.5602
 2089TIP3    H227683   1.782   3.233   3.473 -0.2520  0.2997  1.3494
 2090TIP3   OH227684   3.628   5.345  11.617  0.2397 -0.0659 -0.1639
 2090TIP3    H127685   3.568   5.416  11.596  0.0311  0.9169  3.1355
 2090TIP3    H227686   3.578   5.265  11.603 -0.7049  0.5833 -0.5701
 2091TIP3   OH227687   1.761   1.021   2.232  0.3382  0.0253  0.5939
 2091TIP3    H127688   1.774   1.110   2.198 -1.2636  0.3204  0.7162
 2091TIP3    H227689   1.710   0.977   2.165 -0.2425 -0.3181  1.2587
 2092TIP3   OH227690   5.870   5.238  12.418 -0.1716  0.1773 -0.1234
 2092TIP3    H127691   5.822   5.309  12.376  0.7558  0.2890 -1.0478
 2092TIP3    H227692   5.940   5.217  12.356 -0.5412 -1.6785  0.0396
 2093TIP3   OH227693   3.139   0.122  16.643  0.6273 -0.1547 -0.4660
 2093TIP3    H127694   3.185   0.202  16.620 -1.2359  1.3039  0.5941
 2093TIP3    H227695   3.081   0.148  16.715 -2.1011 -1.7491 -1.9400
 2094TIP3   OH227696   6.643   0.417  17.265  0.2512 -0.2274 -0.4525
 2094TIP3    H127697   6.685   0.362  17.330 -0.1444 -0.3193 -0.2665
 2094TIP3    H227698   6.618   0.497  17.313 -2.9394 -1.5659  0.3860
 2095TIP3   OH227699   0.990   0.391   6.066 -0.0138 -0.0741 -0.4977
 2095TIP3    H127700   0.921   0.404   6.002  2.6647  1.4068 -3.3364
 2095TIP3    H227701   0.963   0.443   6.142 -1.5604  1.2155 -1.8762
 2096TIP3   OH227702   3.897   5.299  15.749  0.0588 -0.1865 -0.4453
 2096TIP3    H127703   3.937   5.365  15.806 -2.2638  0.7265  0.2225
 2096TIP3    H227704   3.917   5.215  15.791  0.9029  0.2581  0.0614
 2097TIP3   OH227705   2.304   5.474   4.119 -0.2055 -0.0018 -0.3718
 2097TIP3    H127706   2.230   5.424   4.154  0.4417 -1.7519 -1.3706
 2097TIP3    H227707   2.296   5.465   4.024 -0.0141  1.7814 -0.5827
 2098TIP3   OH227708   2.714   0.569  15.620 -0.6403  0.2436 -0.3048
 2098TIP3    H127709   2.709   0.563  15.524  0.3494  0.2733 -0.3645
 2098TIP3    H227710   2.807   0.562  15.640 -0.7048  1.5720  0.5710
 2099TIP3   OH227711   6.620   2.015   4.041 -0.1966  0.7041 -0.2750
 2099TIP3    H127712   6.708   2.050   4.054  0.7524 -1.1671 -1.1899
 2099TIP3    H227713   6.634   1.929   4.001 -2.4517  0.3464 -0.4477
 2100TIP3   OH227714   1.048   1.336  14.271  0.2334 -0.4024 -0.1031
 2100TIP3    H127715   1.058   1.288  14.189  0.9536  0.8880 -0.7993
 2100TIP3    H227716   1.129   1.386  14.279 -0.6575  1.0006  0.3886
 2101TIP3   OH227717   1.077   2.573  13.661  0.1711  0.2151 -0.3449
 2101TIP3    H127718   1.157   2.522  13.671  0.1795 -0.2147 -2.1744
 2101TIP3    H227719   1.069   2.587  13.566 -2.3905 -0.5314 -0.3118
 2102TIP3   OH227720   3.186   2.624  17.059 -0.8911 -0.7167 -0.8620
 2102TIP3    H127721   3.122   2.559  17.031 -0.3977 -0.9379 -1.5241
 2102TIP3    H227722   3.180   2.693  16.992 -0.2662 -0.8603 -1.0695
 2103TIP3   OH227723   6.414   0.542   4.429  0.4410  0.2696  0.0131
 2103TIP3    H127724   6.389   0.604   4.496 -1.0092 -0.1549 -0.1025
 2103TIP3    H227725   6.451   0.468   4.477  0.8637  0.6202  0.2331
 2104TIP3   OH227726   0.269   1.430   0.978  0.0592 -0.3179  0.2709
 2104TIP3    H127727   0.300   1.412   1.067 -1.0443 -0.4547  0.6428
 2104TIP3    H227728   0.259   1.526   0.975  0.0075 -0.3217  0.3259
 2105TIP3   OH227729   4.259   0.827  12.350  0.6071  0.3908  0.2018
 2105TIP3    H127730   4.236   0.820  12.443 -0.4002 -0.8368 -0.1034
 2105TIP3    H227731   4.346   0.867  12.350  0.4809  0.7462  1.6531
 2106TIP3   OH227732   4.897   5.503   0.660 -0.7154 -0.1314  0.0031
 2106TIP3    H127733   4.833   5.573   0.653 -1.2691 -0.7788 -2.1244
 2106TIP3    H227734   4.850   5.425   0.628  0.5057 -1.0429  0.3692
 2107TIP3   OH227735   5.253   6.502   5.009  0.4097 -1.2732 -0.2391
 2107TIP3    H127736   5.294   6.589   5.011 -1.7772 -0.1921  0.8571
 2107TIP3    H227737   5.262   6.473   4.918  0.4194  0.4893 -0.8324
 2108TIP3   OH227738   3.800   0.848   1.924  0.2958  0.0898 -0.3218
 2108TIP3    H127739   3.773   0.841   1.833 -0.9619  0.4378  0.0028
 2108TIP3    H227740   3.812   0.942   1.938  0.7653  0.0137 -0.1995
 2109TIP3   OH227741   4.109   0.869   0.888  0.0043  0.2660  0.3703
 2109TIP3    H127742   4.142   0.952   0.855  2.9522 -1.0848 -0.3621
 2109TIP3    H227743   4.029   0.853   0.837 -0.0780  2.1262 -0.1556
 2110TIP3   OH227744   6.190   1.230  14.091  0.0702  0.6150 -0.5059
 2110TIP3    H127745   6.102   1.216  14.127 -0.0299  2.2460 -0.0534
 2110TIP3    H227746   6.174   1.254  13.999 -0.0030  1.4792 -0.2714
 2111TIP3   OH227747   3.613   5.079   2.391 -0.0063  0.2816 -0.1019
 2111TIP3    H127748   3.521   5.105   2.398  0.2378  1.0252  0.5274
 2111TIP3    H227749   3.610   4.987   2.367 -0.9463 -0.6980  3.2619
 2112TIP3   OH227750   3.225   0.013   0.160  0.1467 -0.0463  0.1791
 2112TIP3    H127751   3.176   0.094   0.151 -1.4018 -0.8127  1.2530
 2112TIP3    H227752   3.233  -0.000   0.255  2.2923 -0.0607  0.0448
 2113TIP3   OH227753   3.922   0.851   1.072 -0.1009 -0.0930  0.5702
 2113TIP3    H127754   4.003   0.860   1.021  0.2509  1.3843  1.3250
 2113TIP3    H227755   3.855   0.890   1.016 -0.0730 -0.2284  0.4404
 2114TIP3   OH227756   4.261   0.261  17.020  0.4570 -0.3919 -0.5476
 2114TIP3    H127757   4.205   0.201  16.971 -2.7206  2.1569 -0.4062
 2114TIP3    H227758   4.276   0.334  16.959  1.3609  0.2346  0.3951
 2115TIP3   OH227759   4.418   5.386  11.996  0.2476  0.4036 -0.3522
 2115TIP3    H127760   4.390   5.416  11.910  0.4577  0.8721 -0.2601
 2115TIP3    H227761   4.355   5.424  12.057  0.0070 -0.0569 -0.3146
 2116TIP3   OH227762   4.145   3.417  13.744 -0.3768  0.4215  0.0135
 2116TIP3    H127763   4.181   3.329  13.733  2.6226  1.3711  1.1527
 2116TIP3    H227764   4.131   3.449  13.654 -2.1455 -1.3669 -0.4091
 2117TIP3   OH227765   2.337   2.713   1.423  0.5706 -0.5522  0.2871
 2117TIP3    H127766   2.338   2.806   1.447  2.4182 -0.4820  0.0769
 2117TIP3    H227767   2.421   2.699   1.380 -0.9620 -1.5702 -2.6442
 2118TIP3   OH227768   1.782   4.888  16.298  0.0881 -0.2386 -0.1067
 2118TIP3    H127769   1.730   4.915  16.223 -0.8413 -0.4474  0.4487
 2118TIP3    H227770   1.746   4.937  16.372 -0.6228 -1.7843  0.6355
 2119TIP3   OH227771   1.231   3.947   5.215  0.2409  0.2863 -0.2181
 2119TIP3    H127772   1.324   3.971   5.212  0.1992  0.4668 -0.0634
 2119TIP3    H227773   1.220   3.888   5.141  0.5727 -0.0684  0.0081
 2120TIP3   OH227774   4.873   5.411  14.638  0.1073  0.4377 -0.0646
 2120TIP3    H127775   4.783   5.439  14.621  0.6554  1.8052 -0.8249
 2120TIP3    H227776   4.924   5.449  14.566  1.6310  1.5627  1.5488
 2121TIP3   OH227777   4.221   3.490   5.134 -0.0166  0.4453  0.0584
 2121TIP3    H127778   4.206   3.582   5.155  1.8773  0.2137  3.0880
 2121TIP3    H227779   4.174   3.442   5.202  0.0311 -0.7757 -0.7512
 2122TIP3   OH227780   0.780   5.011  17.134 -0.0386 -0.0355 -0.1417
 2122TIP3    H127781   0.837   4.947  17.092  1.8807  1.8763 -0.6316
 2122TIP3    H227782   0.839   5.082  17.161 -2.0119  1.4370  0.5596
 2123TIP3   OH227783   1.895   1.852  15.050 -0.2713 -0.5215 -0.0889
 2123TIP3    H127784   1.919   1.759  15.051  1.7118 -0.0571 -0.9909
 2123TIP3    H227785   1.838   1.860  14.973 -0.3424 -0.9501 -0.0886
 2124TIP3   OH227786   1.962   4.180  15.040 -0.0125 -0.1613 -0.0914
 2124TIP3    H127787   1.883   4.148  14.997 -0.0704 -0.9109  0.5329
 2124TIP3    H227788   1.941   4.179  15.134  0.8568 -0.7677  0.1170
 2125TIP3   OH227789   3.112   4.769  14.166  0.1107  0.0624 -0.5030
 2125TIP3    H127790   3.132   4.856  14.133 -1.2359  0.2162 -0.9702
 2125TIP3    H227791   3.198   4.729  14.183  0.7517  1.9091  0.9465
 2126TIP3   OH227792   1.100   0.509   3.185  0.3718 -0.0027 -0.4278
 2126TIP3    H127793   1.134   0.423   3.160 -1.4661 -0.4294 -1.6662
 2126TIP3    H227794   1.157   0.572   3.141  1.2842 -0.5819 -0.1013
 2127TIP3   OH227795   2.818   2.453   0.156  0.2704 -0.0815  0.3544
 2127TIP3    H127796   2.741   2.463   0.213  0.2430 -1.0027  0.5080
 2127TIP3    H227797   2.820   2.359   0.137  1.1467 -0.0050  0.0486
 2128TIP3   OH227798   2.364   0.207   4.711  0.2699  0.1597 -0.3621
 2128TIP3    H127799   2.383   0.271   4.641  1.1514  0.4874  0.1534
 2128TIP3    H227800   2.269   0.197   4.709  0.3330 -0.4343 -2.1248
 2129TIP3   OH227801   4.000   5.778   0.070  0.0675 -0.1200 -0.1830
 2129TIP3    H127802   4.043   5.835   0.006 -0.5919 -0.5975 -1.0632
 2129TIP3    H227803   3.927   5.738   0.023  0.2655 -1.3823  0.5284
 2130TIP3   OH227804   2.984   6.139  14.443 -0.1019  0.0271 -0.3667
 2130TIP3    H127805   2.897   6.167  14.415  0.4367  0.6288 -1.4810
 2130TIP3    H227806   3.022   6.217  14.483 -0.4320 -0.5119  1.0445
 2131TIP3   OH227807   3.738   5.129  16.562 -0.1205 -0.8119  0.3431
 2131TIP3    H127808   3.681   5.197  16.525 -0.6352 -0.2560  2.0562
 2131TIP3    H227809   3.715   5.050  16.514 -1.6971 -0.3910  0.3380
 2132TIP3   OH227810   3.904   3.919   0.408 -0.0934  0.2081  0.1187
 2132TIP3    H127811   3.943   3.910   0.496 -0.4333  1.2855  0.3957
 2132TIP3    H227812   3.922   4.009   0.383 -1.7859  0.5409 -0.0443
 2133TIP3   OH227813   2.461   3.708   4.607 -0.0331  0.6207 -0.1213
 2133TIP3    H127814   2.440   3.614   4.606  2.1332  0.0603  0.9164
 2133TIP3    H227815   2.382   3.750   4.640 -0.3104 -1.1032  1.5683
 2134TIP3   OH227816   0.124   4.932   0.634 -0.1153  0.5339  0.0217
 2134TIP3    H127817   0.164   4.971   0.712  2.7512 -2.1807  0.1077
 2134TIP3    H227818   0.104   5.006   0.577  1.4957  2.3232  1.6669
 2135TIP3   OH227819   2.539   0.595  16.473  0.4100  0.1316  0.4171
 2135TIP3    H127820   2.512   0.509  16.441 -0.4428 -0.1751  1.8652
 2135TIP3    H227821   2.475   0.655  16.434  0.9297  0.1051 -0.4929
 2136TIP3   OH227822   6.051   3.223   4.661 -0.2585 -0.2285  0.6639
 2136TIP3    H127823   6.048   3.139   4.616  1.1493 -0.4292  0.9108
 2136TIP3    H227824   5.995   3.280   4.608  0.3588 -0.7834 -0.6488
 2137TIP3   OH227825   1.265   2.035   3.481  0.0895  0.5456  0.0712
 2137TIP3    H127826   1.314   2.062   3.403  2.1563  1.1326  1.4672
 2137TIP3    H227827   1.269   2.112   3.539 -0.9115 -0.0555  0.9678
 2138TIP3   OH227828   6.419   2.056   0.236  0.0319 -0.4363 -0.1038
 2138TIP3    H127829   6.342   2.037   0.182  0.4405 -0.5543 -0.6565
 2138TIP3    H227830   6.389   2.045   0.326 -0.6160 -0.4082 -0.3124
 2139TIP3   OH227831   2.814   2.764   1.312  0.2977  0.1309 -0.3615
 2139TIP3    H127832   2.839   2.674   1.290 -3.4035 -1.4347  1.1228
 2139TIP3    H227833   2.741   2.785   1.254 -0.4931  1.2280  0.9613
 2140TIP3   OH227834   2.666   4.761   3.033 -0.6981  0.0982  0.7482
 2140TIP3    H127835   2.733   4.738   3.097  1.0080 -0.9552 -1.2577
 2140TIP3    H227836   2.607   4.685   3.032 -0.9927  0.3201  1.3941
 2141TIP3   OH227837   1.707   3.936  14.093  0.7553 -0.1693  0.1139
 2141TIP3    H127838   1.767   4.006  14.118  1.8078 -0.9952 -0.0029
 2141TIP3    H227839   1.685   3.954  14.002 -0.9847  1.3741  0.7754
 2142TIP3   OH227840   1.439   1.415  13.045 -0.3120  0.2612 -0.3991
 2142TIP3    H127841   1.495   1.401  13.122  2.6589  0.8609 -2.2843
 2142TIP3    H227842   1.380   1.486  13.071 -0.4854 -0.6106  1.8095
 2143TIP3   OH227843   0.552   3.922   1.814  0.4718  0.2800 -0.3710
 2143TIP3    H127844   0.602   3.889   1.889  1.6335  2.5524 -0.0773
 2143TIP3    H227845   0.463   3.932   1.847  0.7354  0.2098  0.3776
 2144TIP3   OH227846   1.119   1.442  15.774 -0.0741 -0.0390  0.1120
 2144TIP3    H127847   1.116   1.481  15.687  0.7216 -0.9980 -0.3651
 2144TIP3    H227848   1.176   1.366  15.765  0.4877  0.1637  1.6104
 2145TIP3   OH227849   3.896   0.698  12.526  0.3974 -0.2777  0.0056
 2145TIP3    H127850   3.857   0.758  12.462 -1.1188 -1.4547 -0.2533
 2145TIP3    H227851   3.824   0.639  12.550  1.8956 -2.2207 -0.0274
 2146TIP3   OH227852   6.632   4.603  13.781 -0.3220 -0.5568  0.2927
 2146TIP3    H127853   6.619   4.690  13.818 -1.4173 -0.7228  0.3376
 2146TIP3    H227854   6.717   4.608  13.737 -0.7250  0.7712 -0.3803
 2147TIP3   OH227855   4.597   2.765  10.263  0.0534 -0.1802  0.2483
 2147TIP3    H127856   4.510   2.747  10.229  0.1717  0.4743 -0.4417
 2147TIP3    H227857   4.588   2.849  10.308  0.4027  0.0705 -0.1425
 2148TIP3   OH227858   0.691   2.561  12.627  0.2030  0.4681  0.4492
 2148TIP3    H127859   0.703   2.505  12.550 -0.7764 -1.7956  1.8301
 2148TIP3    H227860   0.749   2.524  12.693 -1.4508  0.1825  1.8200
 2149TIP3   OH227861   5.982   1.684   1.212  0.7066 -0.3511  0.0531
 2149TIP3    H127862   5.988   1.635   1.294 -0.6644  1.1333  1.1301
 2149TIP3    H227863   5.889   1.707   1.205  0.8497 -0.1766 -1.7849
 2150TIP3   OH227864   2.684   3.896   5.564 -0.2010  0.2409  0.5735
 2150TIP3    H127865   2.745   3.963   5.535  0.1574 -0.1189  0.4812
 2150TIP3    H227866   2.740   3.826   5.598 -0.5690 -0.0026  0.6867
 2151TIP3   OH227867   3.536   2.149   3.446 -0.4507  0.2991  0.3420
 2151TIP3    H127868   3.487   2.120   3.522  0.3049 -0.3432  0.5887
 2151TIP3    H227869   3.471   2.154   3.376 -0.9379 -0.1437  0.7596
 2152TIP3   OH227870   4.030   4.574   3.405 -0.3087  0.0037  0.0882
 2152TIP3    H127871   4.060   4.665   3.400 -1.9611  0.5888 -0.0063
 2152TIP3    H227872   3.940   4.577   3.372  0.2882 -2.0475 -2.0047
 2153TIP3   OH227873   0.749   4.916  14.450  0.7784 -0.2906 -0.1055
 2153TIP3    H127874   0.841   4.927  14.427  0.3846 -0.1326 -1.7506
 2153TIP3    H227875   0.740   4.822  14.468  1.1085 -0.4573 -0.7555
 2154TIP3   OH227876   3.181   5.537   2.895  0.0579  0.1283  1.1388
 2154TIP3    H127877   3.250   5.527   2.960  0.1785 -2.3883  0.7099
 2154TIP3    H227878   3.132   5.455   2.898 -0.2944  0.1414 -1.4871
 2155TIP3   OH227879   0.879   5.787  17.164  0.1930 -0.0546  0.6171
 2155TIP3    H127880   0.863   5.743  17.081  0.1023 -1.0699  1.1532
 2155TIP3    H227881   0.972   5.809  17.163  0.2479 -0.2992  0.3510
 2156TIP3   OH227882   0.823   1.579  14.193  0.1670 -0.1032  0.1542
 2156TIP3    H127883   0.882   1.548  14.124  1.0495 -0.4643  1.0650
 2156TIP3    H227884   0.864   1.553  14.275 -1.0102  0.0816  0.8300
 2157TIP3   OH227885   0.435   3.145  10.822  0.1515 -0.5193  0.1815
 2157TIP3    H127886   0.527   3.162  10.804  0.0804 -0.1728  0.1415
 2157TIP3    H227887   0.404   3.097  10.744  0.3817 -0.9496  0.3514
 2158TIP3   OH227888   1.422   2.380   4.324  0.1579 -0.1943  0.5271
 2158TIP3    H127889   1.433   2.473   4.304  0.2489 -0.0754  1.1420
 2158TIP3    H227890   1.499   2.356   4.373  1.7883 -1.4070 -2.3612
 2159TIP3   OH227891   1.959   6.482   4.729 -0.3138 -0.3471 -0.1993
 2159TIP3    H127892   1.952   6.421   4.656 -1.6509  0.1472 -0.4995
 2159TIP3    H227893   1.951   6.568   4.690 -3.1193 -0.1077  0.6759
 2160TIP3   OH227894   4.720   2.594   3.649 -1.2529  0.1708  0.1578
 2160TIP3    H127895   4.639   2.544   3.660 -0.7294 -0.2122  3.4560
 2160TIP3    H227896   4.786   2.528   3.624 -1.5651  0.1762 -0.7194
 2161TIP3   OH227897   1.416   4.890  16.611  0.2690  0.0129  0.1755
 2161TIP3    H127898   1.323   4.867  16.600  0.0144  1.0075  0.1776
 2161TIP3    H227899   1.423   4.917  16.703 -0.1976  3.1410 -0.6094
 2162TIP3   OH227900   0.465   3.907   1.559 -0.0757 -0.0562  0.4206
 2162TIP3    H127901   0.440   3.993   1.526 -1.4084  0.1350  1.8268
 2162TIP3    H227902   0.511   3.926   1.641 -0.0758 -0.6716  0.5636
 2163TIP3   OH227903   1.761   5.385   3.655 -0.6768  0.8297  0.1372
 2163TIP3    H127904   1.667   5.368   3.646 -0.3588 -0.2318 -1.9892
 2163TIP3    H227905   1.773   5.473   3.618 -0.6172  0.1730 -1.4848
 2164TIP3   OH227906   4.693   5.556  13.261 -0.2608  0.2696  0.5150
 2164TIP3    H127907   4.760   5.613  13.299 -1.4111  1.0578  1.4599
 2164TIP3    H227908   4.720   5.468  13.286  1.3889  0.3786 -0.7111
 2165TIP3   OH227909   1.713   0.521  12.978  0.3558  0.0148 -0.2156
 2165TIP3    H127910   1.706   0.607  13.019  1.3237 -0.0967  0.2183
 2165TIP3    H227911   1.662   0.528  12.898 -2.1915  0.0387  1.3079
 2166TIP3   OH227912   3.619   5.441  15.946  0.5853 -0.3198 -0.3636
 2166TIP3    H127913   3.615   5.495  15.867  0.0950  1.4218  0.8078
 2166TIP3    H227914   3.578   5.358  15.921 -0.3574  0.5150 -1.6924
 2167TIP3   OH227915   1.871   2.117  15.087  0.2571  0.9663 -0.1306
 2167TIP3    H127916   1.866   2.023  15.073 -1.6387  1.2069 -1.5440
 2167TIP3    H227917   1.823   2.154  15.013  1.8976  3.0977 -0.2048
 2168TIP3   OH227918   3.306   2.226  16.707 -0.2550 -0.3188  0.0635
 2168TIP3    H127919   3.383   2.215  16.651  0.4232  0.3952  0.8275
 2168TIP3    H227920   3.279   2.316  16.693 -0.0736 -0.1298  0.8853
 2169TIP3   OH227921   5.783   4.523  11.594  0.6039  0.4779 -0.3502
 2169TIP3    H127922   5.764   4.507  11.687 -1.7413 -0.3776 -0.9158
 2169TIP3    H227923   5.700   4.553  11.557  0.6938 -1.8205 -2.7083
 2170TIP3   OH227924   6.588   5.747  13.285  0.1401  0.6871 -0.8112
 2170TIP3    H127925   6.662   5.775  13.339  0.6235 -0.0859 -1.0520
 2170TIP3    H227926   6.607   5.781  13.198 -0.9826  2.5331 -0.3878
 2171TIP3   OH227927   1.730   3.181  12.824  0.3874 -0.2531 -0.0044
 2171TIP3    H127928   1.806   3.128  12.800 -0.5129 -1.1925 -0.9345
 2171TIP3    H227929   1.755   3.224  12.905  2.4548  0.6658 -1.0628
 2172TIP3   OH227930   1.503   2.057  14.724 -0.2370  0.1419  0.3688
 2172TIP3    H127931   1.494   2.141  14.769  1.3695  0.2349  0.5560
 2172TIP3    H227932   1.431   2.056  14.661 -0.6320  1.3954  0.7658
 2173TIP3   OH227933   1.918   2.145  11.595  0.4058 -0.3299 -0.3162
 2173TIP3    H127934   1.875   2.161  11.511  1.2171  2.0636 -0.3714
 2173TIP3    H227935   1.847   2.125  11.656 -0.2334 -1.6141 -1.4441
 2174TIP3   OH227936   2.832   6.362   1.488  0.0383  0.3553  0.6561
 2174TIP3    H127937   2.831   6.432   1.423 -1.4424  0.3333  0.6115
 2174TIP3    H227938   2.909   6.310   1.466  0.0748  0.8704 -0.5127
 2175TIP3   OH227939   6.213   5.393   3.699 -0.5415 -0.7562  0.2322
 2175TIP3    H127940   6.303   5.414   3.675 -0.4261  0.3043  1.4664
 2175TIP3    H227941   6.160   5.458   3.652 -0.4812 -0.0454  1.1224
 2176TIP3   OH227942   4.020   4.918  16.019 -0.0197 -0.3709  0.2682
 2176TIP3    H127943   3.983   4.837  15.983  0.8049  0.1199 -1.8576
 2176TIP3    H227944   3.945   4.975  16.034 -0.4295 -0.6735 -0.5620
 2177TIP3   OH227945   0.686   5.246   0.211  0.3781  0.2166 -0.1285
 2177TIP3    H127946   0.599   5.231   0.248 -0.5690  3.4501 -0.7880
 2177TIP3    H227947   0.740   5.273   0.285  0.5719 -0.6739  0.0765
 2178TIP3   OH227948   4.911   1.815  15.831 -0.1309 -0.0815  0.3427
 2178TIP3    H127949   4.905   1.818  15.926  2.6028  0.1561  0.5824
 2178TIP3    H227950   4.844   1.752  15.804 -1.9986  0.9800  2.2450
 2179TIP3   OH227951   4.968   5.167  15.564 -0.0129 -0.3097  0.7018
 2179TIP3    H127952   5.063   5.170  15.555 -0.0572  2.1876  0.2444
 2179TIP3    H227953   4.935   5.200  15.481 -1.1162  2.2308  2.0323
 2180TIP3   OH227954   5.440   3.626  14.651 -0.2778 -0.2239  0.1889
 2180TIP3    H127955   5.362   3.581  14.620  0.2842 -1.3414  0.3035
 2180TIP3    H227956   5.478   3.565  14.716  0.1230  0.7512  0.8956
 2181TIP3   OH227957   3.037   5.235   1.663 -0.2099  0.0303 -0.3849
 2181TIP3    H127958   3.027   5.144   1.636  0.5904 -0.1165 -0.2166
 2181TIP3    H227959   3.126   5.240   1.700  0.4274  1.2605 -1.9283
 2182TIP3   OH227960   0.547   5.258   2.694  0.1152  0.2484 -0.4320
 2182TIP3    H127961   0.498   5.339   2.710  1.2008  0.5521  1.6451
 2182TIP3    H227962   0.628   5.268   2.744 -0.0094 -2.3837  0.4618
 2183TIP3   OH227963   1.255   3.307  13.894 -0.0475 -0.3665  0.0392
 2183TIP3    H127964   1.243   3.402  13.890  0.4260 -0.3314 -0.6682
 2183TIP3    H227965   1.197   3.279  13.965  1.1014  0.6580  1.4211
 2184TIP3   OH227966   4.855   0.854  14.658  0.3723 -0.2221  0.1651
 2184TIP3    H127967   4.837   0.838  14.566  0.7904 -0.0674  0.0557
 2184TIP3    H227968   4.947   0.882  14.661  0.5525 -0.8415  0.6950
 2185TIP3   OH227969   2.197   0.278   2.071  0.3021  0.0887  1.0250
 2185TIP3    H127970   2.180   0.372   2.062 -0.3895 -0.0704  0.5566
 2185TIP3    H227971   2.111   0.237   2.061  0.7638 -0.6766 -0.0786
 2186TIP3   OH227972   0.540   4.070   2.660 -0.2575  0.1107 -0.3004
 2186TIP3    H127973   0.448   4.094   2.658 -0.5898 -0.8319  1.4542
 2186TIP3    H227974   0.564   4.075   2.752  1.4073  0.1816 -0.7097
 2187TIP3   OH227975   4.323   3.627   0.285 -0.0098  0.0341 -0.3974
 2187TIP3    H127976   4.386   3.588   0.346 -0.1747  1.0327  0.4299
 2187TIP3    H227977   4.304   3.714   0.321 -2.3057 -0.4353 -0.2964
 2188TIP3   OH227978   1.025   6.083  11.620 -0.3995  0.2907 -0.6156
 2188TIP3    H127979   1.074   6.129  11.688 -0.6550  0.6733 -0.6906
 2188TIP3    H227980   0.960   6.031  11.669 -0.1499  0.0502 -0.5358
 2189TIP3   OH227981   3.558   6.765   4.133 -0.1596 -0.3518  0.1758
 2189TIP3    H127982   3.651   6.745   4.129  0.3170  1.5404  0.9191
 2189TIP3    H227983   3.531   6.734   4.220  0.3886  1.3776  0.9964
 2190TIP3   OH227984   4.741   3.792  10.497  0.9657  0.4117  0.5767
 2190TIP3    H127985   4.659   3.831  10.465  1.8629  0.3130 -2.1594
 2190TIP3    H227986   4.808   3.858  10.476  1.7354  0.0547  1.8225
 2191TIP3   OH227987   5.924   1.289  12.013 -0.2429  0.1824 -0.2520
 2191TIP3    H127988   5.922   1.336  11.929 -1.1358  0.6229  0.0001
 2191TIP3    H227989   6.008   1.312  12.051 -0.8636  2.0478  0.1009
 2192TIP3   OH227990   1.029   6.609   6.000 -0.0452 -0.6092  1.0310
 2192TIP3    H127991   0.975   6.622   6.078 -1.1203 -2.9142  0.7609
 2192TIP3    H227992   0.988   6.535   5.954 -0.8115  1.9784 -2.9156
 2193TIP3   OH227993   2.521   6.726   6.390 -0.0616 -0.0949  0.0051
 2193TIP3    H127994   2.605   6.680   6.384  0.0072 -0.2993  1.8325
 2193TIP3    H227995   2.486   6.700   6.475 -2.6953 -1.1652 -1.2991
 2194TIP3   OH227996   4.837   5.854   5.401  0.4895 -0.2432 -0.2261
 2194TIP3    H127997   4.844   5.840   5.307 -1.7111  0.0136 -0.4824
 2194TIP3    H227998   4.809   5.945   5.411 -1.1651 -0.7880  0.5299
 2195TIP3   OH227999   4.436   3.867  13.714  0.0018 -0.2465  0.1366
 2195TIP3    H128000   4.354   3.819  13.728  0.2051 -0.6070  0.1058
 2195TIP3    H228001   4.495   3.832  13.780  0.1241  0.0405  0.1823
 2196TIP3   OH228002   6.011   2.131   1.825 -0.5328  0.3730  0.3578
 2196TIP3    H128003   5.952   2.172   1.888 -0.3186  0.3151  0.5944
 2196TIP3    H228004   6.029   2.044   1.860 -2.1220 -0.5089 -0.8449
 2197TIP3   OH228005   2.732   0.128   1.890  0.1675 -0.0313 -0.0444
 2197TIP3    H128006   2.818   0.093   1.915  0.5882  1.2287  0.3407
 2197TIP3    H228007   2.737   0.222   1.910 -1.0962  0.1739 -0.5786
 2198TIP3   OH228008   3.693   2.024  12.550  0.0540 -0.1654  0.1403
 2198TIP3    H128009   3.721   2.093  12.610 -0.2165 -0.5351  0.7054
 2198TIP3    H228010   3.617   1.985  12.593  1.9374 -2.7871  1.3056
 2199TIP3   OH228011   6.219   1.162   2.225  0.2047 -0.2709  0.4110
 2199TIP3    H128012   6.274   1.240   2.231 -1.0390  0.5760  1.2777
 2199TIP3    H228013   6.278   1.094   2.191  1.7606  0.6013  1.2200
 2200TIP3   OH228014   3.388   3.920  16.607  0.0923  0.1635 -0.0974
 2200TIP3    H128015   3.469   3.912  16.659  0.1590 -0.6701 -0.3223
 2200TIP3    H228016   3.406   3.871  16.527  0.1958  1.9178 -1.1951
 2201TIP3   OH228017   1.541   0.827  12.306 -0.0628  0.6724 -0.5869
 2201TIP3    H128018   1.612   0.876  12.346 -0.1083  0.5313 -0.3345
 2201TIP3    H228019   1.467   0.838  12.366  0.1603 -0.3842 -0.1101
 2202TIP3   OH228020   2.216   2.018   2.343 -0.3500  0.2895  0.3448
 2202TIP3    H128021   2.138   2.021   2.288  0.3237 -0.2487 -0.6714
 2202TIP3    H228022   2.200   1.945   2.404  0.1533 -1.1345 -1.1531
 2203TIP3   OH228023   5.358   5.467  15.927  0.8541  0.0837 -0.3940
 2203TIP3    H128024   5.364   5.374  15.948  0.2712 -0.1903 -1.3729
 2203TIP3    H228025   5.444   5.503  15.950  1.3911 -0.8782 -0.8422
 2204TIP3   OH228026   5.730   3.099   1.560  0.2931  0.6336 -0.2496
 2204TIP3    H128027   5.656   3.040   1.552 -0.4794  1.6802 -1.1046
 2204TIP3    H228028   5.766   3.080   1.647 -0.6235 -0.2800 -0.0442
 2205TIP3   OH228029   4.771   5.657   5.576 -0.2433  0.3883 -0.4078
 2205TIP3    H128030   4.803   5.693   5.494  1.0259 -0.1632 -0.1852
 2205TIP3    H228031   4.723   5.729   5.617  2.5818  2.0563  0.2486
 2206TIP3   OH228032   4.747   2.926  16.276  0.1973 -0.0370  0.5320
 2206TIP3    H128033   4.697   2.959  16.201  1.2871  1.8430  0.5731
 2206TIP3    H228034   4.712   2.975  16.351  3.0200  2.5850  0.3452
 2207TIP3   OH228035   1.368   5.364   2.378  0.0598 -0.3043 -0.1950
 2207TIP3    H128036   1.289   5.311   2.365 -0.1897 -0.7540  2.6352
 2207TIP3    H228037   1.336   5.454   2.381  0.3354  0.0637 -3.7447
 2208TIP3   OH228038   4.497   5.179   5.032  0.0318 -0.2631  0.2563
 2208TIP3    H128039   4.585   5.143   5.032 -0.6949 -2.1506 -0.3625
 2208TIP3    H228040   4.473   5.185   4.940 -1.1911 -1.6803  0.4477
 2209TIP3   OH228041   1.906   2.216  14.511 -0.3090  0.2367 -0.0942
 2209TIP3    H128042   1.979   2.275  14.530  0.0160 -0.0411 -0.4558
 2209TIP3    H228043   1.916   2.145  14.574  0.2534 -0.2406 -0.6991
 2210TIP3   OH228044   0.195   3.495  14.812 -0.2723  0.4948  0.4500
 2210TIP3    H128045   0.121   3.534  14.765  0.6933  1.7892 -0.0885
 2210TIP3    H228046   0.167   3.491  14.903 -1.7633 -0.9845 -0.0370
 2211TIP3   OH228047   0.088   0.811   5.255 -0.1373 -0.3053 -0.5103
 2211TIP3    H128048   0.108   0.886   5.200 -1.3665  0.6901  0.3385
 2211TIP3    H228049   0.050   0.848   5.334 -1.1138 -1.8357 -0.2085
 2212TIP3   OH228050   4.106   0.212  16.118  0.2498 -0.4552  0.2185
 2212TIP3    H128051   4.085   0.154  16.044  0.8264  1.1049 -1.2523
 2212TIP3    H228052   4.034   0.274  16.120  1.1598  0.6615 -0.3072
 2213TIP3   OH228053   3.026   3.204  11.909 -0.1695  0.1418 -0.0926
 2213TIP3    H128054   2.943   3.245  11.882  0.0725 -0.8847 -2.6722
 2213TIP3    H228055   3.091   3.239  11.848  1.3586  0.8557  1.8248
 2214TIP3   OH228056   3.931   5.522   3.746 -0.0820 -0.2864  0.1683
 2214TIP3    H128057   3.928   5.448   3.685 -3.1917 -1.9200  2.0255
 2214TIP3    H228058   3.863   5.582   3.714  0.6155  0.5234  0.1634
 2215TIP3   OH228059   5.633   0.090   0.469  0.0395  0.1062 -0.9102
 2215TIP3    H128060   5.656   0.121   0.382  1.3055 -0.6621 -0.8626
 2215TIP3    H228061   5.716   0.070   0.511 -0.6083 -0.7163  0.0319
 2216TIP3   OH228062   0.946   4.323  12.602  0.4441 -0.1575  0.1351
 2216TIP3    H128063   0.859   4.360  12.616  0.6480  0.1272  0.6940
 2216TIP3    H228064   0.987   4.324  12.689  0.3345 -2.0360  0.2528
 2217TIP3   OH228065   3.254   6.754  10.937  0.2660 -0.1472  0.3522
 2217TIP3    H128066   3.245   6.834  10.886  0.2972 -0.6832 -0.5300
 2217TIP3    H228067   3.285   6.689  10.874 -0.0363 -0.9218  0.9749
 2218TIP3   OH228068   0.419   2.479   5.194 -0.8865  0.2166 -0.2798
 2218TIP3    H128069   0.495   2.537   5.198 -0.2567 -0.6307  1.5485
 2218TIP3    H228070   0.345   2.535   5.215 -0.2472  0.3982  1.7718
 2219TIP3   OH228071   0.041   3.215  17.008 -0.0641  0.0463 -0.1267
 2219TIP3    H128072   0.041   3.242  17.099 -2.4510  0.7600 -0.2910
 2219TIP3    H228073   0.032   3.296  16.958 -0.5490 -0.4818 -0.9218
 2220TIP3   OH228074   1.998   5.783  11.883  0.5355 -0.2160 -0.4344
 2220TIP3    H128075   1.945   5.711  11.918  0.6133 -0.2078 -0.2999
 2220TIP3    H228076   1.959   5.801  11.797  0.1817 -0.0654 -0.2437
 2221TIP3   OH228077   3.233   0.703  13.652 -0.0926  0.1797 -0.4999
 2221TIP3    H128078   3.161   0.764  13.667  1.2422  2.2151 -1.9017
 2221TIP3    H228079   3.248   0.708  13.558  1.4196 -0.7556 -0.3288
 2222TIP3   OH228080   4.422   5.962   4.066  0.3128  0.7946 -0.1240
 2222TIP3    H128081   4.428   5.950   3.972  2.3616  3.3342 -0.4446
 2222TIP3    H228082   4.356   6.031   4.078 -2.3043 -1.6543  0.6611
 2223TIP3   OH228083   0.611   1.752   5.203 -0.4605  0.2156 -0.3068
 2223TIP3    H128084   0.563   1.720   5.279  1.2241  0.8390  1.1035
 2223TIP3    H228085   0.585   1.844   5.195 -1.2672 -0.0699 -1.0176
 2224TIP3   OH228086   3.002   1.143  12.625 -0.3183 -0.3492  0.5956
 2224TIP3    H128087   2.912   1.175  12.632 -0.3995 -0.5231  0.3678
 2224TIP3    H228088   3.056   1.222  12.634 -0.5437  0.0055 -0.8152
 2225TIP3   OH228089   3.919   6.383  14.580  0.2371  0.3260 -0.1479
 2225TIP3    H128090   3.951   6.295  14.560 -0.9239 -0.5686  1.5886
 2225TIP3    H228091   3.956   6.439  14.512  2.2689 -1.2423 -0.4218
 2226TIP3   OH228092   3.485   3.728   4.624  0.1983 -0.5470  0.0789
 2226TIP3    H128093   3.522   3.659   4.679  0.2844 -1.2890 -0.8771
 2226TIP3    H228094   3.400   3.747   4.664  0.0843 -1.3560  0.2517
 2227TIP3   OH228095   0.175   5.042   0.902 -0.0402  0.0554 -0.6361
 2227TIP3    H128096   0.114   4.982   0.946 -2.0086  1.3617 -1.4411
 2227TIP3    H228097   0.183   5.116   0.963 -0.3531  0.4895 -1.1149
 2228TIP3   OH228098   5.287   3.079  11.933  1.4168  0.5315  0.4643
 2228TIP3    H128099   5.249   3.124  12.008 -1.2125 -0.0603 -0.4075
 2228TIP3    H228100   5.332   3.003  11.971  0.4054  0.4121  1.4738
 2229TIP3   OH228101   4.025   1.370  15.771 -0.4948  0.2860  0.2529
 2229TIP3    H128102   4.119   1.390  15.771 -0.1566 -0.7496 -3.1349
 2229TIP3    H228103   3.983   1.455  15.758  0.1355  0.4958 -0.5248
 2230TIP3   OH228104   4.844   4.462   5.434 -0.7207 -0.5505 -0.3126
 2230TIP3    H128105   4.889   4.547   5.438 -1.8975  0.0502  1.0244
 2230TIP3    H228106   4.909   4.402   5.398  0.6920  0.5694  0.2854
 2231TIP3   OH228107   1.208   2.161   0.184  0.1711  0.5401 -0.2605
 2231TIP3    H128108   1.279   2.225   0.194  0.4698  0.3648 -1.1470
 2231TIP3    H228109   1.139   2.193   0.242  0.9331  0.7666  0.5460
 2232TIP3   OH228110   6.530   3.457  16.473  0.2311 -0.1463 -0.0502
 2232TIP3    H128111   6.563   3.495  16.391  2.5233 -2.1772 -0.1899
 2232TIP3    H228112   6.478   3.527  16.512 -0.1998  1.2171 -2.7799
 2233TIP3   OH228113   2.811   1.341  12.053 -0.2598  0.0352 -0.3258
 2233TIP3    H128114   2.836   1.321  12.144  0.3654 -2.1296 -0.9056
 2233TIP3    H228115   2.732   1.395  12.061 -0.5926 -0.6428  1.5009
 2234TIP3   OH228116   5.450   3.707   3.535  0.6688 -0.4661  0.5547
 2234TIP3    H128117   5.460   3.779   3.473 -0.1489 -1.1095 -0.3436
 2234TIP3    H228118   5.388   3.647   3.493 -1.5434  0.0476  2.8069
 2235TIP3   OH228119   4.224   4.259  11.019 -0.2738  0.3719  0.4417
 2235TIP3    H128120   4.143   4.256  11.069  0.1875 -2.8875  1.2103
 2235TIP3    H228121   4.206   4.208  10.940  0.5121  1.1489 -0.2636
 2236TIP3   OH228122   1.468   4.346  14.300 -0.3919 -0.5557  0.6559
 2236TIP3    H128123   1.382   4.378  14.327 -0.5801 -1.0394  0.6360
 2236TIP3    H228124   1.456   4.320  14.209  0.7466  3.0182 -0.6937
 2237TIP3   OH228125   5.436   4.448  14.157 -0.0097  0.1445  0.4937
 2237TIP3    H128126   5.353   4.409  14.128  0.0245  0.1162  0.4329
 2237TIP3    H228127   5.496   4.374  14.162  0.5382  0.4181 -1.3157
 2238TIP3   OH228128   2.880   3.769   3.886 -0.2716  0.0137  0.2491
 2238TIP3    H128129   2.927   3.850   3.907 -1.7947  0.6705  1.2481
 2238TIP3    H228130   2.836   3.745   3.967 -2.9125  0.2772 -1.0114
 2239TIP3   OH228131   0.917   5.915   0.353  0.3868  0.0256  0.1035
 2239TIP3    H128132   0.824   5.932   0.365  0.4178  0.5366 -0.3220
 2239TIP3    H228133   0.931   5.925   0.259  0.7048 -0.9280  0.0313
 2240TIP3   OH228134   4.256   1.927  12.706  0.1793 -0.0269 -0.3670
 2240TIP3    H128135   4.319   1.998  12.690  0.3084  0.3731  1.6375
 2240TIP3    H228136   4.288   1.885  12.786 -1.2677 -0.7733 -0.1571
 2241TIP3   OH228137   3.129   5.248   0.389  0.0513  0.3630  0.2068
 2241TIP3    H128138   3.110   5.302   0.466 -2.9687  0.0587 -0.2123
 2241TIP3    H228139   3.111   5.306   0.314 -0.8468 -0.4622 -0.2378
 2242TIP3   OH228140   6.066   3.227   5.080  0.3770  0.0817  0.5940
 2242TIP3    H128141   5.998   3.231   5.012  0.9774  0.1487 -0.0212
 2242TIP3    H228142   6.073   3.317   5.113 -2.4110 -0.5613  3.3198
 2243TIP3   OH228143   2.063   1.050   2.250 -0.0789 -0.1118 -0.0008
 2243TIP3    H128144   2.134   1.114   2.248  0.8375 -1.0868  0.5074
 2243TIP3    H228145   2.051   1.024   2.158 -0.7219  1.0353 -0.2650
 2244TIP3   OH228146   1.821   5.779  13.997  0.0344 -0.0768 -0.1378
 2244TIP3    H128147   1.728   5.756  13.992  0.2422 -1.1046  0.3998
 2244TIP3    H228148   1.866   5.695  14.008  1.0049  0.4323 -0.0631
 2245TIP3   OH228149   4.107   6.383   0.490 -0.0042 -0.6420 -0.8902
 2245TIP3    H128150   4.189   6.423   0.518 -0.3726 -1.1918  1.1716
 2245TIP3    H228151   4.078   6.436   0.416  1.5238  0.3978 -0.7818
 2246TIP3   OH228152   1.088   4.182   2.608  0.4192  0.4511 -0.3713
 2246TIP3    H128153   1.013   4.148   2.657  1.3646 -1.5382 -0.2075
 2246TIP3    H228154   1.068   4.275   2.595 -1.4512  0.2638  0.7820
 2247TIP3   OH228155   0.863   0.969  14.054  0.5486  0.5219  0.1261
 2247TIP3    H128156   0.864   0.976  13.958  0.7621  0.1983  0.1010
 2247TIP3    H228157   0.858   0.874  14.070  1.1965  0.5392  0.4388
 2248TIP3   OH228158   4.200   6.335   4.570  0.4067 -0.6263  0.2624
 2248TIP3    H128159   4.170   6.341   4.661  0.0069 -0.0505  0.0927
 2248TIP3    H228160   4.246   6.251   4.566 -1.8303 -1.9467  0.3465
 2249TIP3   OH228161   3.693   1.725  16.756 -0.2915  0.6026  0.9003
 2249TIP3    H128162   3.741   1.804  16.779 -0.7836  1.0477  0.4173
 2249TIP3    H228163   3.608   1.756  16.727 -0.0834 -0.0274 -0.4437
 2250TIP3   OH228164   2.904   2.534   5.940 -0.6465 -0.3853 -0.0769
 2250TIP3    H128165   2.969   2.577   5.885 -0.7524  2.6191  1.9433
 2250TIP3    H228166   2.954   2.472   5.993  0.1025 -0.2443 -0.6086
 2251TIP3   OH228167   4.404   1.853   3.942 -0.1378  0.0414 -0.4157
 2251TIP3    H128168   4.441   1.941   3.953  0.0240 -0.0716 -0.0670
 2251TIP3    H228169   4.390   1.845   3.848  0.5385  0.1631 -0.5338
 2252TIP3   OH228170   0.627   6.026   2.395 -0.4725 -0.2536 -0.6438
 2252TIP3    H128171   0.567   6.072   2.454 -1.2538 -0.0132 -1.5935
 2252TIP3    H228172   0.712   6.032   2.438 -0.9842  0.0862  0.3593
 2253TIP3   OH228173   1.158   2.507   3.661  0.6293 -0.0432  0.6628
 2253TIP3    H128174   1.209   2.574   3.615  0.9029 -0.2849  0.6110
 2253TIP3    H228175   1.067   2.533   3.649  0.7040 -0.0682  0.0435
 2254TIP3   OH228176   2.867   6.315   4.924 -0.7377 -0.3265  0.3882
 2254TIP3    H128177   2.938   6.256   4.898 -1.6104 -1.0970 -0.3570
 2254TIP3    H228178   2.807   6.259   4.974 -2.0885 -0.3670 -1.1938
 2255TIP3   OH228179   1.379   3.814  14.592 -0.5312  0.0027 -0.1743
 2255TIP3    H128180   1.338   3.742  14.639 -1.2005  1.1772  1.1085
 2255TIP3    H228181   1.309   3.877  14.578  0.3368  1.0620  0.0730
 2256TIP3   OH228182   3.272   1.046   2.861 -0.0909 -0.4454 -0.2456
 2256TIP3    H128183   3.242   1.107   2.928  1.0483  0.4810 -0.5435
 2256TIP3    H228184   3.346   1.000   2.902 -0.1597 -0.7356 -0.4453
 2257TIP3   OH228185   6.659   6.440  15.951  0.5959  0.6940 -0.1796
 2257TIP3    H128186   6.580   6.386  15.957  1.6638 -0.7836  2.2473
 2257TIP3    H228187   6.630   6.527  15.979 -0.5707  0.7043 -1.3461
 2258TIP3   OH228188   2.026   6.014   2.841 -0.4220 -0.5265  0.5344
 2258TIP3    H128189   2.111   6.056   2.846 -1.5160  1.7353  1.7165
 2258TIP3    H228190   2.033   5.939   2.901  1.1102 -1.1911 -0.4310
 2259TIP3   OH228191   0.888   5.206  14.519 -0.2940 -0.6714  0.0742
 2259TIP3    H128192   0.981   5.225  14.506 -0.4584 -0.1376 -0.3786
 2259TIP3    H228193   0.882   5.111  14.515  0.4166 -0.8076  1.4211
 2260TIP3   OH228194   0.529   5.850   0.945 -0.5940 -1.1851 -0.2299
 2260TIP3    H128195   0.469   5.885   1.011 -0.3720  1.9562 -1.5482
 2260TIP3    H228196   0.475   5.790   0.893 -2.1031  0.0604 -0.1748
 2261TIP3   OH228197   3.110   0.048  15.833  0.2793 -0.0192 -0.3427
 2261TIP3    H128198   3.122   0.140  15.856 -0.4810  0.1927 -0.7249
 2261TIP3    H228199   3.112   0.047  15.737 -0.3466 -0.2925 -0.3615
 2262TIP3   OH228200   6.224   2.852   1.372  0.9552  0.0832 -0.3228
 2262TIP3    H128201   6.227   2.768   1.418  1.5130 -0.7090 -1.7475
 2262TIP3    H228202   6.190   2.914   1.438 -1.3175 -1.6024  0.2484
 2263TIP3   OH228203   1.007   3.648  16.015 -0.0800  0.1304  0.3060
 2263TIP3    H128204   0.966   3.679  15.934 -1.0991 -0.0227  0.7491
 2263TIP3    H228205   0.960   3.567  16.036  0.7373 -0.2765  0.6071
 2264TIP3   OH228206   0.967   1.553   2.896 -0.8736  0.2552  0.7755
 2264TIP3    H128207   1.051   1.509   2.886 -1.8082 -1.6564  0.9035
 2264TIP3    H228208   0.958   1.606   2.817  0.9353  1.4389  1.2921
 2265TIP3   OH228209   4.200   0.544   0.153  0.4869 -0.3559 -0.4715
 2265TIP3    H128210   4.176   0.634   0.132  0.9003 -0.3063 -0.7256
 2265TIP3    H228211   4.127   0.491   0.120  0.3216 -0.1323 -0.4661
 2266TIP3   OH228212   0.096   1.732   4.827  0.0109  0.2067  0.1602
 2266TIP3    H128213   0.152   1.808   4.811 -0.8532  0.5273 -1.5166
 2266TIP3    H228214   0.027   1.765   4.885 -1.5143  1.3345 -2.1428
 2267TIP3   OH228215   1.600   1.406  12.110 -0.6931 -0.7189 -0.1820
 2267TIP3    H128216   1.545   1.423  12.187  0.4884  0.0509  0.5289
 2267TIP3    H228217   1.609   1.492  12.068 -0.1246 -0.8590 -0.3476
 2268TIP3   OH228218   6.444   6.087   0.442 -0.2227  0.0475  0.6742
 2268TIP3    H128219   6.477   6.173   0.466 -0.8311  0.6486 -0.5454
 2268TIP3    H228220   6.401   6.100   0.357 -0.1996 -1.4833  0.3885
 2269TIP3   OH228221   4.349   4.026  12.537 -0.2491 -0.5125 -0.4053
 2269TIP3    H128222   4.275   4.085  12.528  0.4133  0.5937  0.9475
 2269TIP3    H228223   4.347   3.971  12.459 -0.3830  1.8865 -2.1639
 2270TIP3   OH228224   2.263   1.087  16.259 -0.0688  0.0429  0.3074
 2270TIP3    H128225   2.335   1.118  16.205  1.8203 -2.5319  1.1737
 2270TIP3    H228226   2.207   1.037  16.199 -0.7196  1.3266 -0.1901
 2271TIP3   OH228227   5.028   6.560   1.552 -0.3748 -0.1831 -0.2042
 2271TIP3    H128228   4.945   6.573   1.506 -0.3385 -2.7437 -1.1366
 2271TIP3    H228229   5.015   6.482   1.605  0.5598  1.0381  1.9529
 2272TIP3   OH228230   4.912   1.476   3.355  0.8186  0.4439  0.4139
 2272TIP3    H128231   4.903   1.472   3.451  0.9417  0.3718  0.4222
 2272TIP3    H228232   4.828   1.444   3.323  1.0908 -0.3870  0.4944
 2273TIP3   OH228233   3.736   2.594  11.705  0.6589  0.5621  0.4265
 2273TIP3    H128234   3.814   2.561  11.661  1.9645  1.3511  2.0246
 2273TIP3    H228235   3.678   2.518  11.712  3.1959 -1.3319  3.1979
 2274TIP3   OH228236   5.909   5.497  14.209 -0.2735  0.3151  0.3342
 2274TIP3    H128237   5.873   5.567  14.153 -0.7793  1.2801  1.8110
 2274TIP3    H228238   5.845   5.426  14.202 -0.7098  0.7068  0.2667
 2275TIP3   OH228239   1.033   0.904   1.117  0.7606  0.2878  0.6185
 2275TIP3    H128240   1.040   0.936   1.207 -4.7147 -0.0467  1.5409
 2275TIP3    H228241   1.004   0.981   1.067  3.5976  0.4317 -1.0334
 2276TIP3   OH228242   4.644   2.282  11.943 -0.1510 -0.1215  0.1568
 2276TIP3    H128243   4.685   2.297  12.028  1.0092  0.5503 -0.4851
 2276TIP3    H228244   4.701   2.328  11.881 -0.1550 -1.7965 -1.1547
 2277TIP3   OH228245   1.962   1.557  17.049 -0.2554 -0.0361 -0.5538
 2277TIP3    H128246   2.056   1.565  17.065 -0.6271  0.9790  1.3145
 2277TIP3    H228247   1.945   1.616  16.975  0.4410  0.3978 -0.3779
 2278TIP3   OH228248   3.600   1.110  14.107 -0.3412 -0.3222 -0.2331
 2278TIP3    H128249   3.579   1.096  14.015 -1.8256  2.3987 -0.4149
 2278TIP3    H228250   3.525   1.076  14.155 -2.4653  3.4879 -0.4996
 2279TIP3   OH228251   4.029   0.760   3.818 -0.3954 -0.1603 -0.0442
 2279TIP3    H128252   3.963   0.696   3.845  0.5517 -1.3782 -0.5492
 2279TIP3    H228253   3.978   0.835   3.788 -1.5496  0.5579  3.2857
 2280TIP3   OH228254   3.588   1.201   2.051  0.0095  0.4778  0.3102
 2280TIP3    H128255   3.591   1.123   2.105 -1.6979 -0.0477 -0.2812
 2280TIP3    H228256   3.663   1.193   1.992 -0.2002 -0.7600  0.1925
 2281TIP3   OH228257   2.221   0.575   4.074 -0.3247 -0.1906 -0.1492
 2281TIP3    H128258   2.291   0.511   4.086  1.1411  0.9459 -2.0264
 2281TIP3    H228259   2.189   0.592   4.162  0.6298 -1.9557  0.5993
 2282TIP3   OH228260   2.770   0.935   5.313  0.0532  0.1398  0.7654
 2282TIP3    H128261   2.778   0.858   5.371 -0.9955 -0.2161  0.4496
 2282TIP3    H228262   2.686   0.924   5.270 -0.1223  1.4942  0.7283
 2283TIP3   OH228263   0.077   1.781   0.077 -0.1268 -0.0997  0.2620
 2283TIP3    H128264   0.168   1.774   0.048 -0.7043  0.5102 -1.8282
 2283TIP3    H228265   0.060   1.875   0.084 -0.9165 -0.1722 -0.5036
 2284TIP3   OH228266   3.126   1.604  12.678  0.0436  0.3240 -0.2389
 2284TIP3    H128267   3.174   1.555  12.744  0.1104  0.0147 -0.5165
 2284TIP3    H228268   3.145   1.696  12.698 -0.1551  0.2415  0.3308
 2285TIP3   OH228269   4.154   4.727   4.024  0.4571 -0.3988 -0.2369
 2285TIP3    H128270   4.138   4.780   4.102  1.7435  1.1462 -0.9584
 2285TIP3    H228271   4.240   4.687   4.039  0.1023 -1.1937 -0.2878
 2286TIP3   OH228272   4.249   0.603   3.808  0.2091 -0.3628  0.1575
 2286TIP3    H128273   4.183   0.671   3.800  0.9633  0.2480 -1.1999
 2286TIP3    H228274   4.199   0.522   3.820 -0.7783  0.1326 -0.4521
 2287TIP3   OH228275   0.691   1.654   0.301  0.0788  0.0638 -0.7544
 2287TIP3    H128276   0.784   1.674   0.302 -0.3194  2.1538  0.0418
 2287TIP3    H228277   0.652   1.723   0.246 -1.0860 -0.2642 -0.3809
 2288TIP3   OH228278   1.414   5.655   1.150 -0.1642 -0.1350  0.6248
 2288TIP3    H128279   1.389   5.747   1.160  0.5744  0.0209  1.1310
 2288TIP3    H228280   1.478   5.640   1.220  0.0577 -0.9152  0.2642
 2289TIP3   OH228281   5.832   5.042   5.032  0.0190  0.0717  0.0139
 2289TIP3    H128282   5.774   4.976   5.068 -0.4880 -0.2940 -1.4151
 2289TIP3    H228283   5.854   5.098   5.106 -2.5677  0.5284  0.5114
 2290TIP3   OH228284   5.510   6.586   0.262 -0.3431  0.5100 -0.2323
 2290TIP3    H128285   5.480   6.642   0.335  0.3605  1.9413 -0.9884
 2290TIP3    H228286   5.431   6.565   0.213 -0.8361 -0.5195  0.9488
 2291TIP3   OH228287   4.027   2.082   4.771 -0.4122 -0.3703 -0.0360
 2291TIP3    H128288   4.061   2.123   4.850  0.6995 -0.6923 -0.3352
 2291TIP3    H228289   4.035   1.988   4.787 -1.6517 -0.4763  0.0866
 2292TIP3   OH228290   4.638   6.711   0.808  0.3589  0.6276  1.2583
 2292TIP3    H128291   4.701   6.702   0.880  0.7361  1.7165  1.0916
 2292TIP3    H228292   4.692   6.707   0.729  0.2085  1.3841  1.1103
 2293TIP3   OH228293   2.770   3.075  12.330  1.0171 -0.1557 -0.1888
 2293TIP3    H128294   2.725   2.991  12.323  0.8479 -0.1249  0.4323
 2293TIP3    H228295   2.835   3.074  12.260  1.3809 -1.0308  0.1523
 2294TIP3   OH228296   4.062   1.622   2.280 -0.2648  0.6484 -0.1311
 2294TIP3    H128297   4.028   1.553   2.222  0.4814  0.6591 -0.5922
 2294TIP3    H228298   4.124   1.577   2.337  0.7713  1.0387 -0.9056
 2295TIP3   OH228299   6.326   4.601   3.318  0.1727 -0.1383 -0.2574
 2295TIP3    H128300   6.324   4.639   3.406 -1.3126 -0.2717 -0.1997
 2295TIP3    H228301   6.388   4.528   3.325 -0.3496 -0.5104  0.8628
 2296TIP3   OH228302   0.851   4.527   4.746 -0.4530 -0.1421 -0.0317
 2296TIP3    H128303   0.789   4.561   4.811  0.0049  0.0131  0.3292
 2296TIP3    H228304   0.842   4.431   4.753 -0.4050 -0.1283  0.2696
 2297TIP3   OH228305   5.366   6.195  11.903  0.1907 -0.2086  0.3170
 2297TIP3    H128306   5.390   6.158  11.818 -0.8070 -0.2459  0.0427
 2297TIP3    H228307   5.361   6.289  11.887  1.4804 -0.0634  0.7077
 2298TIP3   OH228308   2.401   1.858   3.109 -0.1558  0.3499 -0.2959
 2298TIP3    H128309   2.329   1.883   3.166  0.0340  1.5546 -0.5393
 2298TIP3    H228310   2.376   1.893   3.023 -0.5327 -1.5988 -1.0194
 2299TIP3   OH228311   3.745   2.375  12.396 -0.2219  0.6496  0.2502
 2299TIP3    H128312   3.833   2.343  12.416 -0.5057 -0.8654 -0.7567
 2299TIP3    H228313   3.701   2.377  12.481  0.2182 -0.4099  0.5235
 2300TIP3   OH228314   0.312   3.880  12.016  0.1028  0.0454 -0.0369
 2300TIP3    H128315   0.299   3.792  12.053  0.1755  0.5827  1.3264
 2300TIP3    H228316   0.240   3.932  12.051  1.8147  1.3081  1.8353
 2301TIP3   OH228317   5.154   1.497   0.224 -0.0538  0.2587  0.9799
 2301TIP3    H128318   5.126   1.579   0.265  0.1416  0.7469  0.1705
 2301TIP3    H228319   5.241   1.516   0.189 -0.7171  0.2693 -0.7455
 2302TIP3   OH228320   3.407   5.370  13.146 -0.2658 -0.2108  0.2309
 2302TIP3    H128321   3.459   5.435  13.100  0.0872 -0.6934 -0.0670
 2302TIP3    H228322   3.392   5.301  13.081 -2.0173  0.3149  0.0497
 2303TIP3   OH228323   4.000   4.486  13.419 -0.4105 -0.4624 -0.2080
 2303TIP3    H128324   4.053   4.564  13.435  1.8313 -1.7348 -0.9866
 2303TIP3    H228325   3.911   4.519  13.408  0.4056  1.9231 -0.1711
 2304TIP3   OH228326   1.475   4.599   4.990 -0.0548 -0.0740 -0.6779
 2304TIP3    H128327   1.498   4.690   4.969 -0.3637  0.0218 -0.6062
 2304TIP3    H228328   1.537   4.574   5.058 -0.9435  0.5839  0.3950
 2305TIP3   OH228329   5.902   3.097  15.287 -0.2016  0.1050  0.0347
 2305TIP3    H128330   5.847   3.050  15.224  0.4253 -1.7071  0.7399
 2305TIP3    H228331   5.992   3.084  15.255  0.1585 -1.1520  1.3934
 2306TIP3   OH228332   2.322   1.932  15.461 -0.1261 -0.1539  0.0567
 2306TIP3    H128333   2.228   1.922  15.443  0.0491 -1.9345 -0.0998
 2306TIP3    H228334   2.350   2.004  15.404 -1.1667 -0.4123 -0.8174
 2307TIP3   OH228335   4.289   0.019   1.499 -0.7356 -0.1040  0.1801
 2307TIP3    H128336   4.326   0.107   1.497 -0.4316 -0.2379 -1.1910
 2307TIP3    H228337   4.279  -0.001   1.592  1.5339  0.4046  0.5905
 2308TIP3   OH228338   2.162   4.574   5.096 -0.1001  0.1085 -0.2798
 2308TIP3    H128339   2.141   4.499   5.152 -2.0601  0.0482 -1.0273
 2308TIP3    H228340   2.154   4.540   5.007  1.4293  0.6132 -0.6449
 2309TIP3   OH228341   4.441   4.417  17.125 -0.9357 -0.5692 -0.4712
 2309TIP3    H128342   4.434   4.406  17.030  0.0651  1.5593 -0.8666
 2309TIP3    H228343   4.511   4.357  17.150 -0.2581 -0.1669 -1.3264
 2310TIP3   OH228344   6.700   5.620   1.257  0.3521  0.2816  0.1114
 2310TIP3    H128345   6.642   5.565   1.206  0.5540  0.9332 -0.8431
 2310TIP3    H228346   6.643   5.666   1.318 -0.3306  1.7860 -1.5854
 2311TIP3   OH228347   3.354   0.927  11.296 -0.5769 -0.4283 -0.2718
 2311TIP3    H128348   3.285   0.971  11.246  0.3741  3.0698  1.2198
 2311TIP3    H228349   3.427   0.918  11.235 -0.7914  0.1003 -0.6073
 2312TIP3   OH228350   4.456   6.732   3.598  0.7224  0.3651  0.4777
 2312TIP3    H128351   4.534   6.698   3.555 -1.0934 -0.7894 -2.1793
 2312TIP3    H228352   4.386   6.672   3.573 -1.2722  1.9684  1.8028
 2313TIP3   OH228353   1.722   5.256  11.431  0.3199 -0.0454 -0.6448
 2313TIP3    H128354   1.756   5.312  11.500 -1.3756  0.7407 -0.3981
 2313TIP3    H228355   1.729   5.309  11.351 -1.9899  0.9004 -0.2925
 2314TIP3   OH228356   3.089   3.503  15.568 -0.3098  0.2694 -0.0931
 2314TIP3    H128357   3.117   3.577  15.621  1.3124  0.4168 -1.0860
 2314TIP3    H228358   3.076   3.432  15.630  0.2841  0.7827  0.6321
 2315TIP3   OH228359   3.321   0.459   2.899 -0.7825 -1.0024  0.5336
 2315TIP3    H128360   3.330   0.483   2.992 -0.3015 -0.4385  0.3443
 2315TIP3    H228361   3.369   0.527   2.852  2.8259 -3.5671  0.0954
 2316TIP3   OH228362   6.395   2.697  15.123  0.0934  0.0587 -0.1297
 2316TIP3    H128363   6.379   2.651  15.205  0.0829 -0.6559 -0.5265
 2316TIP3    H228364   6.343   2.650  15.058 -2.3527  2.3979 -0.0604
 2317TIP3   OH228365   2.387   2.894  12.895 -0.5973  0.4074 -0.4408
 2317TIP3    H128366   2.414   2.970  12.845 -3.2631  0.7759 -1.5033
 2317TIP3    H228367   2.444   2.823  12.865  0.4443  1.4844 -1.0805
 2318TIP3   OH228368   3.891   1.619   0.271  0.0553  0.1850  0.1397
 2318TIP3    H128369   3.960   1.682   0.252  0.7109 -0.1687  1.2350
 2318TIP3    H228370   3.905   1.596   0.363  0.7935 -2.6750 -0.5830
 2319TIP3   OH228371   0.542   3.206  13.837 -0.3790  0.0471 -0.1854
 2319TIP3    H128372   0.488   3.285  13.838 -1.1046 -0.4401 -0.1433
 2319TIP3    H228373   0.492   3.143  13.786  0.4221 -0.2367 -0.6389
 2320TIP3   OH228374   0.804   3.690  14.999  0.0189 -0.0942  0.1501
 2320TIP3    H128375   0.800   3.691  15.095  0.5604  0.3616  0.1731
 2320TIP3    H228376   0.758   3.770  14.972 -3.4554 -2.0025 -0.1478
 2321TIP3   OH228377   3.821   0.582   0.966 -0.3191  0.0770  0.7856
 2321TIP3    H128378   3.729   0.586   0.938  0.5122 -0.2788 -2.4001
 2321TIP3    H228379   3.837   0.666   1.007 -1.5738  0.9969 -0.4976
 2322TIP3   OH228380   2.474   2.619  10.732  0.3010 -0.6581 -0.3071
 2322TIP3    H128381   2.507   2.691  10.679  0.5344 -0.7040 -0.2265
 2322TIP3    H228382   2.550   2.563  10.747 -0.2759 -1.9901 -2.0600
 2323TIP3   OH228383   2.270   1.800  14.040 -0.1358  0.4143  0.1337
 2323TIP3    H128384   2.193   1.838  14.082  0.2103 -0.3373  1.5339
 2323TIP3    H228385   2.252   1.806  13.947 -0.2570  3.6149  0.2594
 2324TIP3   OH228386   5.272   6.034  11.243  0.4347 -0.3396  0.2324
 2324TIP3    H128387   5.181   6.020  11.219  0.3188  0.2190  0.3298
 2324TIP3    H228388   5.304   6.099  11.181  0.5284  0.0798  0.7183
 2325TIP3   OH228389   5.516   6.550  12.995  0.0238 -0.3332 -0.4650
 2325TIP3    H128390   5.560   6.605  13.059 -2.7076 -0.7602  2.0113
 2325TIP3    H228391   5.488   6.473  13.045 -3.2677 -0.1418 -1.7749
 2326TIP3   OH228392   2.472   4.315   0.941  0.0623  0.2710  0.1931
 2326TIP3    H128393   2.539   4.381   0.956  0.0009  0.1425  1.1058
 2326TIP3    H228394   2.515   4.232   0.960 -0.3337  0.1843  0.7563
 2327TIP3   OH228395   1.621   1.717   4.161  0.1371 -0.2364 -0.5612
 2327TIP3    H128396   1.679   1.793   4.163 -0.2063  0.0614 -1.3397
 2327TIP3    H228397   1.607   1.701   4.067 -1.2265 -0.1515 -0.3892
 2328TIP3   OH228398   4.581   2.825  16.037  0.5041  0.6274 -0.2302
 2328TIP3    H128399   4.539   2.904  16.002 -0.4275  0.1933 -0.1193
 2328TIP3    H228400   4.658   2.813  15.982  0.6660  1.6280 -0.2332
 2329TIP3   OH228401   0.323   2.254  15.739 -0.0769  0.1350  0.0879
 2329TIP3    H128402   0.266   2.179  15.750 -1.8701  1.4049 -0.1436
 2329TIP3    H228403   0.321   2.299  15.824 -1.1896  1.3396 -0.5394
 2330TIP3   OH228404   0.442   4.368  15.367 -0.9283 -0.1187 -0.8063
 2330TIP3    H128405   0.367   4.389  15.311 -1.4737  2.7367  0.7596
 2330TIP3    H228406   0.409   4.382  15.456  2.0043  4.1629 -0.0622
 2331TIP3   OH228407   6.753   2.785   1.242 -0.1231 -0.3405 -0.1363
 2331TIP3    H128408   6.848   2.800   1.239 -0.4500  1.9361 -0.8133
 2331TIP3    H228409   6.724   2.832   1.320 -0.8234 -0.2352 -0.4536
 2332TIP3   OH228410   1.298   6.681   1.443 -0.2746 -0.4956 -0.1627
 2332TIP3    H128411   1.288   6.760   1.389  0.6420  0.1246  0.5566
 2332TIP3    H228412   1.209   6.658   1.468 -0.5843  0.0759 -0.7102
 2333TIP3   OH228413   5.026   1.375  10.623  0.4368  0.3253  0.7443
 2333TIP3    H128414   4.942   1.339  10.593  1.3628  0.4267 -2.3803
 2333TIP3    H228415   5.010   1.403  10.713 -2.7134 -0.1574  0.4385
 2334TIP3   OH228416   4.349   1.283  12.598 -0.7543  0.5382 -0.2259
 2334TIP3    H128417   4.368   1.298  12.505  0.5258 -0.4565 -0.1506
 2334TIP3    H228418   4.373   1.365  12.641 -0.3493  0.6449 -0.6459
 2335TIP3   OH228419   1.258   1.447   2.816 -0.2724 -0.8436  0.5785
 2335TIP3    H128420   1.242   1.393   2.893  1.1420  0.4027  1.8408
 2335TIP3    H228421   1.348   1.478   2.828 -0.8434  1.3703 -0.2793
 2336TIP3   OH228422   1.086   4.022   4.303  0.0869  0.0966  0.5995
 2336TIP3    H128423   1.154   4.089   4.303 -0.6193  0.8558 -0.4474
 2336TIP3    H228424   1.102   3.971   4.382  0.9572  1.1802  1.1526
 2337TIP3   OH228425   5.774   3.541  13.350  0.5078 -0.2124  0.1149
 2337TIP3    H128426   5.819   3.581  13.425  1.6189  1.4350 -1.3468
 2337TIP3    H228427   5.844   3.516  13.290 -0.3490 -1.7609 -0.2883
 2338TIP3   OH228428   3.703   5.399   0.833 -0.3912  0.5298 -0.0994
 2338TIP3    H128429   3.786   5.352   0.823 -0.6866 -0.1035  0.3894
 2338TIP3    H228430   3.725   5.490   0.814  0.7330  0.6173  1.4724
 2339TIP3   OH228431   0.497   3.924  12.710  0.1763 -0.2905 -0.0401
 2339TIP3    H128432   0.462   3.930  12.621  0.4354  0.6401 -0.0848
 2339TIP3    H228433   0.588   3.898  12.699 -0.2083 -1.7707  0.0373
 2340TIP3   OH228434   4.783   1.756  15.164 -0.7795 -0.1972 -0.4872
 2340TIP3    H128435   4.836   1.711  15.230 -1.0668 -0.3396 -0.3492
 2340TIP3    H228436   4.786   1.848  15.190 -0.6422 -0.2125 -0.4484
 2341TIP3   OH228437   1.777   4.568   5.417  0.2593  0.0627  0.6395
 2341TIP3    H128438   1.834   4.564   5.494  1.4153 -0.6552 -0.2145
 2341TIP3    H228439   1.690   4.586   5.452  0.7481 -0.3306  2.1243
 2342TIP3   OH228440   6.222   5.787  15.557 -0.0009  0.4395 -0.2683
 2342TIP3    H128441   6.257   5.786  15.468  0.8429  2.8892 -0.0507
 2342TIP3    H228442   6.294   5.755  15.612  0.3996  1.3378 -0.2499
 2343TIP3   OH228443   3.150   5.267  15.716 -0.6393  0.3631 -0.4469
 2343TIP3    H128444   3.120   5.357  15.728 -2.3377 -0.1219 -0.8258
 2343TIP3    H228445   3.199   5.247  15.795  0.8482  2.0049 -0.8779
 2344TIP3   OH228446   1.596   2.053  13.890 -0.1663  0.3548 -1.0183
 2344TIP3    H128447   1.638   1.974  13.924 -0.6566 -0.1386 -1.5339
 2344TIP3    H228448   1.517   2.063  13.943  0.2097  0.8417 -0.5546
 2345TIP3   OH228449   0.995   1.820  16.400  0.1351 -0.7782 -0.0145
 2345TIP3    H128450   1.038   1.738  16.373  2.2329  0.2218  0.0880
 2345TIP3    H228451   0.943   1.796  16.476  0.8809 -2.0053  0.1393
 2346TIP3   OH228452   5.356   5.863   1.245  0.1953  0.4102  0.4703
 2346TIP3    H128453   5.445   5.891   1.223 -0.1187  1.2325  0.2191
 2346TIP3    H228454   5.341   5.785   1.191  0.2434  1.1084 -0.5832
 2347TIP3   OH228455   4.220   4.549  11.041 -0.4128 -0.2120 -0.3963
 2347TIP3    H128456   4.150   4.598  10.998  1.0549  1.4038 -1.0362
 2347TIP3    H228457   4.189   4.458  11.041 -2.9410  0.5864  0.2972
 2348TIP3   OH228458   4.050   3.970   5.259  0.1971  0.0565 -0.5818
 2348TIP3    H128459   4.097   3.893   5.228 -0.8214 -0.3767 -1.0804
 2348TIP3    H228460   3.994   3.938   5.330  0.0301  0.4033 -0.5530
 2349TIP3   OH228461   0.859   6.391  11.335  1.1627  0.2037 -0.1702
 2349TIP3    H128462   0.813   6.437  11.265  1.1622 -0.5293 -0.6609
 2349TIP3    H228463   0.952   6.408  11.319  1.3127 -1.6935 -1.6323
 2350TIP3   OH228464   5.930   5.048   3.081 -0.4312  0.7158 -0.9102
 2350TIP3    H128465   5.898   5.002   3.159 -1.0896  1.4693 -0.7298
 2350TIP3    H228466   5.960   5.133   3.114 -2.2794  1.7274 -1.6834
 2351TIP3   OH228467   0.558   6.056   1.536 -0.7185  0.1106 -0.1380
 2351TIP3    H128468   0.532   6.134   1.487 -1.0119  0.5393  0.6760
 2351TIP3    H228469   0.637   6.083   1.583  0.2770 -0.6763 -1.3081
 2352TIP3   OH228470   1.646   0.512   5.662  0.0360  0.3496 -0.1644
 2352TIP3    H128471   1.651   0.521   5.757  0.4059 -1.7810  0.0685
 2352TIP3    H228472   1.715   0.569   5.628 -0.0204  1.0299  0.8369
 2353TIP3   OH228473   6.282   6.554  16.384 -0.1359 -0.0640  0.3918
 2353TIP3    H128474   6.187   6.555  16.382 -0.2053 -0.5967  1.9792
 2353TIP3    H228475   6.306   6.629  16.438  0.2478 -1.0084  1.5784
 2354TIP3   OH228476   0.939   5.014   0.244  0.3265 -0.2855 -0.2151
 2354TIP3    H128477   0.979   5.036   0.160  1.3313  2.6203  0.9250
 2354TIP3    H228478   0.972   4.926   0.263  3.5377  0.6240 -0.9380
 2355TIP3   OH228479   0.781   3.292  13.015 -0.2511  0.1823  0.4099
 2355TIP3    H128480   0.846   3.329  13.074  0.4788 -1.4560  0.6861
 2355TIP3    H228481   0.772   3.201  13.043 -0.9153 -0.2547 -1.1225
 2356TIP3   OH228482   3.976   2.704   1.234  0.0136  0.2637 -0.0252
 2356TIP3    H128483   4.006   2.664   1.152  0.5673  0.6307 -0.0097
 2356TIP3    H228484   3.932   2.784   1.207  1.4702  1.1486  0.0954
 2357TIP3   OH228485   0.821   2.080   0.221  0.1810  0.3488  0.0556
 2357TIP3    H128486   0.901   2.041   0.185  0.1710  1.4178 -1.1805
 2357TIP3    H228487   0.850   2.161   0.262  0.0809 -0.5112  1.9269
 2358TIP3   OH228488   2.859   5.834   1.921  0.3958 -0.2005  0.2482
 2358TIP3    H128489   2.767   5.826   1.899  0.4541  0.7608 -0.3925
 2358TIP3    H228490   2.881   5.751   1.963 -0.5856 -0.7038 -0.2049
 2359TIP3   OH228491   0.043   6.145   0.434  0.0731  0.0882  0.7261
 2359TIP3    H128492   0.058   6.107   0.348 -0.4468  0.8784  0.2800
 2359TIP3    H228493   0.131   6.161   0.469  0.2838  1.1177 -0.2623
 2360TIP3   OH228494   3.201   5.209  12.726 -0.0350  0.7136  0.2337
 2360TIP3    H128495   3.128   5.230  12.783  1.0097  1.5836  1.2981
 2360TIP3    H228496   3.251   5.142  12.774 -1.0221 -1.1763 -1.2448
 2361TIP3   OH228497   1.554   0.578   3.172 -0.6878 -0.8940  0.3420
 2361TIP3    H128498   1.501   0.641   3.221  0.4980 -0.6848  1.4162
 2361TIP3    H228499   1.551   0.609   3.082 -1.5204 -0.2825  0.5713
 2362TIP3   OH228500   3.790   6.295  14.956  0.5557 -0.0994 -0.2550
 2362TIP3    H128501   3.785   6.389  14.937 -0.9119 -0.1503 -0.2673
 2362TIP3    H228502   3.878   6.282  14.992  1.3784  0.9798 -1.7737
 2363TIP3   OH228503   5.434   6.373  13.200 -0.1105 -0.2622  0.4020
 2363TIP3    H128504   5.437   6.347  13.292 -0.0973 -0.9680  0.2083
 2363TIP3    H228505   5.341   6.381  13.180 -0.1090  0.0465  0.5189
 2364TIP3   OH228506   0.650   5.016   1.152  0.2054 -0.0847 -0.2220
 2364TIP3    H128507   0.563   5.012   1.113 -0.4804  4.0702  0.4428
 2364TIP3    H228508   0.709   5.028   1.078 -0.1179 -0.1472 -0.4913
 2365TIP3   OH228509   6.678   2.166  14.452  0.2275  0.0203 -0.3408
 2365TIP3    H128510   6.604   2.153  14.512  1.1956 -1.7235  0.5551
 2365TIP3    H228511   6.662   2.105  14.380  2.3289 -2.9267  1.4667
 2366TIP3   OH228512   2.831   1.457  14.822  0.2388 -0.4951  0.4229
 2366TIP3    H128513   2.767   1.436  14.890 -3.8640  0.7802 -2.6748
 2366TIP3    H228514   2.824   1.385  14.760  0.8676  0.3284 -0.6291
 2367TIP3   OH228515   6.419   0.421   3.422 -0.0882 -0.5548 -0.2668
 2367TIP3    H128516   6.450   0.507   3.449 -0.3639 -0.0896 -1.3852
 2367TIP3    H228517   6.479   0.359   3.464  0.1892  0.1777  0.4385
 2368TIP3   OH228518   3.514   0.857  16.154  0.4254 -0.2749 -0.0522
 2368TIP3    H128519   3.465   0.934  16.184 -0.3370 -0.5800 -0.4911
 2368TIP3    H228520   3.583   0.846  16.220 -0.5858 -0.3172  1.0459
 2369TIP3   OH228521   0.593   6.646  11.038  0.2404 -0.3659  0.0823
 2369TIP3    H128522   0.593   6.613  10.948 -2.6540 -2.0652  0.5979
 2369TIP3    H228523   0.567   6.738  11.030  1.7771  0.0219 -0.8930
 2370TIP3   OH228524   1.679   1.316  17.212  0.2577 -0.6084 -0.2313
 2370TIP3    H128525   1.639   1.284  17.293  1.3929 -2.3824 -0.2970
 2370TIP3    H228526   1.772   1.295  17.222  0.5951  0.2042 -1.5124
 2371TIP3   OH228527   4.719   0.554  16.812  0.0410 -0.5708  0.3810
 2371TIP3    H128528   4.726   0.462  16.836  1.7422 -1.2556 -2.3027
 2371TIP3    H228529   4.745   0.557  16.720  1.5940  2.7992  0.7715
 2372TIP3   OH228530   0.681   2.999  16.563 -0.2573 -0.0016 -0.1414
 2372TIP3    H128531   0.764   2.968  16.525  0.4071  1.0270  0.4149
 2372TIP3    H228532   0.691   2.983  16.657  0.4608  2.5658  0.2777
 2373TIP3   OH228533   5.816   6.213  12.503 -0.3390 -0.5274 -0.0346
 2373TIP3    H128534   5.858   6.145  12.451  0.8100 -0.6648  1.0256
 2373TIP3    H228535   5.760   6.166  12.564 -2.1775 -0.3411 -1.4973
 2374TIP3   OH228536   5.637   1.146  12.738  0.5521 -0.0534  0.1656
 2374TIP3    H128537   5.663   1.095  12.815 -1.3285 -0.6134  0.4852
 2374TIP3    H228538   5.708   1.209  12.726  2.2962 -1.8365  0.5833
 2375TIP3   OH228539   4.818   1.242   1.596  0.1372  0.6245 -0.3994
 2375TIP3    H128540   4.854   1.155   1.580 -1.4239  0.1752 -1.8289
 2375TIP3    H228541   4.732   1.240   1.553 -0.7048  2.2844  1.0798
 2376TIP3   OH228542   0.927   0.017   3.951 -0.3355 -0.2610  0.2718
 2376TIP3    H128543   0.879   0.077   4.007  1.2016  0.6637  0.6411
 2376TIP3    H228544   0.949   0.069   3.873  0.7742 -0.3914  0.4797
 2377TIP3   OH228545   2.666   3.963  16.651  0.3447  0.1499 -0.2547
 2377TIP3    H128546   2.642   4.053  16.630 -2.0360 -0.5093 -0.6927
 2377TIP3    H228547   2.602   3.936  16.717  0.8886 -1.2561 -0.2630
 2378TIP3   OH228548   5.579   1.654  15.097  0.4716 -0.2747 -0.2512
 2378TIP3    H128549   5.554   1.737  15.057  0.4489  0.2446  0.7890
 2378TIP3    H228550   5.568   1.670  15.191  2.1406 -0.8875  0.0722
 2379TIP3   OH228551   6.118   3.629   2.227 -0.0720  0.1417 -0.3794
 2379TIP3    H128552   6.041   3.639   2.171  0.9003  0.5591 -1.6949
 2379TIP3    H228553   6.161   3.550   2.194 -0.9511 -1.2899  1.6616
 2380TIP3   OH228554   1.295   2.179  15.391  0.7475 -0.6703 -0.2314
 2380TIP3    H128555   1.225   2.225  15.437  0.1799 -2.2468  0.5609
 2380TIP3    H228556   1.371   2.235  15.400  0.5702 -0.7208  2.3360
 2381TIP3   OH228557   4.591   3.966  13.015 -0.0643  0.2144  0.1301
 2381TIP3    H128558   4.528   3.896  12.997 -1.2704  1.2295  0.2454
 2381TIP3    H228559   4.583   3.982  13.109  0.5843  0.1578  0.1979
 2382TIP3   OH228560   4.148   1.107   2.453  0.0750 -0.2202 -0.2117
 2382TIP3    H128561   4.201   1.083   2.377  0.1377 -0.8992  0.0385
 2382TIP3    H228562   4.184   1.054   2.524  1.8661  2.3900  0.9711
 2383TIP3   OH228563   5.924   4.237   0.293 -0.2043  0.0374  0.4029
 2383TIP3    H128564   5.845   4.223   0.241  0.6895  3.2222 -2.0934
 2383TIP3    H228565   5.991   4.185   0.249 -0.2483 -0.2675  0.6918
 2384TIP3   OH228566   6.079   4.212  14.546  0.0530 -0.5391  0.2505
 2384TIP3    H128567   6.131   4.165  14.481  1.0527  0.0553  0.6107
 2384TIP3    H228568   6.041   4.286  14.497  0.5848 -0.2463  0.2778
 2385TIP3   OH228569   6.698   4.788   0.347  0.0987 -0.5141  0.9047
 2385TIP3    H128570   6.648   4.784   0.265  1.7161 -3.5837 -0.1063
 2385TIP3    H228571   6.631   4.788   0.415 -1.3134 -1.0954 -0.4059
 2386TIP3   OH228572   2.570   4.566  12.123  0.1517  0.0078 -0.4683
 2386TIP3    H128573   2.496   4.610  12.165 -0.2988 -0.5033 -0.7181
 2386TIP3    H228574   2.586   4.489  12.177 -0.0607 -0.3441 -0.8979
 2387TIP3   OH228575   3.981   0.323   1.905  0.5431  0.0916 -0.2653
 2387TIP3    H128576   4.069   0.359   1.908  1.2905 -1.6901  1.3394
 2387TIP3    H228577   3.948   0.332   1.995  0.6198 -2.6885  0.1224
 2388TIP3   OH228578   3.749   2.484   3.283  0.2807 -0.0532  0.3223
 2388TIP3    H128579   3.657   2.507   3.299  0.0603 -0.1074 -0.7971
 2388TIP3    H228580   3.745   2.413   3.220  1.1240  1.3813 -1.4298
 2389TIP3   OH228581   5.866   0.575   5.622  0.4629 -0.0561 -0.1476
 2389TIP3    H128582   5.780   0.616   5.619  0.6318  0.3599  0.4668
 2389TIP3    H228583   5.927   0.647   5.634  0.8654 -0.3803 -0.2225
 2390TIP3   OH228584   4.305   1.059   2.193  0.5973 -0.2240  0.2468
 2390TIP3    H128585   4.386   1.020   2.225  0.4488 -1.4577 -0.7794
 2390TIP3    H228586   4.295   1.024   2.104 -1.1881 -0.3328  0.4412
 2391TIP3   OH228587   1.907   3.909   2.196  0.0793 -0.2743 -0.2377
 2391TIP3    H128588   1.915   3.939   2.286  1.9676 -0.6273 -0.2302
 2391TIP3    H228589   1.959   3.828   2.193 -1.8026 -1.5417 -1.1238
 2392TIP3   OH228590   6.351   3.335   4.986 -0.0488 -0.5894  0.7520
 2392TIP3    H128591   6.271   3.379   4.958  0.4807  0.2716  0.5560
 2392TIP3    H228592   6.324   3.244   5.002 -0.8576 -0.5564 -0.2877
 2393TIP3   OH228593   0.145   4.771  13.890 -0.1968  0.0843  0.1668
 2393TIP3    H128594   0.114   4.859  13.870  1.0547  0.4567 -0.2343
 2393TIP3    H228595   0.158   4.730  13.804  0.4670 -0.0328  0.3148
 2394TIP3   OH228596   2.105   5.678   5.315  0.2301  0.3101 -0.4648
 2394TIP3    H128597   2.078   5.744   5.379  0.5262  0.1011 -0.1152
 2394TIP3    H228598   2.047   5.691   5.240 -0.8884 -0.1770  0.2925
 2395TIP3   OH228599   3.852   3.098   4.333  0.1320  0.0788  0.1923
 2395TIP3    H128600   3.877   3.186   4.362 -0.6398 -0.0181  1.2112
 2395TIP3    H228601   3.859   3.101   4.238  1.0939  0.9340  0.2795
 2396TIP3   OH228602   3.192   3.431   5.059  0.0725 -0.4648 -0.8919
 2396TIP3    H128603   3.251   3.355   5.056  1.0795  0.1212  1.4723
 2396TIP3    H228604   3.250   3.505   5.082 -0.8294  1.1289 -3.3310
 2397TIP3   OH228605   0.042   3.047   1.792 -0.7620  0.5161  0.0687
 2397TIP3    H128606   0.104   3.120   1.795 -0.1251 -0.0227  0.4903
 2397TIP3    H228607   0.078   2.983   1.855 -0.9234 -0.4506 -0.7874
 2398TIP3   OH228608   5.515   0.159  12.847  0.2430 -0.0699 -0.5028
 2398TIP3    H128609   5.496   0.130  12.757  0.1692  0.9801 -0.8478
 2398TIP3    H228610   5.611   0.163  12.851  0.2494 -0.2315 -0.5006
 2399TIP3   OH228611   0.203   3.548  16.576 -0.2142  0.7815  0.3713
 2399TIP3    H128612   0.166   3.460  16.561 -0.2682  0.7539  0.6527
 2399TIP3    H228613   0.259   3.564  16.500 -0.6153  0.7229  0.0537
 2400TIP3   OH228614   3.897   5.640  16.330  0.7862  0.0945 -0.1327
 2400TIP3    H128615   3.803   5.631  16.312  1.2864 -1.7620 -2.1088
 2400TIP3    H228616   3.924   5.717  16.279  0.5286  0.0793 -0.2946
 2401TIP3   OH228617   5.928   1.912   3.739  0.0974  0.4235 -0.0775
 2401TIP3    H128618   6.010   1.866   3.720 -0.1623  0.3098 -0.9638
 2401TIP3    H228619   5.872   1.893   3.664 -0.3679  1.3718  0.0134
 2402TIP3   OH228620   3.705   3.879   5.749  0.0510  0.1078 -0.2487
 2402TIP3    H128621   3.764   3.807   5.727 -1.2803 -0.8598 -0.7945
 2402TIP3    H228622   3.676   3.860   5.838  0.7895  0.7589  0.1414
 2403TIP3   OH228623   6.132   3.245   5.994  0.0498 -0.0867 -0.1384
 2403TIP3    H128624   6.102   3.158   6.022 -1.9081  0.2691 -0.9971
 2403TIP3    H228625   6.096   3.305   6.059 -2.9899  0.5509 -2.2233
 2404TIP3   OH228626   0.901   6.627   2.234  0.3435  0.8477 -0.2897
 2404TIP3    H128627   0.838   6.658   2.169  0.6515  0.9926 -0.5230
 2404TIP3    H228628   0.930   6.706   2.279 -0.0208  0.7240  0.1641
 2405TIP3   OH228629   6.287   0.041  12.938  0.4046 -0.4916  0.2322
 2405TIP3    H128630   6.251  -0.042  12.970 -0.2665 -0.6386 -0.8410
 2405TIP3    H228631   6.330   0.017  12.856  1.1227  0.0569  0.4400
 2406TIP3   OH228632   0.278   4.755   0.464 -0.1020 -0.2932  0.4876
 2406TIP3    H128633   0.255   4.838   0.504 -0.4480 -0.1148 -0.0712
 2406TIP3    H228634   0.193   4.714   0.444  0.0452 -0.1634 -0.4889
 2407TIP3   OH228635   5.614   1.578   5.916 -0.2573  0.3388  0.1838
 2407TIP3    H128636   5.598   1.506   5.976  0.3981 -1.7411 -1.9796
 2407TIP3    H228637   5.709   1.593   5.921 -0.4118  1.2130  0.7501
 2408TIP3   OH228638   1.871   2.845   0.025 -0.1137 -0.5803 -0.3773
 2408TIP3    H128639   1.963   2.822   0.020  0.4849  1.0251  1.6654
 2408TIP3    H228640   1.859   2.915  -0.040 -0.2606 -1.7058 -1.5985
 2409TIP3   OH228641   2.628   2.590  17.012  0.2154  0.1407  0.0679
 2409TIP3    H128642   2.648   2.524  17.079  0.2533  0.4383  0.3478
 2409TIP3    H228643   2.683   2.566  16.938  1.5307  0.8695  0.7708
 2410TIP3   OH228644   2.040   1.129   1.949 -0.3011 -0.6907 -0.1405
 2410TIP3    H128645   1.966   1.174   1.989  1.6180  1.5183  1.2094
 2410TIP3    H228646   2.065   1.185   1.875  0.4016 -1.0328 -0.1715
 2411TIP3   OH228647   1.420   6.585  17.020  0.1946 -0.2462 -0.4659
 2411TIP3    H128648   1.498   6.631  16.990  1.3828 -2.2830 -0.6266
 2411TIP3    H228649   1.364   6.579  16.942 -0.1473  1.1737 -0.3602
 2412TIP3   OH228650   6.358   2.708   0.318  0.2713  0.2078  0.2362
 2412TIP3    H128651   6.326   2.623   0.349  0.9953 -0.6501 -1.2720
 2412TIP3    H228652   6.280   2.752   0.284 -0.2592  0.5336  1.8240
 2413TIP3   OH228653   5.791   4.245   4.906  0.3711 -0.4165 -0.2286
 2413TIP3    H128654   5.854   4.189   4.860  1.3610  1.0050 -0.6766
 2413TIP3    H228655   5.783   4.323   4.850 -0.8599 -0.0383  0.4416
 2414TIP3   OH228656   1.750   4.076   2.035  0.2183  0.3097 -0.4422
 2414TIP3    H128657   1.759   4.046   1.945  1.3579  0.3040 -0.3454
 2414TIP3    H228658   1.794   4.010   2.088  0.4252  0.8017  0.0199
 2415TIP3   OH228659   5.400   6.410  11.685  0.0176  0.5260  0.1297
 2415TIP3    H128660   5.412   6.369  11.599 -0.8495  0.7430 -0.0991
 2415TIP3    H228661   5.367   6.497  11.666  2.6112  1.6967  0.5832
 2416TIP3   OH228662   4.887   2.143  16.686 -0.1332 -0.4674  0.3533
 2416TIP3    H128663   4.847   2.060  16.712  0.1265 -0.3980  1.0030
 2416TIP3    H228664   4.817   2.192  16.644 -0.4711 -0.7374  0.6015
 2417TIP3   OH228665   5.310   4.725  17.221 -0.3479  0.0240  0.4519
 2417TIP3    H128666   5.228   4.774  17.217 -0.8505 -0.8167  0.3932
 2417TIP3    H228667   5.341   4.723  17.130 -0.4988 -0.0530  0.4020
 2418TIP3   OH228668   3.464   2.024  14.083  0.6847  0.0320 -0.2842
 2418TIP3    H128669   3.548   2.062  14.058  1.1846 -0.0767  1.1663
 2418TIP3    H228670   3.438   1.973  14.006  1.4001  0.9499 -1.1642
 2419TIP3   OH228671   5.987   0.419  11.006  0.3258 -0.1551 -0.3033
 2419TIP3    H128672   6.066   0.431  10.954  0.6031  0.5020  0.2626
 2419TIP3    H228673   5.938   0.351  10.959  0.2889  0.8267 -1.7484
 2420TIP3   OH228674   3.817   4.586  14.979 -0.8525  0.2323 -0.0247
 2420TIP3    H128675   3.852   4.626  15.058 -0.3156 -0.7229  0.2479
 2420TIP3    H228676   3.723   4.602  14.982 -0.4791  3.3184 -1.0267
 2421TIP3   OH228677   5.466   4.774  16.970  0.5974  0.0783  0.0571
 2421TIP3    H128678   5.553   4.813  16.980  0.8867 -0.5721  0.1247
 2421TIP3    H228679   5.464   4.742  16.880  0.1675  0.7016 -0.1611
 2422TIP3   OH228680   3.480   0.848  10.663 -0.1363  0.3374  0.1845
 2422TIP3    H128681   3.454   0.768  10.617 -1.9357  0.3668  1.0800
 2422TIP3    H228682   3.514   0.905  10.595  0.4647 -0.8921 -0.5799
 2423TIP3   OH228683   4.610   3.059   2.561 -0.0424 -0.1453 -0.4946
 2423TIP3    H128684   4.585   2.975   2.601 -0.7937 -0.6241 -1.9223
 2423TIP3    H228685   4.698   3.075   2.594 -0.4139 -0.7938  0.9102
 2424TIP3   OH228686   4.771   3.968   1.101 -0.3797  0.1292  0.1824
 2424TIP3    H128687   4.689   3.999   1.139 -0.0585 -0.0515  1.0525
 2424TIP3    H228688   4.830   4.043   1.106  0.0476 -0.2547  1.2330
 2425TIP3   OH228689   5.924   1.556  12.632  0.7733 -0.2407 -0.5560
 2425TIP3    H128690   5.974   1.551  12.550 -0.8336  1.4781 -1.7165
 2425TIP3    H228691   5.850   1.613  12.612 -0.1255 -0.4184  1.8961
 2426TIP3   OH228692   2.571   3.718  16.018  1.0445  0.7637  0.4376
 2426TIP3    H128693   2.584   3.637  15.970 -1.1961  0.5023  0.1620
 2426TIP3    H228694   2.565   3.786  15.950 -0.1353  0.6789  0.4288
 2427TIP3   OH228695   0.824   5.180  13.712 -0.0265  0.0101  0.1530
 2427TIP3    H128696   0.898   5.215  13.662 -1.3308  2.3733 -0.2928
 2427TIP3    H228697   0.796   5.253  13.766 -2.9658 -0.2562 -0.8262
 2428TIP3   OH228698   0.713   0.134  12.076 -0.1874 -0.3389 -0.3059
 2428TIP3    H128699   0.761   0.061  12.114  1.5342  0.7748 -0.2404
 2428TIP3    H228700   0.685   0.102  11.990  1.6818 -0.6767 -0.8276
 2429TIP3   OH228701   3.115   4.951  14.912  0.1469 -0.1117  0.5044
 2429TIP3    H128702   3.195   4.962  14.963 -0.1751 -1.5505  1.3999
 2429TIP3    H228703   3.097   5.038  14.876  2.1051  0.2364  0.2561
 2430TIP3   OH228704   1.792   0.359   6.245 -0.2134  0.1429 -0.0327
 2430TIP3    H128705   1.700   0.346   6.220 -0.5408  0.0078  1.1712
 2430TIP3    H228706   1.803   0.304   6.323  0.7498  0.5579  0.1355
 2431TIP3   OH228707   2.033   2.732   4.121  0.2575  0.1836 -0.5808
 2431TIP3    H128708   2.032   2.683   4.039 -0.2926  1.2410 -1.2235
 2431TIP3    H228709   2.057   2.667   4.187 -3.5802 -1.7825 -0.8562
 2432TIP3   OH228710   5.290   3.731  14.121  0.4127  0.7552 -0.0608
 2432TIP3    H128711   5.290   3.702  14.212  0.2565 -0.3028 -0.3963
 2432TIP3    H228712   5.245   3.815  14.123 -0.0997  0.4695  0.7480
 2433TIP3   OH228713   6.325   2.996  16.477 -0.3691  0.3529  0.6864
 2433TIP3    H128714   6.284   3.070  16.432 -0.1508 -0.0645 -0.2167
 2433TIP3    H228715   6.252   2.942  16.505 -0.4680 -0.4514 -1.0290
 2434TIP3   OH228716   2.247   4.540  16.055 -0.1375  0.7122 -0.5512
 2434TIP3    H128717   2.208   4.480  16.119  2.7102  2.3048  3.0239
 2434TIP3    H228718   2.232   4.627  16.092  3.7821  1.5763 -0.5486
 2435TIP3   OH228719   5.873   2.183   6.598  0.6115 -0.4397 -0.0970
 2435TIP3    H128720   5.854   2.171   6.505  0.6895  0.8280 -0.2974
 2435TIP3    H228721   5.934   2.257   6.601  0.5836 -0.4412  0.9628
 2436TIP3   OH228722   4.976   3.779  15.395 -0.0917  0.3395  0.0364
 2436TIP3    H128723   4.929   3.697  15.407 -0.2665  0.3940 -0.2564
 2436TIP3    H228724   4.925   3.826  15.328  0.6209  0.2128 -0.6165
 2437TIP3   OH228725   0.517   4.944   5.529 -0.1908 -0.5018 -0.1337
 2437TIP3    H128726   0.509   4.979   5.618  0.0823  0.8917 -0.6251
 2437TIP3    H228727   0.612   4.938   5.514 -0.2365 -0.6883 -0.3489
 2438TIP3   OH228728   0.546   3.103   4.560 -0.1167 -0.3070  0.0218
 2438TIP3    H128729   0.561   3.020   4.604 -0.9843 -0.6138 -0.2185
 2438TIP3    H228730   0.582   3.169   4.618 -1.1614 -0.7033  1.1630
 2439TIP3   OH228731   5.966   4.261  14.142 -0.0338 -0.1386 -0.1561
 2439TIP3    H128732   5.992   4.313  14.218  1.0978 -2.2059  0.9335
 2439TIP3    H228733   5.992   4.315  14.067  0.6208  1.0922  0.9132
 2440TIP3   OH228734   6.182   0.651  13.602 -0.3128  0.4481  0.6026
 2440TIP3    H128735   6.264   0.692  13.630  1.0086 -0.9973 -0.9098
 2440TIP3    H228736   6.199   0.557  13.608 -1.8411  0.1190  0.1630
 2441TIP3   OH228737   1.471   6.257  12.633 -0.0559  0.0654  0.1782
 2441TIP3    H128738   1.442   6.192  12.697 -1.0531 -0.5787 -0.8844
 2441TIP3    H228739   1.391   6.298  12.601  0.4912  1.1045  0.0658
 2442TIP3   OH228740   0.293   1.874  17.056  0.6515  0.3221 -0.5379
 2442TIP3    H128741   0.242   1.949  17.085  1.6208  0.8919 -0.2856
 2442TIP3    H228742   0.345   1.849  17.132  1.0732  0.0117 -0.9206
 2443TIP3   OH228743   5.029   5.934   4.702 -0.5367  0.0367  0.3198
 2443TIP3    H128744   5.104   5.986   4.731  1.1990 -2.2566  0.1855
 2443TIP3    H228745   5.008   5.969   4.615 -0.2737  1.3253  0.7477
 2444TIP3   OH228746   1.229   0.250   3.817 -0.6272 -0.0794 -0.0949
 2444TIP3    H128747   1.174   0.263   3.894 -2.2048  1.1997 -1.3725
 2444TIP3    H228748   1.209   0.161   3.788  1.4226 -1.3206  1.9955
 2445TIP3   OH228749   2.326   6.300  16.293 -0.2921  1.1402 -0.5783
 2445TIP3    H128750   2.231   6.298  16.278 -0.5742  4.6087 -0.1497
 2445TIP3    H228751   2.335   6.337  16.381  1.5103 -1.9893  0.6949
 2446TIP3   OH228752   2.884   1.765   1.706  0.0154  0.2765 -0.5077
 2446TIP3    H128753   2.938   1.824   1.653 -0.2488 -1.3892 -2.7569
 2446TIP3    H228754   2.794   1.785   1.680 -0.0403 -1.5553 -1.8343
 2447TIP3   OH228755   0.643   0.937  13.732  0.1289  0.2205  0.5850
 2447TIP3    H128756   0.711   0.876  13.704 -1.6661 -1.5559 -0.1759
 2447TIP3    H228757   0.577   0.881  13.773 -1.8078  1.5951 -0.5210
 2448TIP3   OH228758   4.623   5.714  15.791 -0.5730  0.2051  0.5928
 2448TIP3    H128759   4.546   5.770  15.779  0.0891  0.7882 -1.4142
 2448TIP3    H228760   4.690   5.773  15.826 -0.9679 -0.2858  2.2688
 2449TIP3   OH228761   0.910   6.253  15.899 -0.3172  0.4893  0.2204
 2449TIP3    H128762   0.869   6.181  15.946  1.3812  0.2273  1.3715
 2449TIP3    H228763   0.847   6.274  15.829 -1.4089 -1.2665  0.5994
 2450TIP3   OH228764   4.698   2.924  15.590  0.3550  0.1320 -0.3771
 2450TIP3    H128765   4.661   2.991  15.532  1.1934  0.9829  0.0454
 2450TIP3    H228766   4.750   2.869  15.532  0.5783  0.5259 -0.5592
 2451TIP3   OH228767   5.240   5.538  13.984 -0.0895  0.2494  0.4114
 2451TIP3    H128768   5.259   5.504  14.071  2.0546 -0.6141 -0.3272
 2451TIP3    H228769   5.195   5.465  13.939  1.3538 -0.3911 -0.0577
 2452TIP3   OH228770   3.386   1.704   1.956  0.5480 -0.2757 -0.4001
 2452TIP3    H128771   3.461   1.764   1.949  1.5359 -1.3837  0.2598
 2452TIP3    H228772   3.310   1.761   1.962  1.4635  0.9238  0.2016
 2453TIP3   OH228773   1.845   3.229   0.463  0.1418  0.1428  0.4835
 2453TIP3    H128774   1.781   3.158   0.450  1.3161 -0.6777 -1.2414
 2453TIP3    H228775   1.918   3.187   0.509 -0.0049  0.7625  1.3010
 2454TIP3   OH228776   4.549   5.849  13.002  0.3191 -0.2401 -0.0086
 2454TIP3    H128777   4.589   5.762  13.008  1.1462  0.2296  3.3840
 2454TIP3    H228778   4.475   5.838  12.942  2.2527 -2.4485 -2.2321
 2455TIP3   OH228779   0.890   2.702  15.249  0.7108 -0.0397  0.0789
 2455TIP3    H128780   0.836   2.673  15.175  0.6752  0.1262  0.0394
 2455TIP3    H228781   0.888   2.797  15.244  0.9623 -0.0309  0.1097
 2456TIP3   OH228782   2.155   0.451   0.001 -0.3247 -0.0707  0.1833
 2456TIP3    H128783   2.195   0.460  -0.086 -1.3195 -0.7938 -0.3650
 2456TIP3    H228784   2.079   0.509  -0.002  0.4212  1.0014  1.0858
 2457TIP3   OH228785   3.907   2.809  14.375 -0.1371  0.1145 -0.1010
 2457TIP3    H128786   3.829   2.789  14.427 -0.1038 -0.0904 -0.1284
 2457TIP3    H228787   3.883   2.782  14.286 -0.0024 -0.0386 -0.0922
 2458TIP3   OH228788   6.280   6.561   1.935  0.4941  0.7186  0.4316
 2458TIP3    H128789   6.349   6.614   1.897  1.8570 -0.2503  1.4503
 2458TIP3    H228790   6.211   6.623   1.958  1.4596  1.8411  0.3527
 2459TIP3   OH228791   3.954   2.461   4.312  0.0066  0.5743 -0.3555
 2459TIP3    H128792   3.876   2.455   4.256  0.5754  1.2267 -1.2485
 2459TIP3    H228793   4.027   2.454   4.251  0.7093 -1.9427  0.6576
 2460TIP3   OH228794   5.589   1.013   3.717 -0.2730 -0.3220 -0.0483
 2460TIP3    H128795   5.576   1.107   3.706  1.0999 -0.1030  0.1058
 2460TIP3    H228796   5.557   0.975   3.635 -1.7278  0.1599  0.2483
 2461TIP3   OH228797   2.450   5.328   2.162  0.1313 -0.1284  0.2708
 2461TIP3    H128798   2.517   5.299   2.100 -0.1458 -0.4194  0.1074
 2461TIP3    H228799   2.497   5.384   2.223  0.4892 -0.1820  0.0463
 2462TIP3   OH228800   6.101   4.266  13.583 -0.4185  0.7519 -0.2902
 2462TIP3    H128801   6.017   4.221  13.588 -0.8501  1.4639 -0.9428
 2462TIP3    H228802   6.105   4.301  13.494  0.3770  1.1013 -0.1327
 2463TIP3   OH228803   1.671   3.505  15.573  0.0699 -0.5034 -0.1615
 2463TIP3    H128804   1.757   3.528  15.607 -0.1316  0.4329 -0.2594
 2463TIP3    H228805   1.609   3.553  15.628 -0.5890 -3.1872  1.6434
 2464TIP3   OH228806   4.271   1.904   0.086 -0.1811  0.3241 -0.0970
 2464TIP3    H128807   4.277   1.987   0.039 -1.0823 -0.8861 -2.5229
 2464TIP3    H228808   4.317   1.841   0.031  1.6732 -0.6350  2.3350
 2465TIP3   OH228809   3.843   5.152   4.144 -0.4147  0.0257 -0.4904
 2465TIP3    H128810   3.799   5.182   4.065 -0.8961 -0.3356 -0.3677
 2465TIP3    H228811   3.777   5.163   4.213  0.1580  0.7730 -0.0590
 2466TIP3   OH228812   5.270   4.869  12.138 -0.6705  0.5695 -0.4225
 2466TIP3    H128813   5.221   4.936  12.185 -0.8514 -0.6520  1.1946
 2466TIP3    H228814   5.362   4.895  12.146 -0.6465  0.0815  1.1411
 2467TIP3   OH228815   4.268   1.152  15.205  0.5164 -0.0989 -0.5219
 2467TIP3    H128816   4.234   1.241  15.219  0.2248 -0.1680 -0.7827
 2467TIP3    H228817   4.362   1.163  15.198  0.3342  0.4602 -2.5874
 2468TIP3   OH228818   0.094   1.349  16.497 -0.1737 -0.0187  0.1792
 2468TIP3    H128819   0.111   1.435  16.537 -0.7831 -0.8048  2.2194
 2468TIP3    H228820   0.000   1.334  16.511  0.3288 -1.9535  1.8391
 2469TIP3   OH228821   2.227   5.778  14.783 -0.2224 -0.6053 -0.0805
 2469TIP3    H128822   2.141   5.737  14.773 -0.6200 -0.0161  0.7453
 2469TIP3    H228823   2.213   5.848  14.847  0.9911 -0.8683  0.5156
 2470TIP3   OH228824   5.355   2.861   2.580  0.1989  0.0109  0.3852
 2470TIP3    H128825   5.370   2.830   2.669  0.9367 -1.5862 -0.2644
 2470TIP3    H228826   5.439   2.850   2.535 -0.1743  0.7371 -0.5432
 2471TIP3   OH228827   4.854   5.761   6.657 -0.4250  0.5070  0.3519
 2471TIP3    H128828   4.860   5.779   6.751 -2.2142  2.2779  0.1645
 2471TIP3    H228829   4.918   5.690   6.644  0.2228  0.5161  2.7915
 2472TIP3   OH228830   3.612   6.729  14.601  0.1697 -0.6275 -0.5014
 2472TIP3    H128831   3.633   6.653  14.546 -1.0167  0.4431 -2.5680
 2472TIP3    H228832   3.544   6.776  14.552  0.3927  1.4315  1.0289
 2473TIP3   OH228833   3.016   1.509  10.979  0.2616 -0.2578  0.5103
 2473TIP3    H128834   2.924   1.488  10.993  0.2554 -0.7449 -0.1927
 2473TIP3    H228835   3.064   1.440  11.024  0.2412 -1.8972 -1.7941
 2474TIP3   OH228836   4.939   3.900   0.247  0.2439 -0.0864  0.3730
 2474TIP3    H128837   5.001   3.897   0.174 -0.5441  1.0468 -0.3889
 2474TIP3    H228838   4.947   3.989   0.281 -0.3855 -0.1734  0.7665
 2475TIP3   OH228839   5.517   5.098  13.274  0.7056  0.2275  0.3215
 2475TIP3    H128840   5.572   5.118  13.350 -0.1217 -0.4454  1.1289
 2475TIP3    H228841   5.558   5.021  13.235  0.9695  0.3970  0.2656
 2476TIP3   OH228842   5.210   4.038   0.244 -0.0737 -0.6573  0.6981
 2476TIP3    H128843   5.252   4.015   0.327  0.0354  0.2203  0.8994
 2476TIP3    H228844   5.212   4.134   0.242  3.2285 -0.6016 -1.9902
 2477TIP3   OH228845   2.338   0.771  16.363  0.8587  0.1890  0.6498
 2477TIP3    H128846   2.251   0.811  16.366 -0.6533 -2.7564 -0.0174
 2477TIP3    H228847   2.365   0.781  16.271  0.5472 -0.1472  0.5164
 2478TIP3   OH228848   1.290   5.828   1.377 -0.6747  0.4991  0.1426
 2478TIP3    H128849   1.231   5.803   1.448 -1.2250  0.2177 -0.4075
 2478TIP3    H228850   1.243   5.806   1.297  0.5783 -0.7308 -0.3065
 2479TIP3   OH228851   0.205   3.255   1.539 -0.6266 -0.1389  0.1898
 2479TIP3    H128852   0.199   3.350   1.533 -0.8479 -0.2339 -3.6719
 2479TIP3    H228853   0.286   3.238   1.587 -0.3427  1.9653  0.5134
 2480TIP3   OH228854   0.278   3.292  17.230 -0.2001  0.3565 -0.0384
 2480TIP3    H128855   0.355   3.339  17.264 -1.1596  1.5648  0.5514
 2480TIP3    H228856   0.314   3.229  17.167  1.1401  2.2167 -1.2478
 2481TIP3   OH228857   2.402   0.827  10.702 -0.1059 -0.5796  0.2003
 2481TIP3    H128858   2.352   0.889  10.755 -1.3219  0.7776 -2.3380
 2481TIP3    H228859   2.459   0.882  10.648 -0.5633 -1.6859 -1.4909
 2482TIP3   OH228860   5.225   0.890   2.802 -0.2551 -0.8423 -0.2285
 2482TIP3    H128861   5.215   0.947   2.879  0.0025 -0.6386 -0.3450
 2482TIP3    H228862   5.156   0.825   2.812 -0.0743 -0.9580  0.3031
 2483TIP3   OH228863   3.405   4.482  12.710 -1.0964 -0.2864  0.0217
 2483TIP3    H128864   3.347   4.415  12.746  0.0671 -1.1860  0.2956
 2483TIP3    H228865   3.448   4.520  12.787  0.2189 -1.1069 -0.2676
 2484TIP3   OH228866   1.049   1.077   6.672 -0.1726 -0.2488 -0.1720
 2484TIP3    H128867   1.110   1.056   6.743  0.6517 -0.4086 -0.9092
 2484TIP3    H228868   1.026   0.992   6.634 -2.6039 -0.4191  1.4556
 2485TIP3   OH228869   5.500   0.916   3.458  0.3543 -0.0788  0.6166
 2485TIP3    H128870   5.555   0.911   3.380 -0.7181 -1.3012 -0.1201
 2485TIP3    H228871   5.459   0.829   3.464 -1.6362  0.8229  0.9948
 2486TIP3   OH228872   5.886   3.589   1.407 -0.6399 -0.3389  0.2549
 2486TIP3    H128873   5.932   3.670   1.425 -2.1634  0.3095  1.3976
 2486TIP3    H228874   5.945   3.520   1.439 -0.9927  0.5254  3.0391
 2487TIP3   OH228875   2.266   6.771  12.266 -0.1517  0.3338  0.9347
 2487TIP3    H128876   2.318   6.812  12.336 -0.0300  0.5860  0.6971
 2487TIP3    H228877   2.320   6.696  12.238 -0.7624 -0.5061  1.9513
 2488TIP3   OH228878   4.724   5.912   4.043 -0.3133 -0.5658  0.1788
 2488TIP3    H128879   4.634   5.881   4.053  0.2373 -2.1951  0.5515
 2488TIP3    H228880   4.746   5.950   4.128 -0.8720  0.5243 -0.1498
 2489TIP3   OH228881   1.925   2.409   3.634  0.0030 -0.3300  0.5029
 2489TIP3    H128882   1.919   2.326   3.587 -0.3410  0.3851 -0.7615
 2489TIP3    H228883   2.004   2.451   3.599 -0.4501  0.3684  0.3060
 2490TIP3   OH228884   6.535   2.004   4.664 -0.2397  0.0259  0.5298
 2490TIP3    H128885   6.516   1.914   4.692  0.9424 -0.4462 -0.1114
 2490TIP3    H228886   6.629   2.004   4.647 -0.1379  1.5373  1.0241
 2491TIP3   OH228887   1.938   2.763   3.196  0.6100  0.3822 -0.3901
 2491TIP3    H128888   1.895   2.849   3.199 -0.5870 -0.2032 -0.3721
 2491TIP3    H228889   1.931   2.735   3.105  1.8040  0.6710 -0.5992
 2492TIP3   OH228890   6.101   3.554  16.533  0.2499  0.0497  0.2145
 2492TIP3    H128891   6.090   3.625  16.469  0.6716  0.4296  0.5528
 2492TIP3    H228892   6.171   3.585  16.591  0.3361 -0.5810  0.4566
 2493TIP3   OH228893   6.475   3.226  14.291  0.2646 -0.0435 -0.3293
 2493TIP3    H128894   6.385   3.245  14.265 -0.3939  0.1560  1.8509
 2493TIP3    H228895   6.474   3.133  14.315  0.8883 -0.2673 -1.1072
 2494TIP3   OH228896   3.191   5.623   3.798  0.1749  0.4583 -0.5683
 2494TIP3    H128897   3.249   5.549   3.815 -2.3530 -1.1773  1.9909
 2494TIP3    H228898   3.135   5.594   3.726 -0.0289  0.3376 -0.3654
 2495TIP3   OH228899   4.935   1.427  11.486  0.5392  0.1036  0.1349
 2495TIP3    H128900   4.941   1.332  11.496  0.9773 -0.1615 -2.1529
 2495TIP3    H228901   4.842   1.445  11.470  0.4207  0.0957  0.8068
 2496TIP3   OH228902   2.204   6.314   0.690 -0.6987 -0.0763  0.2495
 2496TIP3    H128903   2.133   6.369   0.723 -1.4961 -1.3056  0.6132
 2496TIP3    H228904   2.270   6.377   0.659 -3.1910  1.2133 -3.0445
 2497TIP3   OH228905   6.274   5.523  17.170  0.1159 -0.2928 -0.4405
 2497TIP3    H128906   6.259   5.602  17.222  0.5349  0.1166 -0.9326
 2497TIP3    H228907   6.260   5.451  17.231  0.3487  0.1782  0.1786
 2498TIP3   OH228908   5.650   2.103   3.289 -0.3221 -0.0457  0.5655
 2498TIP3    H128909   5.711   2.066   3.225  0.3893  0.1747  1.1075
 2498TIP3    H228910   5.589   2.032   3.307 -0.7264 -0.0137 -0.5968
 2499TIP3   OH228911   4.613   3.543  16.194 -0.2021  0.8377  0.4897
 2499TIP3    H128912   4.540   3.602  16.210  0.8807  2.6357 -0.7828
 2499TIP3    H228913   4.630   3.502  16.279 -1.5827  1.6706  1.2050
 2500TIP3   OH228914   2.045   1.194  12.490  0.5191  0.4878 -0.4230
 2500TIP3    H128915   1.979   1.193  12.558  0.3955  2.0062 -0.4729
 2500TIP3    H228916   2.099   1.117  12.507  0.7254  1.0304  1.6179
 2501TIP3   OH228917   6.021   1.258  10.879  0.9626 -0.1654 -0.1691
 2501TIP3    H128918   6.026   1.217  10.965  3.9344  0.5772  0.0986
 2501TIP3    H228919   6.061   1.195  10.820  0.9336  0.2398 -0.6244
 2502TIP3   OH228920   1.599   4.371   0.438  0.1477  0.5226 -0.1684
 2502TIP3    H128921   1.576   4.325   0.519 -0.7934  0.8188 -0.2614
 2502TIP3    H228922   1.694   4.378   0.441  0.1728 -0.0603  0.5935
 2503TIP3   OH228923   0.794   2.016   2.151  0.1058 -0.3824  0.4935
 2503TIP3    H128924   0.717   2.052   2.195  0.1394 -0.1352  0.3512
 2503TIP3    H228925   0.847   2.093   2.130 -1.6344  0.0019 -3.3979
 2504TIP3   OH228926   6.580   0.674  13.422 -0.6354  0.2010 -0.0853
 2504TIP3    H128927   6.622   0.593  13.392 -2.1181 -1.7595  2.7410
 2504TIP3    H228928   6.488   0.664  13.396 -0.8306  1.0381  0.2553
 2505TIP3   OH228929   4.389   0.309   5.168 -0.3645  0.0557  0.4308
 2505TIP3    H128930   4.444   0.280   5.241  1.7209  0.2243 -0.9891
 2505TIP3    H228931   4.429   0.391   5.139 -1.2720  0.0905 -0.7651
 2506TIP3   OH228932   4.295   2.718  17.071 -0.2487 -0.3423 -0.4111
 2506TIP3    H128933   4.218   2.662  17.061  0.6318 -1.2896 -2.5943
 2506TIP3    H228934   4.369   2.657  17.072  0.6822  0.6766 -1.9146
 2507TIP3   OH228935   3.630   2.814   5.428 -0.6529  0.0137  0.0761
 2507TIP3    H128936   3.614   2.865   5.507 -0.2727  0.9192 -0.4179
 2507TIP3    H228937   3.716   2.843   5.398 -0.2921 -1.1439 -0.0517
 2508TIP3   OH228938   4.479   2.717   4.463 -0.3521  0.1143 -0.5913
 2508TIP3    H128939   4.471   2.630   4.423  2.6980  0.3745 -2.1162
 2508TIP3    H228940   4.411   2.770   4.420 -1.0768 -1.0742 -0.9484
 2509TIP3   OH228941   0.763   5.519  13.229  0.2897 -0.1315 -0.6062
 2509TIP3    H128942   0.754   5.446  13.167 -2.8347 -0.8614  0.4909
 2509TIP3    H228943   0.740   5.481  13.313 -2.9973  2.3305 -0.2043
 2510TIP3   OH228944   2.265   6.423   3.861 -0.5861  0.3774  0.2024
 2510TIP3    H128945   2.190   6.430   3.802  0.3828 -0.2076 -1.1572
 2510TIP3    H228946   2.236   6.466   3.942 -1.2526  3.2429 -1.3911
 2511TIP3   OH228947   1.886   6.643   2.885 -0.2480 -0.1400 -0.1989
 2511TIP3    H128948   1.975   6.647   2.920 -0.2822 -0.9473 -0.0128
 2511TIP3    H228949   1.854   6.733   2.891  1.2430  0.5982 -2.0944
 2512TIP3   OH228950   6.414   1.073   1.369  0.2851  0.3145 -0.3378
 2512TIP3    H128951   6.475   1.009   1.406  0.5301  0.7616  0.0514
 2512TIP3    H228952   6.359   1.023   1.309 -0.0530 -0.4090  0.5627
 2513TIP3   OH228953   5.716   0.450   5.362  0.0797  0.0760 -0.3909
 2513TIP3    H128954   5.808   0.467   5.339 -0.2569  2.4325 -0.1950
 2513TIP3    H228955   5.669   0.526   5.330 -1.6036 -0.3722  0.8814
 2514TIP3   OH228956   1.247   0.061  13.034 -0.2146  0.1085 -0.6456
 2514TIP3    H128957   1.252   0.052  12.939 -2.8380  0.5430 -0.9197
 2514TIP3    H228958   1.215   0.150  13.048  1.0174  0.3626  0.7198
 2515TIP3   OH228959   4.278   4.315   3.181  0.2979  0.8261  0.5353
 2515TIP3    H128960   4.198   4.367   3.171 -0.4585 -0.3091  0.4453
 2515TIP3    H228961   4.246   4.227   3.205  1.4021 -0.2344 -1.6457
 2516TIP3   OH228962   2.632   0.587  13.974 -0.4538  0.5620  0.1056
 2516TIP3    H128963   2.696   0.520  14.000 -1.0565  0.0353  0.2547
 2516TIP3    H228964   2.578   0.599  14.052 -1.0806  0.3751 -0.3001
 2517TIP3   OH228965   5.537   0.954   6.050 -0.0067  0.0337 -0.2886
 2517TIP3    H128966   5.618   0.971   6.098  0.0443  0.9148 -0.6588
 2517TIP3    H228967   5.469   0.997   6.102 -0.3609 -1.2934  0.3924
 2518TIP3   OH228968   5.230   0.039   3.149  0.4176  0.4912  0.5198
 2518TIP3    H128969   5.283   0.059   3.226  1.3190 -0.7840  0.2632
 2518TIP3    H228970   5.259  -0.048   3.122 -0.6970  0.4345 -0.5860
 2519TIP3   OH228971   3.626   3.600  16.010  0.0470  0.1237 -0.7784
 2519TIP3    H128972   3.621   3.515  15.966  0.9113  0.3500 -1.3592
 2519TIP3    H228973   3.539   3.615  16.046  0.2726 -1.6884  0.6468
 2520TIP3   OH228974   2.717   3.763  13.111  0.0154  0.7943  0.7502
 2520TIP3    H128975   2.643   3.758  13.051 -0.2061 -1.2520  1.1425
 2520TIP3    H228976   2.681   3.802  13.191 -0.4890  0.4344  0.7052
 2521TIP3   OH228977   0.340   4.489  16.815  0.2460  0.0572 -0.0646
 2521TIP3    H128978   0.316   4.530  16.732  0.4438  0.2823 -0.0093
 2521TIP3    H228979   0.268   4.510  16.875  0.3332  0.2920 -0.0451
 2522TIP3   OH228980   3.795   4.120  15.984 -0.5403  0.5404  0.0931
 2522TIP3    H128981   3.840   4.080  15.910  0.5122  0.9850  0.4730
 2522TIP3    H228982   3.854   4.107  16.058 -2.2314 -1.2067  1.2090
 2523TIP3   OH228983   6.404   2.086   5.152 -0.2040 -0.0156  0.1443
 2523TIP3    H128984   6.411   1.992   5.171 -0.9181 -0.1043 -0.0057
 2523TIP3    H228985   6.435   2.095   5.062 -0.0165 -0.0899  0.2008
 2524TIP3   OH228986   4.417   2.037  14.628  0.0205 -0.7503 -1.0653
 2524TIP3    H128987   4.464   1.968  14.581  0.8102 -0.7932 -0.2397
 2524TIP3    H228988   4.484   2.100  14.653 -0.0360 -1.5072  1.3614
 2525TIP3   OH228989   2.975   2.611   5.482 -0.3146 -0.0179 -0.5172
 2525TIP3    H128990   3.007   2.701   5.486 -2.3504  0.8207 -1.3702
 2525TIP3    H228991   2.919   2.602   5.559 -2.8104  0.6682 -2.1210
 2526TIP3   OH228992   1.224   0.061  11.018 -0.0420  0.2136  0.4753
 2526TIP3    H128993   1.133   0.034  11.008 -0.3726  1.5264 -0.3641
 2526TIP3    H228994   1.254   0.078  10.928  1.6971 -2.1498  0.5342
 2527TIP3   OH228995   5.486   1.195  17.254  0.0298 -0.3567 -0.3602
 2527TIP3    H128996   5.391   1.198  17.267  0.1691  1.2145  0.4852
 2527TIP3    H228997   5.515   1.120  17.305 -0.9066 -1.8893 -1.9529
 2528TIP3   OH228998   2.809   1.955  14.998  0.5683 -0.6370 -0.2096
 2528TIP3    H128999   2.882   1.935  14.939  0.4512 -1.5747 -0.0504
 2528TIP3    H229000   2.832   1.913  15.080 -0.8175 -2.2311 -0.5869
 2529TIP3   OH229001   0.123   6.445   3.834  0.3509 -0.3296 -0.1964
 2529TIP3    H129002   0.116   6.362   3.881  0.3502  0.3598  1.0579
 2529TIP3    H229003   0.033   6.473   3.820  0.3538 -0.4579 -0.4815
 2530TIP3   OH229004   3.333   3.453   4.688 -0.6514  0.1455 -0.5677
 2530TIP3    H129005   3.409   3.449   4.630 -0.1697 -1.1939  0.1130
 2530TIP3    H229006   3.350   3.387   4.755 -1.0852  1.7921  1.2603
 2531TIP3   OH229007   3.468   3.840   5.573  0.1220 -0.6259 -0.5412
 2531TIP3    H129008   3.434   3.786   5.645 -0.5896 -0.4479 -0.7378
 2531TIP3    H229009   3.547   3.881   5.610 -0.6341  0.0358  0.3972
 2532TIP3   OH229010   2.849   0.568   1.782  0.1830 -0.7220 -0.2509
 2532TIP3    H129011   2.849   0.656   1.817 -0.6340 -1.2336  1.0965
 2532TIP3    H229012   2.942   0.548   1.768  0.5021 -0.2772  1.0855
 2533TIP3   OH229013   3.139   2.396   0.323 -0.0256  0.7833  0.0049
 2533TIP3    H129014   3.073   2.464   0.311  1.5442  2.1076 -1.6597
 2533TIP3    H229015   3.108   2.322   0.271 -0.7669  0.9365  0.2219
 2534TIP3   OH229016   6.276   0.248   5.832  0.2380  0.1026  0.1583
 2534TIP3    H129017   6.191   0.271   5.870  0.7504  0.3164  1.1945
 2534TIP3    H229018   6.326   0.210   5.904  1.1524  0.3159 -0.3427
 2535TIP3   OH229019   1.750   0.172  13.643 -0.3498  0.0771  0.7277
 2535TIP3    H129020   1.758   0.264  13.618 -0.2992 -0.0822  0.1607
 2535TIP3    H229021   1.811   0.126  13.586  0.0454 -0.2470  1.3958
 2536TIP3   OH229022   3.874   5.914   3.545  0.1825 -0.2964  0.2261
 2536TIP3    H129023   3.814   5.968   3.494 -1.7127 -0.6341  1.9803
 2536TIP3    H229024   3.961   5.941   3.516 -0.7501 -0.6487 -3.2954
 2537TIP3   OH229025   5.890   2.053   0.735  0.3770  0.5819  0.4702
 2537TIP3    H129026   5.926   2.018   0.816 -1.0001 -0.1368  0.7913
 2537TIP3    H229027   5.869   1.976   0.682  2.1020  1.0441 -0.9861
 2538TIP3   OH229028   5.106   2.242  12.408 -0.9264  0.2027 -0.2499
 2538TIP3    H129029   5.099   2.280  12.321 -1.3865 -0.1796 -0.3853
 2538TIP3    H229030   5.032   2.277  12.456  0.3466  1.8810  0.5773
 2539TIP3   OH229031   4.674   6.451  15.842 -0.1954 -0.6282 -0.1671
 2539TIP3    H129032   4.650   6.472  15.752  0.5216  1.2951  0.0511
 2539TIP3    H229033   4.744   6.512  15.864 -0.0607 -1.3304  1.5703
 2540TIP3   OH229034   6.051   3.278   4.148  0.5954 -0.5598  0.5284
 2540TIP3    H129035   6.135   3.247   4.113 -0.1682 -0.9642 -1.0247
 2540TIP3    H229036   5.993   3.283   4.072  0.1065  2.9254  0.9660
 2541TIP3   OH229037   0.069   0.384   3.706 -0.5522 -0.3996  0.9035
 2541TIP3    H129038   0.147   0.329   3.698 -0.0440  0.4886 -0.8239
 2541TIP3    H229039  -0.004   0.323   3.703  0.0016 -1.0320 -0.8734
 2542TIP3   OH229040   4.022   2.289   5.555 -0.1516 -0.1076 -0.2906
 2542TIP3    H129041   3.982   2.354   5.612 -0.0169 -1.5207  1.5406
 2542TIP3    H229042   4.116   2.300   5.570 -0.1384 -0.8539  0.2152
 2543TIP3   OH229043   0.386   1.656  15.805 -0.6003 -0.2503  0.7394
 2543TIP3    H129044   0.318   1.723  15.814 -2.6924 -2.1882  0.3434
 2543TIP3    H229045   0.372   1.598  15.880 -1.5036 -2.3885 -0.9712
 2544TIP3   OH229046   4.723   5.907  13.275  0.3573 -0.3988  0.0796
 2544TIP3    H129047   4.635   5.925  13.240  0.4166 -0.8260 -0.3065
 2544TIP3    H229048   4.711   5.905  13.370  0.1975  0.8388  0.1089
 2545TIP3   OH229049   5.298   3.959   2.412 -0.0523 -0.2696  0.5651
 2545TIP3    H129050   5.270   3.902   2.339 -2.1226  2.6406 -1.1361
 2545TIP3    H229051   5.357   4.022   2.372  0.3569  0.2136  1.8879
 2546TIP3   OH229052   3.229   4.795   4.089 -0.0524 -0.8188 -0.4597
 2546TIP3    H129053   3.287   4.720   4.076 -0.4787 -1.5642  1.5334
 2546TIP3    H229054   3.286   4.871   4.080  0.7694 -1.4582 -0.7372
 2547TIP3   OH229055   3.319   6.741  16.290 -0.5303  0.2863  0.4524
 2547TIP3    H129056   3.253   6.702  16.348 -1.6559 -0.5961 -1.3356
 2547TIP3    H229057   3.372   6.666  16.261 -0.7553  0.5266 -0.6034
 2548TIP3   OH229058   1.730   3.476   3.044 -0.3075  0.3404  0.4023
 2548TIP3    H129059   1.739   3.535   2.969  0.9861  2.0231  1.7885
 2548TIP3    H229060   1.638   3.449   3.042 -0.1052 -0.3922 -2.2534
 2549TIP3   OH229061   0.223   5.959  13.110  0.0519 -0.0917 -0.2062
 2549TIP3    H129062   0.222   6.032  13.172 -1.1011 -1.8419  1.9717
 2549TIP3    H229063   0.173   5.991  13.035  0.8853  1.8545  0.0105
 2550TIP3   OH229064   4.263   4.859  12.194  0.1415 -0.0850  0.2745
 2550TIP3    H129065   4.254   4.941  12.243  0.2865 -0.5509  1.0859
 2550TIP3    H229066   4.310   4.800  12.253 -0.2641 -0.8722 -0.1710
 2551TIP3   OH229067   0.366   1.087   0.525 -0.6864  0.3064 -0.3250
 2551TIP3    H129068   0.335   1.003   0.559  2.9483 -0.2574  2.2121
 2551TIP3    H229069   0.381   1.070   0.432 -2.3113 -1.0792 -0.3796
 2552TIP3   OH229070   6.673   5.387  12.403  0.4409  0.3457 -0.1427
 2552TIP3    H129071   6.598   5.440  12.427  0.2362  1.3250 -2.6100
 2552TIP3    H229072   6.636   5.318  12.347  1.1754 -0.1166 -0.0696
 2553TIP3   OH229073   2.037   6.103   3.721  0.0167 -0.4510  0.0439
 2553TIP3    H129074   2.128   6.090   3.692 -0.3779 -1.0899 -0.9604
 2553TIP3    H229075   1.986   6.041   3.669 -0.8050 -1.3131  1.7746
 2554TIP3   OH229076   0.687   5.004  12.683 -0.0154  0.4019  0.2561
 2554TIP3    H129077   0.725   4.918  12.667  4.4683  1.7982  1.6541
 2554TIP3    H229078   0.660   5.036  12.597  2.6711 -0.6654 -1.0872
 2555TIP3   OH229079   6.045   3.051  13.483  0.5203 -0.5890  0.4927
 2555TIP3    H129080   6.036   3.038  13.578  0.0568 -0.4418  0.4748
 2555TIP3    H229081   6.117   3.113  13.473 -0.8835  1.1863  0.8828
 2556TIP3   OH229082   2.594   1.924  13.883  0.2218  0.0982  0.8531
 2556TIP3    H129083   2.632   1.930  13.796  0.5889 -1.1729  0.9092
 2556TIP3    H229084   2.576   1.831  13.895 -1.6588  0.4785  1.3664
 2557TIP3   OH229085   0.442   4.899   2.841 -0.5111 -0.2054  0.1427
 2557TIP3    H129086   0.391   4.942   2.772  0.8189  0.7199 -0.3085
 2557TIP3    H229087   0.423   4.950   2.920  2.8871  3.0234 -0.8085
 2558TIP3   OH229088   0.177   4.721  12.657 -0.5722 -0.2047  0.4145
 2558TIP3    H129089   0.153   4.717  12.750  0.9569  0.7597  0.9038
 2558TIP3    H229090   0.102   4.684  12.611 -1.5501 -0.3156  2.0057
 2559TIP3   OH229091   1.239   1.234  14.796 -0.1012 -0.0209 -0.9176
 2559TIP3    H129092   1.205   1.188  14.872 -0.2973 -1.5037 -1.8592
 2559TIP3    H229093   1.162   1.265  14.749 -0.0819 -0.9759 -1.6079
 2560TIP3   OH229094   1.011   0.086   2.261  0.2930  0.0142  0.0255
 2560TIP3    H129095   1.010   0.149   2.189 -1.8313 -0.5061 -0.4402
 2560TIP3    H229096   0.980   0.135   2.337  1.0850  0.1628  0.2668
 2561TIP3   OH229097   0.396   4.337   3.871  0.6409 -0.0972 -0.3948
 2561TIP3    H129098   0.333   4.298   3.931 -0.6845  1.3536 -0.7641
 2561TIP3    H229099   0.480   4.332   3.917 -0.1842  0.1660  1.2018
 2562TIP3   OH229100   0.804   5.347   5.064  0.1486  0.1802 -0.4053
 2562TIP3    H129101   0.764   5.339   5.151  0.8967 -2.1845 -0.2137
 2562TIP3    H229102   0.885   5.395   5.080  0.4914 -0.6093  0.2854
 2563TIP3   OH229103   5.820   6.117   1.102  0.0791  0.1500 -0.0584
 2563TIP3    H129104   5.844   6.039   1.153  1.2444  1.2489  1.1364
 2563TIP3    H229105   5.873   6.111   1.022  0.6937  0.0726  0.3514
 2564TIP3   OH229106   3.686   2.114   1.486 -0.0024  0.0790 -0.7099
 2564TIP3    H129107   3.719   2.167   1.413 -4.2390  2.1338 -1.4244
 2564TIP3    H229108   3.619   2.058   1.446  2.2093 -3.8700  0.5906
 2565TIP3   OH229109   1.304   4.260   0.355 -0.0603 -0.3054 -0.2191
 2565TIP3    H129110   1.363   4.206   0.302 -2.1856 -3.3037  0.2544
 2565TIP3    H229111   1.344   4.261   0.442  0.8021  0.3150 -0.6003
 2566TIP3   OH229112   1.958   3.185  13.066 -0.3269  0.6333  0.4188
 2566TIP3    H129113   1.915   3.267  13.043 -0.1973  0.5444 -0.1582
 2566TIP3    H229114   1.888   3.121  13.067 -0.4084  0.7263  0.7455
 2567TIP3   OH229115   3.540   4.847   1.375 -0.0631 -0.1152  0.5098
 2567TIP3    H129116   3.605   4.813   1.436 -0.2409 -3.4987 -1.0049
 2567TIP3    H229117   3.578   4.928   1.341  2.0553 -0.5408  1.7438
 2568TIP3   OH229118   4.706   3.739   4.725 -0.5459  0.0557  0.4773
 2568TIP3    H129119   4.673   3.677   4.790 -1.1168 -1.2919 -1.0498
 2568TIP3    H229120   4.797   3.713   4.711 -0.7607 -0.3942 -0.1011
 2569TIP3   OH229121   6.427   2.691  14.763  0.1671 -0.0979  0.3669
 2569TIP3    H129122   6.522   2.703  14.759  0.2343 -0.6343  0.2961
 2569TIP3    H229123   6.415   2.612  14.816 -0.1515 -1.1678 -1.2117
 2570TIP3   OH229124   4.085   3.126   2.477 -0.0027  0.0919  0.1972
 2570TIP3    H129125   4.025   3.180   2.426 -0.6369  1.8966  2.6670
 2570TIP3    H229126   4.037   3.045   2.494 -1.6540  1.3118  1.7114
 2571TIP3   OH229127   4.677   0.417   1.361 -0.0635 -0.0597 -0.9916
 2571TIP3    H129128   4.682   0.353   1.432  1.5348  0.4409 -0.6006
 2571TIP3    H229129   4.738   0.385   1.295  0.2973  0.7298 -1.0577
 2572TIP3   OH229130   4.188   0.917  11.259 -0.2200 -0.2729 -0.9480
 2572TIP3    H129131   4.113   0.868  11.292 -0.7422  1.3937  0.4910
 2572TIP3    H229132   4.158   0.955  11.177 -1.5235  1.5339  0.2859
 2573TIP3   OH229133   4.294   6.044  14.769 -0.2607  0.1632  0.1549
 2573TIP3    H129134   4.273   6.024  14.678  1.3939  0.0466 -0.2258
 2573TIP3    H229135   4.275   6.137  14.779  0.1699  0.3245 -0.5048
 2574TIP3   OH229136   1.454   1.655   6.941  0.7873  0.1429 -0.7118
 2574TIP3    H129137   1.395   1.634   6.869 -0.4564 -1.4261  0.6622
 2574TIP3    H229138   1.500   1.573   6.960  1.1585  0.5435  0.2198
 2575TIP3   OH229139   2.804   5.403  11.904 -0.5005  0.2222 -0.4795
 2575TIP3    H129140   2.831   5.492  11.885 -1.2341  0.7133  0.6621
 2575TIP3    H229141   2.708   5.407  11.905 -0.5321 -0.4329  0.2100
 2576TIP3   OH229142   4.565   5.730   4.183  0.0777 -0.1628  0.0273
 2576TIP3    H129143   4.506   5.717   4.109  1.2533  0.2877 -1.0139
 2576TIP3    H229144   4.509   5.764   4.253 -1.2442 -1.5765 -0.2929
 2577TIP3   OH229145   0.187   4.332   3.365  0.5030  0.7692 -0.0628
 2577TIP3    H129146   0.235   4.414   3.372 -0.1936  1.0862  1.3991
 2577TIP3    H229147   0.147   4.320   3.451 -0.2209 -0.6032 -0.5540
 2578TIP3   OH229148   6.491   0.997  13.409 -0.1612 -0.0938 -0.3773
 2578TIP3    H129149   6.489   0.935  13.482  2.5972  0.4405  0.2809
 2578TIP3    H229150   6.452   1.077  13.445 -1.3520 -0.6534 -0.3971
 2579TIP3   OH229151   6.451   2.115  14.622  0.0975  0.1236 -0.5363
 2579TIP3    H129152   6.422   2.159  14.702 -0.4783 -0.4758 -0.4061
 2579TIP3    H229153   6.370   2.094  14.575  0.2884 -1.4085 -0.2577
 2580TIP3   OH229154   6.286   3.533   4.433  0.0887  0.4236  0.4151
 2580TIP3    H129155   6.198   3.568   4.448  0.3383  1.2741 -0.0434
 2580TIP3    H229156   6.344   3.601   4.465  0.5943  0.6462 -0.9422
 2581TIP3   OH229157   6.559   0.075  13.811  0.3363  0.2730  0.3357
 2581TIP3    H129158   6.570  -0.021  13.809 -1.6285  0.0198 -0.8731
 2581TIP3    H229159   6.534   0.094  13.901  1.4180 -0.2379  0.7653
 2582TIP3   OH229160   0.615   3.342   3.737 -0.2035 -0.1039 -0.5623
 2582TIP3    H129161   0.647   3.376   3.653  0.3109 -1.8327 -1.1070
 2582TIP3    H229162   0.683   3.281   3.766 -0.2212  0.7014  1.3034
 2583TIP3   OH229163   2.550   0.032   3.552 -0.4331 -0.2348 -0.2884
 2583TIP3    H129164   2.617   0.094   3.523 -2.3833  1.5082 -1.2819
 2583TIP3    H229165   2.549   0.041   3.647 -2.5856  3.5458 -0.4846
 2584TIP3   OH229166   0.999   1.805  12.711 -0.3621  0.1771 -0.1071
 2584TIP3    H129167   0.906   1.786  12.694  0.0651 -1.3428 -1.0026
 2584TIP3    H229168   1.033   1.835  12.627 -0.2155  1.5861  0.4374
 2585TIP3   OH229169   4.405   3.700   1.123  0.1581  0.3581  0.1988
 2585TIP3    H129170   4.344   3.656   1.183  0.5388 -0.3065  0.1019
 2585TIP3    H229171   4.472   3.737   1.180  0.2414  0.1737  0.2194
 2586TIP3   OH229172   1.783   0.945  13.959 -0.3246  0.2353  0.6527
 2586TIP3    H129173   1.808   0.853  13.962  1.7512  0.6367 -1.7109
 2586TIP3    H229174   1.848   0.989  14.014  1.6312  0.7533 -1.9223
 2587TIP3   OH229175   5.332   5.468  13.623  0.3023  0.5118  0.4394
 2587TIP3    H129176   5.377   5.537  13.672  1.7615  2.1522 -2.9081
 2587TIP3    H229177   5.387   5.390  13.637  0.2260  0.7079  1.9721
 2588TIP3   OH229178   6.341   5.709   4.471  0.3545 -1.0164 -0.6138
 2588TIP3    H129179   6.280   5.780   4.490  1.2570 -0.2229 -0.5750
 2588TIP3    H229180   6.316   5.639   4.531  1.2777  0.3559  1.4978
 2589TIP3   OH229181   5.147   0.147  12.612 -0.3009  0.3558 -0.1154
 2589TIP3    H129182   5.238   0.119  12.599 -0.0385  1.5625 -1.1099
 2589TIP3    H229183   5.103   0.070  12.646  0.6029 -0.9534 -1.7883
 2590TIP3   OH229184   5.532   2.113  15.816  0.1277  0.4247 -0.0652
 2590TIP3    H129185   5.446   2.072  15.805 -0.0174  0.9947 -1.1574
 2590TIP3    H229186   5.589   2.066  15.755  0.5594  0.2082  0.4839
 2591TIP3   OH229187   3.791   1.520  11.351 -0.3432 -0.7646 -0.4843
 2591TIP3    H129188   3.862   1.460  11.375 -0.4219 -0.1745  1.3215
 2591TIP3    H229189   3.833   1.586  11.296  0.4639 -0.5335  0.3985
 2592TIP3   OH229190   5.849   2.794  14.030 -0.0412 -0.1259  0.1772
 2592TIP3    H129191   5.836   2.716  13.976 -3.6174  1.7709 -2.0278
 2592TIP3    H229192   5.935   2.780  14.071 -0.8938 -5.6601  0.8571
 2593TIP3   OH229193   2.050   1.913   5.751  0.2977 -0.2859  0.0924
 2593TIP3    H129194   1.955   1.918   5.753  0.2389 -1.1098 -0.5245
 2593TIP3    H229195   2.073   1.854   5.823  0.4690  1.3090  1.4116
 2594TIP3   OH229196   2.747   6.049  12.956  0.7425  0.2083 -0.4106
 2594TIP3    H129197   2.807   6.078  13.024 -0.3954  0.7839  0.3902
 2594TIP3    H229198   2.762   5.955  12.949 -1.0907 -0.4893  2.7995
 2595TIP3   OH229199   0.118   0.131  16.679  0.5291 -0.6776 -0.5053
 2595TIP3    H129200   0.190   0.194  16.678  0.3501 -0.4645 -0.1424
 2595TIP3    H229201   0.065   0.156  16.755  0.2587 -1.0428 -0.5714
 2596TIP3   OH229202   6.629   3.593  14.273 -0.1119  0.0573  0.1695
 2596TIP3    H129203   6.607   3.577  14.365  0.1492 -3.0013 -0.1926
 2596TIP3    H229204   6.708   3.541  14.258  1.1112  2.2161 -1.2892
 2597TIP3   OH229205   3.738   2.147   5.367 -0.0061  0.0725 -0.6653
 2597TIP3    H129206   3.759   2.183   5.454  0.9886 -0.6921 -0.5701
 2597TIP3    H229207   3.767   2.214   5.306  0.6132  0.0106 -0.4479
 2598TIP3   OH229208   0.939   2.586  13.887  0.2028 -0.0469 -0.5620
 2598TIP3    H129209   0.994   2.616  13.815  0.6339  0.5570  0.0059
 2598TIP3    H229210   0.856   2.633  13.874  1.0669  1.9915  0.6628
 2599TIP3   OH229211   0.315   6.414   5.627 -0.3001  0.7171  0.3615
 2599TIP3    H129212   0.314   6.321   5.649  2.1829  0.1154 -1.6450
 2599TIP3    H229213   0.223   6.438   5.619 -1.0151 -2.0372 -0.7616
 2600TIP3   OH229214   4.331   3.355   1.391  0.6198  0.3354  0.0747
 2600TIP3    H129215   4.338   3.320   1.302  0.4639  2.2298 -0.7264
 2600TIP3    H229216   4.253   3.314   1.428 -0.5749  1.1250 -1.4640
 2601TIP3   OH229217   3.269   0.067  11.917  0.6970  0.4170 -0.1421
 2601TIP3    H129218   3.239   0.156  11.939  2.6755  1.4424 -1.2465
 2601TIP3    H229219   3.229   0.049  11.832  1.3835  0.8732 -0.5790
 2602TIP3   OH229220   6.080   4.986  10.860 -0.7732 -0.5703  0.2988
 2602TIP3    H129221   6.003   5.033  10.892 -1.0354 -0.9794  0.2778
 2602TIP3    H229222   6.068   4.896  10.892 -1.0574 -1.0013 -0.9544
 2603TIP3   OH229223   5.495   4.261  12.123  0.3601  0.0275  0.0283
 2603TIP3    H129224   5.581   4.286  12.157  0.5364  1.3950 -1.3116
 2603TIP3    H229225   5.512   4.185  12.068  0.8653  0.7369 -0.8264
 2604TIP3   OH229226   4.102   3.836   4.116 -0.0367 -0.6226 -0.1690
 2604TIP3    H129227   4.167   3.894   4.076  0.5672  0.1020  1.7218
 2604TIP3    H229228   4.079   3.880   4.198 -1.2460 -1.9815  0.2567
 2605TIP3   OH229229   5.590   3.421  10.537 -0.2563  0.4689 -0.4406
 2605TIP3    H129230   5.596   3.364  10.460  2.2454  1.0227 -0.7295
 2605TIP3    H229231   5.573   3.362  10.610  1.5324 -0.6004 -0.8401
 2606TIP3   OH229232   2.425   0.434   4.178 -0.1749 -0.4660  0.3309
 2606TIP3    H129233   2.502   0.380   4.160 -0.1333 -0.1040 -0.6612
 2606TIP3    H229234   2.361   0.374   4.216  0.7027 -0.7038  1.4427
 2607TIP3   OH229235   3.800   3.201   5.785  0.0119 -0.4160 -0.7622
 2607TIP3    H129236   3.828   3.128   5.730  2.0155 -0.3949  0.1353
 2607TIP3    H229237   3.875   3.218   5.842 -0.5455  2.0792 -0.6692
 2608TIP3   OH229238   4.281   4.502  15.863 -0.9481  0.4586 -0.2419
 2608TIP3    H129239   4.260   4.506  15.956  1.0142 -1.8192  0.4060
 2608TIP3    H229240   4.312   4.590  15.841 -0.5547  0.8026  1.5129
 2609TIP3   OH229241   2.140   5.380  11.486 -0.5176 -0.1006 -0.8892
 2609TIP3    H129242   2.108   5.432  11.412  1.4058  0.4348 -1.3976
 2609TIP3    H229243   2.233   5.366  11.467 -0.4052 -1.5456  0.5235
 2610TIP3   OH229244   5.272   1.348   2.596 -0.0440  0.2367  0.1099
 2610TIP3    H129245   5.324   1.293   2.654  0.6080  1.8374  1.1141
 2610TIP3    H229246   5.189   1.360   2.643 -0.4260 -0.3842 -0.3953
 2611TIP3   OH229247   1.138   3.271  12.607  0.2342  0.1658 -0.0591
 2611TIP3    H129248   1.220   3.246  12.565  0.0530 -0.1464 -0.2353
 2611TIP3    H229249   1.149   3.363  12.630  1.2624 -0.2807  1.4084
 2612TIP3   OH229250   4.589   5.945  12.110 -0.1541  0.1057  0.0307
 2612TIP3    H129251   4.573   5.944  12.204  0.7796  1.0229  0.2135
 2612TIP3    H229252   4.535   6.017  12.077  2.0790  2.0307  0.3899
 2613TIP3   OH229253   4.647   6.758   5.850 -0.4682 -0.5980 -0.3555
 2613TIP3    H129254   4.697   6.711   5.784  3.2614  1.9161  0.3958
 2613TIP3    H229255   4.614   6.836   5.805 -0.0555 -0.1297  0.1406
 2614TIP3   OH229256   1.740   1.949  13.291 -0.3162  0.5129 -0.4202
 2614TIP3    H129257   1.770   2.019  13.233 -0.4539 -0.4546 -1.7149
 2614TIP3    H229258   1.693   1.889  13.233  3.5038 -3.0097 -0.3387
 2615TIP3   OH229259   6.009   5.811   0.483  0.1965 -0.0109 -0.3486
 2615TIP3    H129260   5.918   5.808   0.514 -0.1748  1.0635 -1.2501
 2615TIP3    H229261   6.062   5.807   0.563 -0.6572 -0.1532  0.2219
 2616TIP3   OH229262   1.569   2.837   5.206 -0.8132  0.3139  0.0375
 2616TIP3    H129263   1.587   2.918   5.159  0.6763 -0.1596 -0.2388
 2616TIP3    H229264   1.631   2.837   5.279 -0.9882 -0.4545  0.1928
 2617TIP3   OH229265   6.009   6.622  16.318  0.5012 -0.1948 -0.4623
 2617TIP3    H129266   5.919   6.631  16.286  1.0295  0.9933 -1.6545
 2617TIP3    H229267   6.034   6.710  16.345  0.2744 -1.0134  2.8681
 2618TIP3   OH229268   4.194   6.642  10.971  0.7967 -0.2649  0.1622
 2618TIP3    H129269   4.285   6.650  10.941  1.2416 -1.1661  1.2051
 2618TIP3    H229270   4.147   6.610  10.894  1.1889  0.9230 -0.6147
 2619TIP3   OH229271   5.749   0.034  11.978 -0.1541 -0.1646 -0.1500
 2619TIP3    H129272   5.747   0.127  11.959 -1.0579  0.0315  0.8001
 2619TIP3    H229273   5.671  -0.001  11.936 -0.1412 -0.3849  0.0069
 2620TIP3   OH229274   5.381   0.412  15.354 -0.2470 -0.6157  0.0367
 2620TIP3    H129275   5.422   0.428  15.269 -0.3309 -1.1357 -0.1075
 2620TIP3    H229276   5.329   0.490  15.372 -0.0709 -0.4224 -0.2966
 2621TIP3   OH229277   2.370   5.614  15.801  0.0549 -0.2424 -0.1371
 2621TIP3    H129278   2.427   5.599  15.726  0.1286  0.4050 -0.2178
 2621TIP3    H229279   2.426   5.601  15.877  1.5495  4.2713 -0.1373
 2622TIP3   OH229280   6.383   3.492   5.423  0.2314  0.0972 -0.1635
 2622TIP3    H129281   6.457   3.523   5.476 -0.8300  1.4412  0.5855
 2622TIP3    H229282   6.392   3.397   5.424  2.7723  0.2301 -1.3116
 2623TIP3   OH229283   2.545   3.074   1.214  0.3423  0.1079 -0.4587
 2623TIP3    H129284   2.514   2.984   1.221  0.0990 -0.0610 -2.8047
 2623TIP3    H229285   2.587   3.092   1.298 -2.4355 -1.0452  1.3273
 2624TIP3   OH229286   3.073   4.117   4.178  0.0405  0.3444 -0.9917
 2624TIP3    H129287   3.125   4.183   4.132  0.6543  0.4935 -0.1014
 2624TIP3    H229288   3.134   4.046   4.196 -0.5613 -0.3781 -1.7361
 2625TIP3   OH229289   5.743   3.784   0.619 -0.0120 -0.7072 -0.0687
 2625TIP3    H129290   5.696   3.719   0.566 -0.7745 -0.1068 -0.1441
 2625TIP3    H229291   5.759   3.740   0.703 -0.8663 -0.8751  0.0174
 2626TIP3   OH229292   0.476   1.686   1.726  0.0292  0.6171  0.2583
 2626TIP3    H129293   0.414   1.634   1.675 -1.0548  2.3485 -0.2878
 2626TIP3    H229294   0.559   1.679   1.679 -0.4189  0.4028 -0.5155
 2627TIP3   OH229295   4.958   0.078   1.448  0.3064 -0.7337  0.1175
 2627TIP3    H129296   4.971   0.105   1.538  0.1430 -0.0231 -0.0643
 2627TIP3    H229297   4.893   0.007   1.453 -0.6969  0.1732  0.4620
 2628TIP3   OH229298   2.167   6.589   5.969  0.0906 -0.1909  0.4707
 2628TIP3    H129299   2.144   6.682   5.969 -1.8943 -0.6372 -0.3159
 2628TIP3    H229300   2.236   6.581   6.035  0.4558  1.8678  0.3816
 2629TIP3   OH229301   4.218   3.638   3.494  0.2558 -0.2427  0.4396
 2629TIP3    H129302   4.220   3.547   3.465  1.0199 -0.3745  0.8681
 2629TIP3    H229303   4.310   3.666   3.488  0.4991 -0.3337  2.8946
 2630TIP3   OH229304   2.736   2.754   2.241 -0.0481  0.0490 -0.4682
 2630TIP3    H129305   2.793   2.825   2.212  1.5029 -0.8326  0.2311
 2630TIP3    H229306   2.795   2.694   2.287 -1.6389 -0.7431  0.6360
 2631TIP3   OH229307   4.049   2.721  14.582 -0.3814 -0.1248 -0.3428
 2631TIP3    H129308   4.104   2.648  14.553 -0.4038 -0.6716  0.9166
 2631TIP3    H229309   4.008   2.753  14.502  0.3426 -0.9042 -1.0490
 2632TIP3   OH229310   3.841   4.323   1.922 -0.4505 -0.2783  0.0899
 2632TIP3    H129311   3.930   4.331   1.957 -0.3644  1.3301 -0.4322
 2632TIP3    H229312   3.784   4.355   1.992 -0.6676 -1.5279  0.5137
 2633TIP3   OH229313   6.087   0.006   1.987  0.0637  0.2421 -1.0470
 2633TIP3    H129314   6.003   0.033   1.948  0.8009  2.0392 -1.4722
 2633TIP3    H229315   6.151   0.069   1.953  1.5644 -0.9658 -0.5595
 2634TIP3   OH229316   1.881   3.862  14.713 -0.2353 -0.1808  0.0642
 2634TIP3    H129317   1.933   3.797  14.760 -1.8939 -0.8043  1.1337
 2634TIP3    H229318   1.853   3.923  14.781 -2.2709 -0.8225 -0.1215
 2635TIP3   OH229319   0.475   1.473  17.010  0.8301 -0.4727 -0.2426
 2635TIP3    H129320   0.380   1.462  17.015  1.0819 -2.1645  2.8382
 2635TIP3    H229321   0.507   1.389  16.978  1.3709  0.0033 -0.9995
 2636TIP3   OH229322   5.752   1.091  17.246  0.2588  0.5147  0.0224
 2636TIP3    H129323   5.721   1.128  17.328  0.4813 -1.9643  1.3197
 2636TIP3    H229324   5.844   1.068  17.262  1.0480  2.1191 -1.7470
 2637TIP3   OH229325   5.697   0.625  15.294 -0.2761 -0.2145 -0.2767
 2637TIP3    H129326   5.611   0.647  15.331  0.0598  0.9431 -0.1341
 2637TIP3    H229327   5.737   0.569  15.359  0.3116  1.8020  1.2096
 2638TIP3   OH229328   1.814   5.105   6.275  0.4680 -0.0187  0.3402
 2638TIP3    H129329   1.881   5.172   6.289  2.2531 -1.6430 -0.0421
 2638TIP3    H229330   1.779   5.088   6.363  0.3912  0.9978  0.5179
 2639TIP3   OH229331   4.958   3.660   2.419 -0.3676 -0.0435 -0.1860
 2639TIP3    H129332   5.010   3.709   2.483 -0.6700 -1.7448  1.4494
 2639TIP3    H229333   4.998   3.681   2.335  1.9751 -0.0373  0.8476
 2640TIP3   OH229334   2.227   0.492  13.912  0.2166  0.2855 -0.1696
 2640TIP3    H129335   2.259   0.518  13.998  0.4338  0.8767 -0.4248
 2640TIP3    H229336   2.197   0.402  13.923 -1.6792  0.9940  1.0444
 2641TIP3   OH229337   0.143   5.093   1.916  0.2362 -0.1167 -0.2195
 2641TIP3    H129338   0.121   5.075   1.825  0.6588  1.8362 -0.7568
 2641TIP3    H229339   0.200   5.170   1.912 -0.9677  0.9670  1.7760
 2642TIP3   OH229340   3.538   4.163   2.921  0.0419  0.3487 -0.6026
 2642TIP3    H129341   3.512   4.226   2.854 -0.9161 -0.6957 -1.2423
 2642TIP3    H229342   3.592   4.099   2.875 -0.6163 -0.3715 -0.3882
 2643TIP3   OH229343   0.190   3.329  15.442 -0.7446  0.3998  0.2795
 2643TIP3    H129344   0.215   3.413  15.481 -1.3471  0.3566  0.7712
 2643TIP3    H229345   0.234   3.263  15.496 -1.2092  0.3571  0.6075
 2644TIP3   OH229346   1.702   2.323   3.194  0.4478 -0.1985 -0.1602
 2644TIP3    H129347   1.751   2.327   3.276 -0.4670  0.0715  0.3934
 2644TIP3    H229348   1.660   2.238   3.195 -1.0936  0.5328  0.5857
 2645TIP3   OH229349   1.470   5.231   1.130  0.0633 -0.1737 -0.6082
 2645TIP3    H129350   1.453   5.169   1.201 -1.8838  0.1458 -0.7541
 2645TIP3    H229351   1.431   5.191   1.053  0.9069  0.1457 -1.2229
 2646TIP3   OH229352   0.770   4.327  14.374 -0.1886  0.6029  0.1326
 2646TIP3    H129353   0.717   4.274  14.314  0.2917 -0.7571  0.8963
 2646TIP3    H229354   0.705   4.374  14.427 -0.6387 -0.1300  0.2462
 2647TIP3   OH229355   1.400   0.771  13.038 -0.0061 -0.3157  0.1899
 2647TIP3    H129356   1.428   0.693  13.084  0.4831  0.0035  0.4391
 2647TIP3    H229357   1.390   0.838  13.106  1.4080  0.3589 -0.2244
 2648TIP3   OH229358   2.566   5.674  11.792 -0.6524 -0.3959  0.0433
 2648TIP3    H129359   2.599   5.715  11.872  1.0163  1.9116 -1.6934
 2648TIP3    H229360   2.635   5.613  11.766 -0.5630 -0.1541 -0.3039
 2649TIP3   OH229361   4.015   5.181  13.966  0.2566 -0.2280  0.0034
 2649TIP3    H129362   3.985   5.268  13.992  0.2889  0.0828 -0.9737
 2649TIP3    H229363   3.954   5.121  14.009 -0.5621  0.3243 -0.3558
 2650TIP3   OH229364   2.161   1.471  13.590  0.2369 -0.3131  0.3142
 2650TIP3    H129365   2.122   1.452  13.675  0.9099 -0.4347  0.5976
 2650TIP3    H229366   2.253   1.488  13.609  0.9066 -2.5507 -0.6538
 2651TIP3   OH229367   5.102   5.512   3.426  0.0110  0.0596  0.5684
 2651TIP3    H129368   5.010   5.492   3.405 -0.3164  0.6784  1.3881
 2651TIP3    H229369   5.119   5.463   3.506  0.4215 -0.0892  0.3929
 2652TIP3   OH229370   3.043   2.488   1.581  0.8971  0.4494  0.0784
 2652TIP3    H129371   3.079   2.570   1.614 -0.1664  0.2132  1.9200
 2652TIP3    H229372   2.954   2.484   1.616 -0.5585  0.3784 -3.2425
 2653TIP3   OH229373   5.258   5.243   5.102  0.1134 -0.5395  0.2537
 2653TIP3    H129374   5.270   5.157   5.142  2.2689 -0.2026  0.4086
 2653TIP3    H229375   5.305   5.304   5.159  1.9031  0.1896 -1.8427
 2654TIP3   OH229376   3.085   2.979  16.625 -0.4683 -0.5012  0.0432
 2654TIP3    H129377   3.172   3.020  16.632  0.0879 -1.8096  1.8710
 2654TIP3    H229378   3.026   3.051  16.605  1.1676  0.2413 -2.5668
 2655TIP3   OH229379   3.178   1.821   3.507  0.2273  0.4317  0.2322
 2655TIP3    H129380   3.219   1.761   3.570 -0.0460  0.1369  0.1324
 2655TIP3    H229381   3.235   1.818   3.430 -0.2841 -0.4293 -0.1281
 2656TIP3   OH229382   3.026   0.749  13.990 -0.0505 -0.2384 -0.5151
 2656TIP3    H129383   2.938   0.717  14.013  0.2618 -0.0962  0.9827
 2656TIP3    H229384   3.033   0.833  14.035  0.5315  0.1691 -1.3557
 2657TIP3   OH229385   5.904   6.593  12.025  0.3210 -0.4617 -0.3946
 2657TIP3    H129386   5.849   6.671  12.020  0.9602  0.0920  0.6292
 2657TIP3    H229387   5.895   6.550  11.940 -1.4741 -0.2568 -0.3320
 2658TIP3   OH229388   4.172   4.127   3.959  0.7666  0.6500 -0.6906
 2658TIP3    H129389   4.206   4.216   3.949  0.7127  0.6919 -0.5067
 2658TIP3    H229390   4.091   4.126   3.908  0.1870  1.0344  0.2041
 2659TIP3   OH229391   3.606   0.065   2.798  0.4573 -0.2405  0.0476
 2659TIP3    H129392   3.604   0.132   2.731  0.4900 -0.5970 -0.3165
 2659TIP3    H229393   3.531   0.084   2.855 -1.4224 -1.6588 -1.7918
 2660TIP3   OH229394   4.062   0.045  14.258  0.3235 -0.4035 -0.1975
 2660TIP3    H129395   4.038  -0.042  14.290 -2.2909  0.0552 -0.6443
 2660TIP3    H229396   3.980   0.095  14.263  1.4698  1.6654 -1.1079
 2661TIP3   OH229397   1.386   0.318  12.673  0.4068 -1.2818 -0.2420
 2661TIP3    H129398   1.458   0.265  12.640  0.4677 -1.5163  0.2592
 2661TIP3    H229399   1.327   0.329  12.597 -0.0297 -2.7788 -0.1392
 2662TIP3   OH229400   2.530   4.491   5.906 -0.0423 -0.2455 -0.5753
 2662TIP3    H129401   2.509   4.471   5.815 -0.2643  2.1164 -1.1205
 2662TIP3    H229402   2.618   4.530   5.902  0.9982 -2.2842  0.5887
 2663TIP3   OH229403   2.248   0.229  14.382 -0.6013 -0.1903 -0.1790
 2663TIP3    H129404   2.179   0.268  14.329  0.1937  2.0284  0.2936
 2663TIP3    H229405   2.215   0.142  14.406 -4.2562  1.5525  1.8951
 2664TIP3   OH229406   2.701   3.101   2.282  0.1326  0.2987 -0.4887
 2664TIP3    H129407   2.634   3.163   2.251  2.1035  2.7466 -0.1211
 2664TIP3    H229408   2.694   3.104   2.377  1.1226  1.0165 -0.4304
 2665TIP3   OH229409   1.941   3.015  15.768 -0.2117  0.0733 -0.0493
 2665TIP3    H129410   1.907   3.042  15.854 -0.6154 -1.3255  0.2608
 2665TIP3    H229411   1.896   2.932  15.750  1.7830 -0.9766 -0.4290
 2666TIP3   OH229412   3.739   6.256  16.652  0.1634 -0.1899 -0.3014
 2666TIP3    H129413   3.757   6.274  16.559  1.5433  1.8135  0.2913
 2666TIP3    H229414   3.669   6.191  16.650  1.9723 -2.3233 -2.7830
 2667TIP3   OH229415   5.821   3.533   2.497 -0.2510 -0.5772 -0.0936
 2667TIP3    H129416   5.777   3.607   2.455 -0.0303  0.1691  0.9407
 2667TIP3    H229417   5.873   3.573   2.567 -0.4418 -1.7490  0.7386
 2668TIP3   OH229418   6.485   6.389  16.841  0.2098 -0.3964  0.0863
 2668TIP3    H129419   6.547   6.456  16.812 -0.3491 -0.7175 -2.0049
 2668TIP3    H229420   6.456   6.346  16.761 -0.5253 -2.2219  1.2474
 2669TIP3   OH229421   2.700   0.110  11.730  0.0820 -0.4813 -0.1134
 2669TIP3    H129422   2.762   0.100  11.658  0.0814  1.5519 -0.4498
 2669TIP3    H229423   2.679   0.203  11.731 -1.3243 -0.7708  1.3720
 2670TIP3   OH229424   0.842   5.457   2.616  0.3379 -0.4616 -0.1388
 2670TIP3    H129425   0.834   5.411   2.532  1.2124 -2.6724  0.8960
 2670TIP3    H229426   0.920   5.419   2.657  0.6692  1.4657  1.1622
 2671TIP3   OH229427   1.445   3.003   5.554  0.3428 -0.7013  0.8743
 2671TIP3    H129428   1.445   3.090   5.514 -0.9963 -0.9854  0.2243
 2671TIP3    H229429   1.482   3.017   5.641 -1.8338  0.9432  1.6199
 2672TIP3   OH229430   4.605   1.317   2.394  0.7036 -0.3690 -0.3069
 2672TIP3    H129431   4.655   1.321   2.313  0.1655  1.8681 -0.5743
 2672TIP3    H229432   4.515   1.332   2.367  0.3814 -0.5759  0.6151
 2673TIP3   OH229433   0.037   4.875  12.892 -0.7070 -0.1377 -0.3541
 2673TIP3    H129434   0.038   4.908  12.982  1.5187 -1.7711  0.3003
 2673TIP3    H229435   0.125   4.891  12.859 -0.5415 -2.3230 -1.1424
 2674TIP3   OH229436   3.504   3.895  12.927 -0.0758  0.1096  0.9000
 2674TIP3    H129437   3.502   3.805  12.893  0.0094 -0.0705  1.3646
 2674TIP3    H229438   3.582   3.897  12.983  1.1849  1.0880 -0.7928
 2675TIP3   OH229439   0.826   3.399  16.830  0.2036  0.3528 -0.3472
 2675TIP3    H129440   0.845   3.350  16.750  2.2506  2.9075 -1.5729
 2675TIP3    H229441   0.905   3.389  16.883  0.3642  1.7018 -0.3096
 2676TIP3   OH229442   6.036   3.169   0.144 -0.1033  0.3565  0.4759
 2676TIP3    H129443   5.985   3.119   0.208  0.2045  1.5986  1.7501
 2676TIP3    H229444   6.060   3.105   0.077  0.7242 -1.3301  2.2937
 2677TIP3   OH229445   4.420   1.218   0.947 -0.0431  1.1970 -0.2017
 2677TIP3    H129446   4.455   1.243   0.861  0.4982  2.2711  0.3102
 2677TIP3    H229447   4.446   1.127   0.958  0.2899  1.1910 -0.9690
 2678TIP3   OH229448   4.252   2.001  12.075  0.6737  0.1229  0.1533
 2678TIP3    H129449   4.311   2.013  12.150 -1.0268 -1.2542  1.8228
 2678TIP3    H229450   4.270   1.913  12.044  0.7747  0.3811 -0.5396
 2679TIP3   OH229451   1.727   1.073   5.838 -0.0065  0.0650 -0.1942
 2679TIP3    H129452   1.810   1.067   5.885 -0.2351 -0.5540  0.1437
 2679TIP3    H229453   1.742   1.139   5.771  1.2007 -0.9815 -1.0040
 2680TIP3   OH229454   3.945   0.785  13.914  0.0732 -0.1946 -0.3272
 2680TIP3    H129455   4.029   0.751  13.883 -0.1931 -0.3671 -0.8626
 2680TIP3    H229456   3.961   0.878  13.928  0.1366 -0.0719 -1.1933
 2681TIP3   OH229457   4.627   5.420   0.877 -0.0026 -0.2280 -0.0362
 2681TIP3    H129458   4.585   5.355   0.819 -0.4850  1.8563 -2.1889
 2681TIP3    H229459   4.565   5.429   0.950 -0.9608 -0.6705 -0.7589
 2682TIP3   OH229460   4.562   5.253   5.337 -0.2304 -0.2993 -0.4787
 2682TIP3    H129461   4.559   5.158   5.347  0.7713 -0.2367  0.5700
 2682TIP3    H229462   4.508   5.271   5.259  0.4898 -1.8118 -1.3619
 2683TIP3   OH229463   4.772   4.885  14.588 -0.5031  0.6854  0.5379
 2683TIP3    H129464   4.776   4.798  14.547 -1.5843  0.3536  1.0894
 2683TIP3    H229465   4.810   4.944  14.524  1.6709 -0.3883  0.7464
 2684TIP3   OH229466   2.149   3.370  12.564 -0.0304  0.7218  0.3481
 2684TIP3    H129467   2.072   3.373  12.620 -0.5487  1.7741 -0.4075
 2684TIP3    H229468   2.115   3.376  12.475  0.9578  1.8118  0.0264
 2685TIP3   OH229469   6.507   4.188  15.662 -0.4726  0.1804 -0.1762
 2685TIP3    H129470   6.548   4.188  15.576 -0.6495  1.1914 -0.2760
 2685TIP3    H229471   6.421   4.228  15.648  0.1533  1.9222  0.7466
 2686TIP3   OH229472   0.003   6.686   4.024  0.0019 -0.5515  0.1692
 2686TIP3    H129473  -0.075   6.728   4.060 -0.7863 -1.4677 -0.4081
 2686TIP3    H229474  -0.031   6.610   3.978  1.0627 -0.0038 -1.6035
 2687TIP3   OH229475   1.434   6.616   3.346 -0.1146  0.4603 -0.5273
 2687TIP3    H129476   1.470   6.610   3.434 -0.4782 -0.3482 -0.4295
 2687TIP3    H229477   1.440   6.528   3.310  2.3985  1.2280 -2.3038
 2688TIP3   OH229478   4.644   2.253  14.370  0.7221  0.4161 -0.2440
 2688TIP3    H129479   4.598   2.332  14.342 -0.8288 -1.1520 -2.3978
 2688TIP3    H229480   4.644   2.197  14.293  0.9267 -2.0773  1.4732
 2689TIP3   OH229481   5.058   4.405  12.115  0.0944  0.1451  0.6442
 2689TIP3    H129482   5.112   4.357  12.053  1.0982  1.3323  0.5447
 2689TIP3    H229483   5.092   4.495  12.112 -0.2649  0.3841  2.4070
 2690TIP3   OH229484   3.317   2.698   2.345 -0.0306 -0.2239  0.3027
 2690TIP3    H129485   3.285   2.646   2.271  2.1052  0.1765 -0.9969
 2690TIP3    H229486   3.372   2.638   2.395  0.1596  0.0473  0.4197
 2691TIP3   OH229487   2.475   4.388   4.098  0.2141 -0.3536 -0.6557
 2691TIP3    H129488   2.523   4.346   4.170 -0.3621 -1.7627 -1.0695
 2691TIP3    H229489   2.386   4.354   4.104  0.8750 -3.2788 -4.0206
 2692TIP3   OH229490   5.544   2.669   4.646  0.4842 -0.1974 -0.4635
 2692TIP3    H129491   5.517   2.655   4.737  0.9720 -0.6979 -0.3886
 2692TIP3    H229492   5.503   2.752   4.621  0.5308  0.0574  0.2851
 2693TIP3   OH229493   4.515   0.193  15.436 -0.5162 -0.0124 -0.3945
 2693TIP3    H129494   4.430   0.152  15.453 -0.1971 -0.0335  1.2630
 2693TIP3    H229495   4.510   0.278  15.478 -0.1291  0.4901 -1.3374
 2694TIP3   OH229496   2.788   6.288  13.514  0.0619  0.8879 -0.0829
 2694TIP3    H129497   2.871   6.336  13.516  0.2616  0.5833 -0.7236
 2694TIP3    H229498   2.813   6.197  13.530 -0.2268  0.8925  0.3937
 2695TIP3   OH229499   6.240   6.025  16.820  0.1289 -0.1293 -0.0340
 2695TIP3    H129500   6.228   6.087  16.893 -1.8683  1.3406 -1.5049
 2695TIP3    H229501   6.154   5.986  16.807  0.2287  0.2429 -2.0984
 2696TIP3   OH229502   3.364   3.646   3.264  0.3051 -0.5104  0.2273
 2696TIP3    H129503   3.299   3.619   3.329 -0.9721  2.8579  0.5314
 2696TIP3    H229504   3.448   3.630   3.306 -0.4809  0.8501  2.4484
 2697TIP3   OH229505   3.851   0.359   3.494  0.7860 -0.3226  0.2704
 2697TIP3    H129506   3.824   0.443   3.531 -2.5698  0.4847 -3.3316
 2697TIP3    H229507   3.783   0.297   3.523 -1.1887  0.0667 -3.0606
 2698TIP3   OH229508   3.347   4.863   5.960  0.5010  1.2211 -0.3483
 2698TIP3    H129509   3.371   4.912   6.039  0.3879  0.8787 -0.0976
 2698TIP3    H229510   3.429   4.855   5.911  0.9887 -0.1584  0.6218
 2699TIP3   OH229511   2.803   5.459  13.253  0.4054 -0.5063  0.2801
 2699TIP3    H129512   2.835   5.531  13.308  1.0872  0.1282 -0.8945
 2699TIP3    H229513   2.820   5.380  13.304  1.0369  0.0621  0.9743
 2700TIP3   OH229514   4.109   4.660   2.314 -0.1659 -0.4031 -0.3026
 2700TIP3    H129515   4.101   4.665   2.219 -1.3500  0.4615 -0.1885
 2700TIP3    H229516   4.168   4.586   2.330 -0.5075 -1.0047 -1.6825
 2701TIP3   OH229517   5.074   2.198  16.486 -0.0511 -0.0930  0.2373
 2701TIP3    H129518   5.003   2.168  16.543 -0.9126 -1.1340 -1.3076
 2701TIP3    H229519   5.044   2.177  16.398  2.0435 -0.2074 -0.4939
 2702TIP3   OH229520   5.228   1.199  13.107 -0.0366  0.0307 -0.0297
 2702TIP3    H129521   5.239   1.104  13.098 -1.6710 -0.1487 -0.2993
 2702TIP3    H229522   5.141   1.210  13.144 -0.7408  1.4880 -1.9759
 2703TIP3   OH229523   5.793   0.684  14.552 -0.3106 -0.4061  1.0237
 2703TIP3    H129524   5.798   0.773  14.586  0.5224  0.0785 -0.2834
 2703TIP3    H229525   5.875   0.643  14.580 -0.1863 -0.4007  0.6680
 2704TIP3   OH229526   5.060   2.486  16.257  0.1502 -0.0410 -0.0879
 2704TIP3    H129527   4.973   2.517  16.280  0.3305 -1.7587  3.6198
 2704TIP3    H229528   5.046   2.430  16.180 -2.0971 -0.4886  0.5694
 2705TIP3   OH229529   2.819   3.970  17.243 -0.1123 -0.4639 -0.0100
 2705TIP3    H129530   2.854   3.921  17.169  0.0140  0.3390 -0.4983
 2705TIP3    H229531   2.724   3.964  17.233 -0.0991 -0.7121  0.0072
 2706TIP3   OH229532   6.200   1.216  14.387  0.2355 -0.0714  0.5306
 2706TIP3    H129533   6.166   1.155  14.453 -0.5231  0.7943  0.9750
 2706TIP3    H229534   6.123   1.268  14.362  0.0159 -1.6443 -2.5153
 2707TIP3   OH229535   3.446   3.852  15.345 -1.0654  0.3349  0.0962
 2707TIP3    H129536   3.415   3.762  15.351  1.9805 -0.9138 -1.1810
 2707TIP3    H229537   3.400   3.887  15.268 -1.8204 -0.3280  0.2345
 2708TIP3   OH229538   6.261   6.307   4.432  0.5794 -0.2130  0.9937
 2708TIP3    H129539   6.196   6.362   4.389  1.4774  1.7360  2.0041
 2708TIP3    H229540   6.318   6.278   4.361  0.3774  0.5983  0.4839
 2709TIP3   OH229541   6.514   5.556  12.169  0.1074  0.5484  0.0111
 2709TIP3    H129542   6.498   5.547  12.263  0.4758  0.1473  0.0379
 2709TIP3    H229543   6.582   5.623  12.163 -0.0805  0.7406  0.0158
 2710TIP3   OH229544   4.898   1.994  14.552  0.8605 -0.1303  0.3558
 2710TIP3    H129545   4.852   1.955  14.478  0.9159 -0.1383  0.3256
 2710TIP3    H229546   4.872   2.087  14.550  0.0417 -0.3437  0.9490
 2711TIP3   OH229547   1.221   4.351  14.958  0.1532  0.0605 -0.4022
 2711TIP3    H129548   1.157   4.362  15.027  1.1953 -0.3373  0.6631
 2711TIP3    H229549   1.239   4.440  14.926  2.1880  0.7191  2.2355
 2712TIP3   OH229550   4.465   4.083   0.774  0.2838 -0.0947  0.2116
 2712TIP3    H129551   4.410   4.105   0.699 -1.9180 -0.3135  1.6558
 2712TIP3    H229552   4.448   4.153   0.837  0.2923 -1.0889  1.3635
 2713TIP3   OH229553   6.655   2.434  14.586 -0.8508  0.5390 -0.0694
 2713TIP3    H129554   6.574   2.384  14.591  0.0549 -1.0020 -0.2522
 2713TIP3    H229555   6.718   2.385  14.639  0.1262  1.3729 -0.4078
 2714TIP3   OH229556   0.072   6.105   3.361  0.0011 -0.0092  0.1460
 2714TIP3    H129557   0.034   6.047   3.427  2.1072 -3.7896 -1.6226
 2714TIP3    H229558  -0.002   6.134   3.309 -1.1713 -0.9313  1.2381
 2715TIP3   OH229559   1.700   5.383   0.750  0.0229 -0.2059 -0.9443
 2715TIP3    H129560   1.749   5.319   0.698  0.4889 -0.0210 -0.7364
 2715TIP3    H229561   1.767   5.441   0.786 -0.2737 -0.4153 -0.0119
 2716TIP3   OH229562   2.505   0.809   1.850  0.2069 -0.1440 -0.5331
 2716TIP3    H129563   2.531   0.893   1.812  0.8126  0.8422  1.8778
 2716TIP3    H229564   2.567   0.746   1.813  0.4202  0.6229 -1.5445
 2717TIP3   OH229565   2.660   5.019  16.873 -0.7222 -0.5079 -0.9795
 2717TIP3    H129566   2.671   5.113  16.859  0.0442 -0.7837 -2.3526
 2717TIP3    H229567   2.652   4.982  16.785 -0.0950 -1.8354 -0.5051
 2718TIP3   OH229568   3.114   4.120  12.962  0.0906 -0.3176 -0.8951
 2718TIP3    H129569   3.058   4.082  12.894  0.0767 -1.1073 -0.4542
 2718TIP3    H229570   3.158   4.045  13.002 -1.7423 -0.1773  1.6251
 2719TIP3   OH229571   3.678   5.213  11.298  0.1001  0.1863 -0.1452
 2719TIP3    H129572   3.695   5.220  11.204 -1.0119  0.1289 -0.3657
 2719TIP3    H229573   3.751   5.258  11.339  0.0942  1.0831 -1.0764
 2720TIP3   OH229574   6.375   3.992   4.629 -0.0656  0.0152  0.3934
 2720TIP3    H129575   6.284   3.969   4.647  0.3221 -2.2050 -0.1674
 2720TIP3    H229576   6.414   4.004   4.716  0.0002 -3.0632  0.8838
 2721TIP3   OH229577   2.007   2.299   5.527 -1.0355 -0.0554 -0.4843
 2721TIP3    H129578   2.048   2.242   5.462 -0.2195 -1.0647  0.8477
 2721TIP3    H229579   1.930   2.249   5.557 -0.8021 -0.0892  0.0738
 2722TIP3   OH229580   2.517   6.005   0.238 -0.2475 -0.0674  0.1300
 2722TIP3    H129581   2.563   6.033   0.318 -0.9450  1.1161  0.1384
 2722TIP3    H229582   2.586   6.001   0.172  0.2684 -0.6530  0.6863
 2723TIP3   OH229583   6.021   4.642  12.014 -0.2230 -0.0359 -0.0056
 2723TIP3    H129584   6.043   4.600  12.097 -0.3318  0.3534  0.2214
 2723TIP3    H229585   6.052   4.580  11.947  3.0270  1.1408  0.2254
 2724TIP3   OH229586   5.541   2.262  12.640  0.0269 -0.3208 -0.1412
 2724TIP3    H129587   5.592   2.199  12.588  0.3464 -0.9994  0.9689
 2724TIP3    H229588   5.489   2.310  12.575 -0.5787 -2.0331 -0.9800
 2725TIP3   OH229589   5.629   5.291   5.335  0.4478 -0.3878 -0.4051
 2725TIP3    H129590   5.693   5.338   5.389  0.9496  0.6270 -1.8362
 2725TIP3    H229591   5.643   5.324   5.247 -2.9296  0.8612 -0.6167
 2726TIP3   OH229592   0.054   5.738  13.790 -0.5157 -0.1457 -0.6368
 2726TIP3    H129593  -0.003   5.813  13.805 -1.4117 -0.7820 -0.7741
 2726TIP3    H229594   0.007   5.664  13.827  2.0618 -0.1788  3.1928
 2727TIP3   OH229595   5.443   5.857   0.648  0.0140 -0.0346 -0.7865
 2727TIP3    H129596   5.428   5.951   0.659  0.3318  0.0429 -0.9996
 2727TIP3    H229597   5.368   5.827   0.597  0.9677  0.5081 -2.5930
 2728TIP3   OH229598   5.458   5.813   4.568  0.2664  0.1555  0.5874
 2728TIP3    H129599   5.497   5.773   4.646  4.0768  0.6710 -0.8191
 2728TIP3    H229600   5.463   5.746   4.501  2.4004  1.3587 -0.5816
 2729TIP3   OH229601   1.768   1.708   2.582 -0.1678 -0.4976  0.0415
 2729TIP3    H129602   1.680   1.740   2.602  0.1439  0.7920 -0.5008
 2729TIP3    H229603   1.757   1.656   2.503 -0.6925 -1.7970  0.9438
 2730TIP3   OH229604   0.594   2.512   4.060  0.5392  0.1667  0.0112
 2730TIP3    H129605   0.690   2.519   4.066  0.5650  0.2678 -0.4871
 2730TIP3    H229606   0.566   2.594   4.021  0.3385 -0.2468 -0.7250
 2731TIP3   OH229607   4.416   4.257   4.664  0.0045 -0.2120 -0.6307
 2731TIP3    H129608   4.458   4.197   4.725 -1.3855 -0.2983  0.2932
 2731TIP3    H229609   4.488   4.311   4.631  0.9727 -0.9852  0.1270
 2732TIP3   OH229610   6.352   1.589  12.056  0.0136  0.5458 -0.0968
 2732TIP3    H129611   6.425   1.561  12.001  0.0707  0.8401 -0.1688
 2732TIP3    H229612   6.382   1.573  12.146 -0.1428 -0.0896 -0.1528
 2733TIP3   OH229613   6.436   3.693  14.110  0.8522  0.2774 -0.3610
 2733TIP3    H129614   6.525   3.678  14.142  0.5445  0.7903  0.7979
 2733TIP3    H229615   6.380   3.652  14.176  0.2274 -0.2886 -1.2222
 2734TIP3   OH229616   2.809   0.387  12.250  0.4137 -0.1785  0.3368
 2734TIP3    H129617   2.763   0.421  12.173  0.4248 -0.2066  0.3172
 2734TIP3    H229618   2.817   0.462  12.308 -0.1180 -0.2993  0.5644
 2735TIP3   OH229619   0.794   6.704   6.704  0.2476 -0.2408 -0.2385
 2735TIP3    H129620   0.754   6.787   6.676 -0.0900 -0.3911 -0.2034
 2735TIP3    H229621   0.828   6.666   6.623 -0.4299 -0.5142 -0.3969
 2736TIP3   OH229622   2.155   4.850  13.460 -1.1472 -0.6126  0.4401
 2736TIP3    H129623   2.183   4.787  13.393 -0.8766 -1.7419  1.5804
 2736TIP3    H229624   2.073   4.886  13.426  0.7896  1.6960 -2.2901
 2737TIP3   OH229625   0.880   5.678   1.147  0.4268 -0.0178  0.0001
 2737TIP3    H129626   0.946   5.636   1.202  2.3209  2.9999  0.2312
 2737TIP3    H229627   0.874   5.767   1.180 -2.2260  0.4507 -1.4450
 2738TIP3   OH229628   5.089   3.644   5.341  0.0852  0.3254  0.2966
 2738TIP3    H129629   5.052   3.728   5.315 -0.4504  0.5527  1.7245
 2738TIP3    H229630   5.172   3.666   5.382 -0.5000  0.2612  1.5436
 2739TIP3   OH229631   0.238   3.067  12.837  0.3679 -0.2579 -0.0094
 2739TIP3    H129632   0.158   3.015  12.850  0.0288  0.0217 -0.8833
 2739TIP3    H229633   0.212   3.134  12.773  1.3992 -0.3865 -0.5802
 2740TIP3   OH229634   0.915   4.206  13.981 -0.4596 -0.4385  0.0937
 2740TIP3    H129635   1.005   4.228  13.954 -0.1217  0.4548  1.7686
 2740TIP3    H229636   0.914   4.111  13.985  1.0741 -0.4658  1.8901
 2741TIP3   OH229637   0.733   0.739  12.051  0.2913  0.5383  0.6745
 2741TIP3    H129638   0.685   0.702  12.125  1.6124 -1.4147  0.6180
 2741TIP3    H229639   0.667   0.751  11.983 -0.4990  0.0362  1.3391
 2742TIP3   OH229640   3.635   0.538  15.575 -0.4032 -0.8875 -0.5211
 2742TIP3    H129641   3.625   0.445  15.554  0.9862 -1.0849 -0.3919
 2742TIP3    H229642   3.711   0.542  15.633  0.8709  0.5294 -2.1883
 2743TIP3   OH229643   6.131   1.457  10.679  0.3342  0.3415  0.0091
 2743TIP3    H129644   6.163   1.430  10.765  0.4240  1.6104  0.3935
 2743TIP3    H229645   6.132   1.553  10.682  0.0842  0.4024 -1.3143
 2744TIP3   OH229646   0.663   3.894  15.592 -0.2324 -0.1705  0.2495
 2744TIP3    H129647   0.621   3.976  15.618  1.0077 -0.2173  2.6727
 2744TIP3    H229648   0.731   3.922  15.529 -0.9947  0.4094 -0.3375
 2745TIP3   OH229649   1.753   6.148  11.806  0.1932 -0.3948  0.3955
 2745TIP3    H129650   1.703   6.067  11.799 -2.9587  1.4213  0.1285
 2745TIP3    H229651   1.738   6.194  11.723  1.7278  0.5943  0.6161
 2746TIP3   OH229652   6.226   1.094   0.602 -0.6637 -0.5301  0.2541
 2746TIP3    H129653   6.276   1.013   0.614  0.7790  0.3548  0.4614
 2746TIP3    H229654   6.139   1.073   0.634  0.0174 -1.6462  1.4963
 2747TIP3   OH229655   0.557   2.997   0.554  0.8132 -0.5699 -0.6240
 2747TIP3    H129656   0.629   2.935   0.545  0.8709 -0.4513 -0.9924
 2747TIP3    H229657   0.481   2.942   0.577  0.5899 -0.9452 -2.0979
 2748TIP3   OH229658   4.015   4.916  14.096  0.0528 -0.3525 -0.5897
 2748TIP3    H129659   4.072   4.875  14.162 -0.1796 -0.1865 -0.2835
 2748TIP3    H229660   3.947   4.960  14.147 -0.5299 -0.8103 -0.9664
 2749TIP3   OH229661   3.904   5.158  11.752  0.2443 -0.4199  0.1155
 2749TIP3    H129662   3.961   5.096  11.708  0.1519 -0.3154 -0.1547
 2749TIP3    H229663   3.825   5.107  11.773 -0.2965 -0.1303 -1.1051
 2750TIP3   OH229664   3.538   5.570  11.455  0.6803  0.5025 -0.3111
 2750TIP3    H129665   3.530   5.656  11.497 -1.0110 -0.0639  0.6339
 2750TIP3    H229666   3.565   5.589  11.365  0.1507  2.0494 -0.1673
 2751TIP3   OH229667   4.227   5.153  14.385 -0.6278  0.5073  0.4146
 2751TIP3    H129668   4.263   5.169  14.297 -1.9043 -1.7413 -0.6009
 2751TIP3    H229669   4.274   5.077  14.417 -0.2044  1.2857  1.7098
 2752TIP3   OH229670   1.693   2.570   4.165  0.2756  0.1560 -0.1067
 2752TIP3    H129671   1.688   2.475   4.152  2.0281 -0.2259  1.6060
 2752TIP3    H229672   1.732   2.603   4.084  1.1275 -0.7970 -0.1040
 2753TIP3   OH229673   1.931   2.835  14.229 -0.0233  0.1428  0.0932
 2753TIP3    H129674   2.014   2.789  14.244 -0.0549  0.7065  2.4095
 2753TIP3    H229675   1.894   2.794  14.151  1.4680 -1.5215  0.2050
 2754TIP3   OH229676   0.983   5.065   5.918 -0.2103  0.3031 -0.9070
 2754TIP3    H129677   0.940   5.038   5.999  0.3596  1.8514 -0.0365
 2754TIP3    H229678   0.927   5.032   5.848 -0.8340 -0.8736  0.1092
 2755TIP3   OH229679   0.696   5.422  13.479 -0.3843 -0.0388 -0.2470
 2755TIP3    H129680   0.773   5.398  13.532 -0.4409 -0.9035 -0.5399
 2755TIP3    H229681   0.634   5.459  13.542  0.6890  1.7412 -0.1680
 2756TIP3   OH229682   4.180   0.561  15.724  0.7012  0.3395 -0.5342
 2756TIP3    H129683   4.254   0.513  15.687  1.5558  0.8649  0.4607
 2756TIP3    H229684   4.134   0.595  15.647  0.5204 -1.3690 -1.2393
 2757TIP3   OH229685   5.180   2.551   3.920  0.0110 -0.1944  0.3561
 2757TIP3    H129686   5.226   2.470   3.898  0.3961  0.0115  0.3943
 2757TIP3    H229687   5.129   2.529   3.997 -1.7030 -1.0527 -0.9630
 2758TIP3   OH229688   5.874   1.086  16.719 -0.0411 -0.1648 -0.7572
 2758TIP3    H129689   5.944   1.075  16.782  0.6710 -0.6833 -1.6166
 2758TIP3    H229690   5.815   1.012  16.735  0.0850 -0.2414 -0.6493
 2759TIP3   OH229691   1.983   6.370   5.223 -0.3506  0.3198  0.4512
 2759TIP3    H129692   1.891   6.371   5.199 -0.8082  0.4313  2.0847
 2759TIP3    H229693   1.988   6.423   5.303  0.9263 -0.6412  1.0501
 2760TIP3   OH229694   2.922   3.993  16.679 -0.1035 -0.5429  0.1838
 2760TIP3    H129695   2.832   3.975  16.650 -0.1850  0.6828 -0.3931
 2760TIP3    H229696   2.967   3.909  16.673 -0.7380 -0.8047 -1.3023
 2761TIP3   OH229697   0.706   2.448  17.240 -0.3073  0.2117 -0.0671
 2761TIP3    H129698   0.778   2.393  17.210 -0.0098  1.5247 -1.9410
 2761TIP3    H229699   0.632   2.421  17.186 -0.9392 -0.2935  1.0111
 2762TIP3   OH229700   6.062   4.487   3.263  0.5202 -0.4285  0.2974
 2762TIP3    H129701   6.148   4.496   3.304  0.7704 -0.3402 -0.2465
 2762TIP3    H229702   6.002   4.531   3.324  0.9878  0.3197  0.2280
 2763TIP3   OH229703   2.293   5.570   0.536 -0.5376  0.2748  0.5466
 2763TIP3    H129704   2.226   5.540   0.475 -1.4053 -0.1925  1.6901
 2763TIP3    H229705   2.283   5.666   0.537  1.5104  0.6353 -2.2782
 2764TIP3   OH229706   2.410   1.180   2.456 -0.2911  0.0662  0.0058
 2764TIP3    H129707   2.503   1.195   2.438 -0.7471  2.7002 -0.4889
 2764TIP3    H229708   2.364   1.223   2.384 -1.9534 -2.5628 -0.6633
 2765TIP3   OH229709   0.458   1.360   5.404 -0.1656  0.3252  0.3844
 2765TIP3    H129710   0.548   1.363   5.436 -0.5100  2.4818  1.3569
 2765TIP3    H229711   0.414   1.297   5.461  0.4724  0.0854  0.6200
 2766TIP3   OH229712   6.414   3.097   5.865  0.1458  0.0706 -0.6460
 2766TIP3    H129713   6.397   3.135   5.779 -0.0892  0.0035 -0.6300
 2766TIP3    H229714   6.432   3.172   5.922 -2.1082  0.3430 -0.1881
 2767TIP3   OH229715   5.841   1.294  15.588 -0.2232  0.4539 -0.0515
 2767TIP3    H129716   5.864   1.216  15.639  0.3429 -0.3945 -1.5453
 2767TIP3    H229717   5.752   1.314  15.616  0.6440  1.0924  2.5325
 2768TIP3   OH229718   5.773   1.503  12.245 -0.0444  0.1362 -0.1013
 2768TIP3    H129719   5.810   1.487  12.158  0.4188 -1.1905  0.3167
 2768TIP3    H229720   5.837   1.560  12.288  0.0661  0.2376 -0.3973
 2769TIP3   OH229721   2.820   5.374  12.835 -0.0907 -0.6555  0.8590
 2769TIP3    H129722   2.869   5.302  12.874 -1.9254 -1.9424  0.9562
 2769TIP3    H229723   2.743   5.332  12.796 -1.4572  1.2926  1.2834
 2770TIP3   OH229724   1.802   0.166   5.576 -0.3146 -0.6194 -0.2169
 2770TIP3    H129725   1.721   0.195   5.533 -1.4304 -2.2571  0.7061
 2770TIP3    H229726   1.793   0.195   5.667  1.5455  1.8357 -0.6903
 2771TIP3   OH229727   0.646   3.114  11.722 -0.3770 -0.7488 -0.1999
 2771TIP3    H129728   0.622   3.023  11.705  2.1069 -1.6490  0.7175
 2771TIP3    H229729   0.642   3.123  11.817 -2.4420  0.7397 -0.3428
 2772TIP3   OH229730   1.161   6.405  11.275 -0.4526  0.2701  0.5740
 2772TIP3    H129731   1.249   6.443  11.284 -0.3260 -0.1809  1.4295
 2772TIP3    H229732   1.156   6.376  11.184  0.0288  0.9146  0.3327
 2773TIP3   OH229733   1.152   0.999   3.531 -0.1545  0.0394  0.2469
 2773TIP3    H129734   1.065   1.037   3.545 -0.3285 -0.8279  1.7384
 2773TIP3    H229735   1.150   0.968   3.441 -1.7174 -0.7669  0.5277
 2774TIP3   OH229736   4.554   0.094   4.593 -0.2829 -0.1045 -0.5559
 2774TIP3    H129737   4.484   0.121   4.652  0.6055  2.6764 -0.6318
 2774TIP3    H229738   4.628   0.076   4.650 -0.3740 -0.7351 -0.6294
 2775TIP3   OH229739   0.075   2.639   3.455  0.6228 -0.3402 -0.0204
 2775TIP3    H129740   0.040   2.718   3.496  0.4047  0.0043 -0.8718
 2775TIP3    H229741   0.168   2.658   3.443  0.9160 -0.8487  1.2598
 2776TIP3   OH229742   4.494   2.738  15.337  0.3256 -0.0492 -0.0548
 2776TIP3    H129743   4.530   2.651  15.353  2.0226  0.7491  0.7507
 2776TIP3    H229744   4.500   2.783  15.421 -3.7936 -0.1678  0.5118
 2777TIP3   OH229745   2.598   3.806   0.908 -0.0528 -0.3340 -0.6519
 2777TIP3    H129746   2.678   3.778   0.863  0.1974 -0.9758  0.1603
 2777TIP3    H229747   2.563   3.726   0.947 -2.0043 -0.3866 -2.3361
 2778TIP3   OH229748   1.600   5.950  10.908  0.1176  0.0928 -0.4610
 2778TIP3    H129749   1.685   5.923  10.874  0.2056  0.0929 -0.2415
 2778TIP3    H229750   1.573   6.022  10.850  1.5858  2.0570  1.1427
 2779TIP3   OH229751   3.502   4.939   3.843 -0.0236 -0.2827  0.0199
 2779TIP3    H129752   3.485   4.962   3.752  1.2500  0.0998 -0.1457
 2779TIP3    H229753   3.467   4.851   3.853  1.6450 -1.1762 -1.4428
 2780TIP3   OH229754   4.517   3.433   4.502 -0.3194 -0.1416  0.0244
 2780TIP3    H129755   4.442   3.445   4.443 -1.3873  0.1567  1.4035
 2780TIP3    H229756   4.508   3.503   4.567  0.8287 -0.4664  0.5525
 2781TIP3   OH229757   0.931   6.131  14.258  0.0039  0.2594 -0.4361
 2781TIP3    H129758   0.939   6.081  14.177  0.0273 -1.4301  0.5541
 2781TIP3    H229759   1.017   6.171  14.269 -0.3941  1.6294 -1.8893
 2782TIP3   OH229760   6.130   1.394  14.663 -0.0570 -0.2536 -0.7537
 2782TIP3    H129761   6.076   1.388  14.743 -0.6380  0.9761 -1.0377
 2782TIP3    H229762   6.120   1.308  14.622  0.3429 -0.9577  0.5410
 2783TIP3   OH229763   3.267   2.675   5.227 -0.5854  0.0772  0.0467
 2783TIP3    H129764   3.274   2.760   5.270 -1.7165  0.5841 -0.7363
 2783TIP3    H229765   3.311   2.687   5.143  1.5296 -0.8838  0.9414
 2784TIP3   OH229766   0.472   4.720  12.745 -0.1964 -0.1056  0.3336
 2784TIP3    H129767   0.387   4.678  12.736 -1.5695  2.4343  0.5388
 2784TIP3    H229768   0.490   4.757  12.658 -0.4111  1.2764  0.8573
 2785TIP3   OH229769   1.916   0.174   2.920  0.5409  0.1302  0.4057
 2785TIP3    H129770   1.861   0.252   2.913 -0.8481 -0.9069 -0.8458
 2785TIP3    H229771   1.956   0.180   3.006 -0.9277  1.3389  1.0372
 2786TIP3   OH229772   4.743   2.581   4.209  0.4043 -0.0302  0.0260
 2786TIP3    H129773   4.809   2.649   4.191  1.1402 -0.4506  1.0499
 2786TIP3    H229774   4.662   2.616   4.172  0.6155  1.7378  1.1071
 2787TIP3   OH229775   0.725   4.512   3.407  0.2577  0.1015 -0.2450
 2787TIP3    H129776   0.814   4.478   3.416  0.0048 -1.1303 -1.9651
 2787TIP3    H229777   0.670   4.444   3.446 -0.0523 -0.1278 -1.0593
 2788TIP3   OH229778   5.269   6.257   4.186 -0.4283 -0.4537  0.0847
 2788TIP3    H129779   5.295   6.344   4.157  1.1626 -0.1136  2.2655
 2788TIP3    H229780   5.181   6.268   4.221  0.2405  0.6105  1.5114
 2789TIP3   OH229781   0.251   5.645   3.453 -0.0927 -0.0589  0.1141
 2789TIP3    H129782   0.328   5.638   3.398 -0.8659 -1.5269 -0.8372
 2789TIP3    H229783   0.179   5.662   3.392 -0.8616 -0.9925  0.7201
 2790TIP3   OH229784   0.147   6.614   4.870  0.5558  0.0270  0.7594
 2790TIP3    H129785   0.149   6.676   4.943 -1.4982  0.4930  0.4885
 2790TIP3    H229786   0.109   6.535   4.907 -3.1992  1.1386 -0.2589
 2791TIP3   OH229787   4.257   0.589  14.366  0.1537 -0.6854 -0.2107
 2791TIP3    H129788   4.308   0.523  14.319 -1.6560 -1.6720 -0.9020
 2791TIP3    H229789   4.166   0.574  14.338 -0.5446  0.9782  0.9587
 2792TIP3   OH229790   1.874   2.459  14.076  1.0089  0.2048 -0.0498
 2792TIP3    H129791   1.780   2.466  14.087  1.1395  2.7468 -0.0803
 2792TIP3    H229792   1.885   2.388  14.012 -0.9501  0.6533 -0.9509
 2793TIP3   OH229793   6.256   0.036  14.864  0.2917 -0.3168  0.4364
 2793TIP3    H129794   6.260  -0.033  14.931 -0.1399 -0.8489 -0.0736
 2793TIP3    H229795   6.164   0.039  14.838  0.6477 -0.9842 -1.0022
 2794TIP3   OH229796   6.746   4.594   3.095  0.2927 -0.1606  0.1486
 2794TIP3    H129797   6.747   4.500   3.110 -0.5368 -0.0202  1.2862
 2794TIP3    H229798   6.689   4.606   3.019  0.4747 -0.5820 -0.0543
 2795TIP3   OH229799   0.739   5.440   2.161 -0.3705  0.3047  0.4924
 2795TIP3    H129800   0.764   5.521   2.205  0.6551 -0.0811  0.6460
 2795TIP3    H229801   0.789   5.441   2.080 -1.3993  0.4727 -0.1516
 2796TIP3   OH229802   3.342   2.891  11.646  0.5914  0.0966 -0.0885
 2796TIP3    H129803   3.256   2.922  11.677  0.5576  0.2063 -0.2924
 2796TIP3    H229804   3.403   2.960  11.671  0.7155 -0.2421  0.5739
 2797TIP3   OH229805   2.179   4.197   3.511  0.1747 -0.1970 -0.0258
 2797TIP3    H129806   2.095   4.198   3.466 -0.1460 -2.1147  0.4576
 2797TIP3    H229807   2.237   4.149   3.451  0.5950  0.0439  0.1863
 2798TIP3   OH229808   4.549   6.205  11.533 -0.1645  0.1339 -0.4128
 2798TIP3    H129809   4.634   6.228  11.569 -0.6819 -0.8376  1.5780
 2798TIP3    H229810   4.545   6.110  11.539 -1.6512  0.2095  0.1699
 2799TIP3   OH229811   3.621   3.367   2.464  0.3069  0.1541 -0.1437
 2799TIP3    H129812   3.687   3.413   2.516 -0.2189  0.0748  0.6112
 2799TIP3    H229813   3.563   3.436   2.432 -1.3973 -0.0412  2.2786
 2800TIP3   OH229814   5.356   5.110   4.670  0.4553 -0.5175 -0.1627
 2800TIP3    H129815   5.444   5.081   4.693  1.2658  1.4855 -0.5046
 2800TIP3    H229816   5.339   5.069   4.585  1.2715 -0.5564 -0.3219
 2801TIP3   OH229817   1.931   0.856   0.332  0.3002  0.4997  0.6333
 2801TIP3    H129818   1.877   0.795   0.383  0.5257 -1.2921 -1.1677
 2801TIP3    H229819   1.870   0.924   0.304 -0.5567 -0.3279  0.4511
 2802TIP3   OH229820   1.683   1.953   3.285  0.1475  0.4340  0.3557
 2802TIP3    H129821   1.729   2.011   3.346  0.0054  1.4459 -0.4625
 2802TIP3    H229822   1.707   1.985   3.198 -0.9335  0.0629 -0.1052
 2803TIP3   OH229823   5.765   4.781  14.533 -0.0160  0.0143  0.0301
 2803TIP3    H129824   5.695   4.809  14.474 -1.5435 -0.1104  1.6905
 2803TIP3    H229825   5.752   4.687  14.543  1.4038 -0.2946 -0.8834
 2804TIP3   OH229826   2.496   5.347  16.309  0.3114 -0.6764  0.6400
 2804TIP3    H129827   2.557   5.304  16.369  2.4622  1.6913  0.3279
 2804TIP3    H229828   2.442   5.402  16.364  0.9681 -0.0007  0.6327
 2805TIP3   OH229829   5.235   1.148  16.745 -0.3166 -0.3193  0.4679
 2805TIP3    H129830   5.313   1.122  16.794 -0.2805  0.1885  0.6767
 2805TIP3    H229831   5.257   1.130  16.654  0.5584  1.0955  0.3870
 2806TIP3   OH229832   3.600   6.545  12.551  0.3259 -0.6925 -0.3275
 2806TIP3    H129833   3.673   6.550  12.489  1.3457 -1.1251  0.8042
 2806TIP3    H229834   3.642   6.534  12.637 -1.0213  0.8105  0.5647
 2807TIP3   OH229835   3.402   0.230   5.366 -0.1065  0.3191  0.5356
 2807TIP3    H129836   3.386   0.321   5.340 -1.2992 -0.1588 -0.5244
 2807TIP3    H229837   3.472   0.236   5.431 -0.3720  2.0212  0.7275
 2808TIP3   OH229838   2.112   4.552   1.933 -0.1146 -0.4216  0.0258
 2808TIP3    H129839   2.093   4.551   2.027 -2.3298 -0.3458 -0.3620
 2808TIP3    H229840   2.090   4.464   1.904 -1.5786  0.1645 -0.7491
 2809TIP3   OH229841   2.214   3.676   2.574 -0.5424  0.1377 -0.2036
 2809TIP3    H129842   2.196   3.696   2.665 -1.5638 -0.1702 -0.3239
 2809TIP3    H229843   2.301   3.714   2.557 -0.2351 -0.0165  0.9506
 2810TIP3   OH229844   4.715   2.849   1.198 -0.4531 -0.2762  0.1399
 2810TIP3    H129845   4.709   2.920   1.134 -0.9757 -1.0311 -0.6619
 2810TIP3    H229846   4.800   2.810   1.183 -0.3055 -0.0453  0.3553
 2811TIP3   OH229847   0.100   3.772   6.537 -0.5399 -0.0285  0.8507
 2811TIP3    H129848   0.161   3.702   6.557  1.6928  1.5340 -0.1215
 2811TIP3    H229849   0.017   3.727   6.520  1.0241 -2.5664 -0.7592
 2812TIP3   OH229850   5.776   1.749   5.257 -0.2031  0.5632 -0.0146
 2812TIP3    H129851   5.750   1.709   5.340  1.5517  0.0374  0.3383
 2812TIP3    H229852   5.783   1.676   5.196 -0.7633  0.8509 -0.4295
 2813TIP3   OH229853   3.313   3.473   5.638  0.5331  0.0432 -0.3624
 2813TIP3    H129854   3.391   3.510   5.680  0.6941  0.5435 -1.0811
 2813TIP3    H229855   3.341   3.455   5.548 -0.3068  0.6794 -0.7624
 2814TIP3   OH229856   4.774   0.190  17.242 -0.1830  0.0073 -0.0642
 2814TIP3    H129857   4.686   0.216  17.216  0.1705  0.7738 -0.5665
 2814TIP3    H229858   4.817   0.272  17.267  0.1266 -0.4695  0.9960
 2815TIP3   OH229859   3.618   1.905   5.919  0.0481 -1.0370  0.2125
 2815TIP3    H129860   3.524   1.890   5.929  0.2501 -2.3994  0.3902
 2815TIP3    H229861   3.658   1.852   5.989  1.0528 -2.8345 -1.6071
 2816TIP3   OH229862   4.592   5.027  14.200  0.1725 -0.8884 -0.0262
 2816TIP3    H129863   4.624   4.936  14.199  1.3418 -0.4856 -0.8040
 2816TIP3    H229864   4.648   5.071  14.264 -0.5251 -0.7398  0.4995
 2817TIP3   OH229865   5.306   3.628  13.224 -0.0390  0.4662  0.1550
 2817TIP3    H129866   5.383   3.681  13.206  1.0547 -1.4173 -1.0858
 2817TIP3    H229867   5.316   3.601  13.316  0.1228  1.2388  0.3659
 2818TIP3   OH229868   0.479   4.830  13.506  0.1857 -0.0501 -0.0940
 2818TIP3    H129869   0.474   4.735  13.517 -2.2704  0.1024  0.5176
 2818TIP3    H229870   0.562   4.844  13.460 -0.4564 -2.6785 -2.3002
 2819TIP3   OH229871   2.440   1.672   5.142  0.3652 -0.5698  0.2187
 2819TIP3    H129872   2.357   1.718   5.147  0.2200 -0.2196 -3.0830
 2819TIP3    H229873   2.500   1.723   5.196 -0.6686  1.3741 -0.4027
 2820TIP3   OH229874   4.956   3.964  12.983 -0.2456  0.5149 -0.4841
 2820TIP3    H129875   4.991   3.917  13.058 -1.9549  0.9904  0.6717
 2820TIP3    H229876   4.998   4.049  12.986 -0.9166  0.8305  0.4646
 2821TIP3   OH229877   4.374   3.247   4.690  0.4624 -0.5586  0.0010
 2821TIP3    H129878   4.307   3.283   4.749  0.3906 -1.6477  0.6036
 2821TIP3    H229879   4.406   3.323   4.642 -1.9183 -0.1297 -1.0532
 2822TIP3   OH229880   0.926   4.435  14.167 -0.3585 -0.3439  0.0570
 2822TIP3    H129881   0.868   4.416  14.240 -0.6630 -1.4303 -0.4335
 2822TIP3    H229882   0.920   4.357  14.111  1.5042 -0.4624 -0.0592
 2823TIP3   OH229883   6.286   3.365   6.359 -0.2605 -0.2404 -0.4141
 2823TIP3    H129884   6.280   3.421   6.281 -0.9152  0.7142  0.2964
 2823TIP3    H229885   6.196   3.337   6.375 -0.1190 -0.4662 -0.0179
 2824TIP3   OH229886   5.760   5.160   4.801 -0.4770  0.1297 -0.0625
 2824TIP3    H129887   5.691   5.098   4.780 -0.1518 -0.6543  1.1088
 2824TIP3    H229888   5.805   5.122   4.876  0.4391  1.2375 -0.0206
 2825TIP3   OH229889   3.784   6.328   1.924 -0.2943  0.0569 -0.3407
 2825TIP3    H129890   3.745   6.257   1.874  0.7041 -1.2635  0.6968
 2825TIP3    H229891   3.765   6.308   2.016  0.0693  1.0828 -0.0169
 2826TIP3   OH229892   1.148   2.189   3.876 -0.4102  0.0478 -0.4891
 2826TIP3    H129893   1.073   2.245   3.901  0.9545  0.8327  2.2985
 2826TIP3    H229894   1.194   2.173   3.958  2.8834  0.1415 -2.1456
 2827TIP3   OH229895   4.773   5.518   2.064 -0.1849  0.5226 -0.2788
 2827TIP3    H129896   4.849   5.467   2.093  0.6343  2.0175  0.3237
 2827TIP3    H229897   4.701   5.455   2.063  0.4523 -0.3334  1.9215
 2828TIP3   OH229898   1.692   2.015  16.354  0.0491  0.2306  0.2176
 2828TIP3    H129899   1.759   1.965  16.402  0.3330  0.4675  0.0708
 2828TIP3    H229900   1.721   2.106  16.360  0.4231  0.2007 -0.9354
 2829TIP3   OH229901   1.545   1.954   5.582 -0.1498 -0.1108  0.8722
 2829TIP3    H129902   1.560   1.884   5.646 -0.6512 -0.3520  0.7323
 2829TIP3    H229903   1.515   1.909   5.503 -2.2686  0.3372  1.3376
 2830TIP3   OH229904   0.663   3.567   4.094  0.9206  0.1822 -0.1112
 2830TIP3    H129905   0.713   3.529   4.166  2.2468  1.5173 -0.2850
 2830TIP3    H229906   0.610   3.636   4.135 -2.0917 -2.2022  0.3420
 2831TIP3   OH229907   3.968   0.371  13.247  0.7142  0.3458 -0.1696
 2831TIP3    H129908   4.057   0.401  13.268  0.5223  0.2306  0.8478
 2831TIP3    H229909   3.981   0.287  13.204  1.0851  0.1519  0.3116
 2832TIP3   OH229910   3.706   5.195  12.430  0.0911 -0.3202 -0.4576
 2832TIP3    H129911   3.704   5.224  12.339  0.7490  0.3826 -0.2615
 2832TIP3    H229912   3.620   5.219  12.465 -0.5508 -1.5142 -1.1517
 2833TIP3   OH229913   0.435   6.526   4.515 -0.0905 -0.0602 -0.5825
 2833TIP3    H129914   0.393   6.589   4.457  1.4460  1.4839 -0.1036
 2833TIP3    H229915   0.362   6.475   4.552 -1.3010  0.8175 -1.6655
 2834TIP3   OH229916   0.770   6.290  14.439 -0.0947  0.1771 -0.5409
 2834TIP3    H129917   0.840   6.256  14.384 -0.4153 -0.7905 -0.3681
 2834TIP3    H229918   0.690   6.273  14.389 -0.2126  1.3887 -0.7951
 2835TIP3   OH229919   6.281   3.041   1.160  0.1766 -0.5719 -0.0910
 2835TIP3    H129920   6.286   2.972   1.226  0.8648 -0.0718  0.3854
 2835TIP3    H229921   6.191   3.036   1.127  0.0854 -1.3881  0.2679
 2836TIP3   OH229922   3.215   6.176  10.881  0.0859 -0.0427 -0.1264
 2836TIP3    H129923   3.300   6.220  10.868 -0.7630  1.4664 -0.8928
 2836TIP3    H229924   3.238   6.085  10.899  1.8644  0.2892 -0.4663
 2837TIP3   OH229925   2.488   3.423   3.769 -0.1417 -0.0752 -0.4467
 2837TIP3    H129926   2.445   3.482   3.708  0.6393  1.6364  0.5719
 2837TIP3    H229927   2.575   3.461   3.782 -0.2849 -0.3229  1.7080
 2838TIP3   OH229928   5.227   4.154  14.279  0.2292 -0.2551 -0.0514
 2838TIP3    H129929   5.284   4.106  14.218  0.0266 -1.1153  0.4091
 2838TIP3    H229930   5.188   4.224  14.226  3.1457  1.5996  0.0745
 2839TIP3   OH229931   4.635   1.782  11.276  0.9122  0.3272 -0.0884
 2839TIP3    H129932   4.626   1.851  11.210 -1.1082  0.5458  0.3473
 2839TIP3    H229933   4.650   1.702  11.225  0.6593  0.6873 -0.7421
 2840TIP3   OH229934   3.142   4.243  17.066 -0.1023  0.0332 -0.2808
 2840TIP3    H129935   3.114   4.315  17.010  0.1646 -0.3310 -0.8936
 2840TIP3    H229936   3.237   4.240  17.054  0.0007  0.1744  0.4622
 2841TIP3   OH229937   4.065   3.761   0.241 -0.6245  0.1660  0.1131
 2841TIP3    H129938   4.010   3.683   0.244 -0.2663 -0.0710  0.6760
 2841TIP3    H229939   4.019   3.825   0.296 -0.6996  0.2034  0.0060
 2842TIP3   OH229940   5.563   2.346  10.679  0.3540 -0.4929  0.9080
 2842TIP3    H129941   5.576   2.437  10.706  1.7625 -0.8404  1.5296
 2842TIP3    H229942   5.561   2.350  10.583 -0.5457  0.2870  0.9424
 2843TIP3   OH229943   3.182   5.173   5.778 -0.5118  0.1727 -0.1526
 2843TIP3    H129944   3.239   5.233   5.730  0.0041  0.1501  0.4230
 2843TIP3    H229945   3.098   5.220   5.784  0.1795  1.3294  1.2150
 2844TIP3   OH229946   2.071   4.480  12.769 -0.0002  0.5037 -0.4253
 2844TIP3    H129947   2.165   4.497  12.760 -0.2489  2.6820  0.4212
 2844TIP3    H229948   2.067   4.396  12.815  1.5481  0.4727 -0.2718
 2845TIP3   OH229949   4.963   0.105  13.185  0.1287  0.2526 -0.7421
 2845TIP3    H129950   4.971   0.152  13.103 -1.0410  2.1065  0.1293
 2845TIP3    H229951   5.000   0.165  13.251  0.9956 -1.1576  0.1241
 2846TIP3   OH229952   3.167   1.185   3.092  0.3037 -0.0708 -0.2799
 2846TIP3    H129953   3.097   1.234   3.134  0.4920  1.4975 -1.6884
 2846TIP3    H229954   3.238   1.184   3.157 -0.3584 -0.0980  0.4600
 2847TIP3   OH229955   2.914   1.106  14.277  0.3687  0.0141  0.0526
 2847TIP3    H129956   2.858   1.172  14.317 -0.0664  0.0698 -0.6353
 2847TIP3    H229957   2.860   1.067  14.208  0.8757 -0.5390 -0.0448
 2848TIP3   OH229958   0.187   0.891  14.339  0.5567  0.0135  0.4390
 2848TIP3    H129959   0.179   0.925  14.250  0.8672  0.9347  0.7468
 2848TIP3    H229960   0.152   0.961  14.394  1.4289 -0.0666  1.1115
 2849TIP3   OH229961   2.927   5.517   2.602  0.1442  0.0227  0.4048
 2849TIP3    H129962   2.965   5.480   2.682 -1.3168  0.4219  1.3249
 2849TIP3    H229963   2.832   5.511   2.616 -0.1379  1.8333 -0.4763
 2850TIP3   OH229964   5.192   6.496   6.705 -1.0833 -0.0565  0.1490
 2850TIP3    H129965   5.269   6.445   6.731 -0.0805  1.5797  0.5364
 2850TIP3    H229966   5.143   6.509   6.786 -1.3159 -0.3589  0.0583
 2851TIP3   OH229967   3.494   5.077  15.748 -0.1617 -0.0277 -0.3045
 2851TIP3    H129968   3.559   5.120  15.693  1.2057 -0.9133  0.5854
 2851TIP3    H229969   3.454   5.149  15.798  0.2285  0.5057 -0.7539
 2852TIP3   OH229970   3.659   2.861   2.869  0.0648 -0.1274  0.4952
 2852TIP3    H129971   3.749   2.868   2.900  0.0311 -0.4963  0.6806
 2852TIP3    H229972   3.665   2.813   2.786 -0.1591 -2.2043  1.6068
 2853TIP3   OH229973   4.114   1.466  13.485 -0.3053 -0.0857  0.3473
 2853TIP3    H129974   4.028   1.506  13.495  0.4384  1.4275  0.9819
 2853TIP3    H229975   4.096   1.376  13.456 -2.1150 -0.0948  1.3929
 2854TIP3   OH229976   5.167   4.251   1.275  0.5562  0.4898  0.3914
 2854TIP3    H129977   5.162   4.203   1.358  0.8691  0.3195  0.3160
 2854TIP3    H229978   5.240   4.312   1.288  0.4331  0.6466  0.3363
 2855TIP3   OH229979   2.357   2.803  12.285  0.4517  0.0460  0.3231
 2855TIP3    H129980   2.282   2.850  12.248 -0.3418 -1.0060  0.5375
 2855TIP3    H229981   2.344   2.808  12.380  1.8291  1.6893  0.4723
 2856TIP3   OH229982   3.130   2.094  15.358 -0.0615 -0.0837  0.0658
 2856TIP3    H129983   3.178   2.077  15.439  1.8453 -0.5677 -1.1247
 2856TIP3    H229984   3.077   2.171  15.378 -0.0328 -0.4971  1.9251
 2857TIP3   OH229985   3.597   0.037  13.973  0.2595  0.4710  0.0055
 2857TIP3    H129986   3.542  -0.024  13.925  1.1802 -0.4013  0.0335
 2857TIP3    H229987   3.543   0.115  13.984 -1.0248 -0.4403  0.2235
 2858TIP3   OH229988   4.529   6.316   6.747 -0.2154  0.0040 -0.3456
 2858TIP3    H129989   4.547   6.384   6.682  1.4396 -0.4446 -0.4040
 2858TIP3    H229990   4.583   6.339   6.822  0.4707 -1.2800 -0.4108
 2859TIP3   OH229991   3.898   4.163   0.617  0.4097  0.0688  0.0473
 2859TIP3    H129992   3.936   4.241   0.577  0.9916 -0.3611 -0.2568
 2859TIP3    H229993   3.804   4.178   0.616  0.5183  0.7698 -0.0013
 2860TIP3   OH229994   1.124   0.143   0.855 -0.4659 -0.6911  0.5780
 2860TIP3    H129995   1.058   0.181   0.796 -0.0464 -1.3040 -0.3197
 2860TIP3    H229996   1.127   0.202   0.929 -2.2554 -0.8021  0.7879
 2861TIP3   OH229997   1.300   6.278  16.930 -0.1833  0.0497 -0.3428
 2861TIP3    H129998   1.242   6.354  16.920 -1.5981 -0.8572  0.6594
 2861TIP3    H229999   1.347   6.273  16.847  1.9879  3.6187  0.4722
 2862TIP3   OH230000   3.678   4.951   0.654  0.8573  0.4825  0.6598
 2862TIP3    H130001   3.729   4.986   0.580  0.1511  1.3949  0.5951
 2862TIP3    H230002   3.592   4.991   0.645 -1.0063 -3.3668 -1.0691
 2863TIP3   OH230003   5.816   4.295  11.432  0.1613  0.0020 -0.3686
 2863TIP3    H130004   5.734   4.258  11.465  0.4836  0.3028  0.8136
 2863TIP3    H230005   5.831   4.372  11.487  0.9670  0.2467 -0.9172
 2864TIP3   OH230006   5.431   5.224  15.352 -0.0666 -1.2109  0.2650
 2864TIP3    H130007   5.498   5.244  15.417  0.6384 -1.2490 -0.4359
 2864TIP3    H230008   5.479   5.216  15.269 -1.2064  1.1728 -0.7136
 2865TIP3   OH230009   6.290   2.132   0.791 -0.1736 -0.1560 -0.0529
 2865TIP3    H130010   6.348   2.208   0.797 -0.5004  0.0239  1.3689
 2865TIP3    H230011   6.248   2.127   0.877  0.6025 -2.5552  0.2771
 2866TIP3   OH230012   5.508   3.662   3.175 -0.7113  0.7840  0.8355
 2866TIP3    H130013   5.560   3.652   3.095  0.0952 -1.2628  1.5426
 2866TIP3    H230014   5.423   3.622   3.154  0.3240 -2.0720  1.6659
 2867TIP3   OH230015   0.503   1.966  16.922 -0.2795 -0.5302 -0.4257
 2867TIP3    H130016   0.427   1.960  16.981  0.0862 -0.6395  0.0409
 2867TIP3    H230017   0.524   1.875  16.901  1.0224 -0.6437  1.1532
 2868TIP3   OH230018   3.449   5.518  17.152  0.2848 -0.3680 -0.2543
 2868TIP3    H130019   3.543   5.499  17.150  0.1630 -1.0145 -0.1064
 2868TIP3    H230020   3.443   5.612  17.135  1.0055 -0.1572  0.5770
 2869TIP3   OH230021   3.715   6.524   4.519 -0.2333 -0.4027  0.3390
 2869TIP3    H130022   3.765   6.449   4.486  0.1975  0.5159 -1.1845
 2869TIP3    H230023   3.748   6.537   4.609  1.5571 -0.4683 -0.2671
 2870TIP3   OH230024   0.633   3.928  14.882  0.6211 -0.1434 -0.7077
 2870TIP3    H130025   0.624   3.960  14.972  1.1236 -0.7310 -0.4390
 2870TIP3    H230026   0.581   3.989  14.829  1.7608  1.2925 -0.2473
 2871TIP3   OH230027   0.264   4.105   5.392 -0.4830  0.0614  0.1581
 2871TIP3    H130028   0.270   4.173   5.325 -1.6108 -0.4411 -0.4981
 2871TIP3    H230029   0.349   4.105   5.435 -0.2371  1.3981 -0.2963
 2872TIP3   OH230030   1.298   6.584   6.243 -0.2904  0.0233  0.5700
 2872TIP3    H130031   1.309   6.677   6.265 -0.5188  0.0681  0.4964
 2872TIP3    H230032   1.356   6.571   6.169 -1.0830  0.3803 -0.1343
 2873TIP3   OH230033   1.332   1.809  14.135  0.1950 -0.0127 -0.8672
 2873TIP3    H130034   1.418   1.838  14.102  0.8245 -0.6284  0.1693
 2873TIP3    H230035   1.349   1.783  14.226 -1.4246  1.3515 -0.1365
 2874TIP3   OH230036   3.650   4.554   3.706 -0.0567 -0.6824 -0.2151
 2874TIP3    H130037   3.677   4.513   3.623 -1.8279  1.8352 -2.1814
 2874TIP3    H230038   3.731   4.557   3.758  1.5119 -0.9144 -2.4636
 2875TIP3   OH230039   6.769   0.885   1.697  0.4334  0.3328 -0.1965
 2875TIP3    H130040   6.730   0.827   1.632  0.5680  2.3786 -2.2424
 2875TIP3    H230041   6.697   0.908   1.755 -0.1696 -0.0657 -0.7653
 2876TIP3   OH230042   1.460   3.269  11.718  0.0351 -0.3005  0.1293
 2876TIP3    H130043   1.383   3.282  11.773 -0.7709  2.6923 -1.5099
 2876TIP3    H230044   1.439   3.193  11.664 -1.0397 -0.5576  0.8852
 2877TIP3   OH230045   1.543   6.067   3.022 -0.7747  0.0617 -0.3732
 2877TIP3    H130046   1.637   6.048   3.017 -0.7615 -0.2693  0.7716
 2877TIP3    H230047   1.539   6.149   3.072 -1.1049 -0.1062 -0.1214
 2878TIP3   OH230048   4.459   2.337   2.533 -0.0865 -0.3911  0.4495
 2878TIP3    H130049   4.369   2.368   2.521  0.0212  0.0332  0.7275
 2878TIP3    H230050   4.473   2.338   2.628  0.7543  1.1512  0.3491
 2879TIP3   OH230051   6.336   1.205  13.484  0.3126  0.0263  0.2787
 2879TIP3    H130052   6.370   1.244  13.565  0.0661  0.4841  0.1682
 2879TIP3    H230053   6.243   1.225  13.486  0.2653 -0.1657 -0.0065
 2880TIP3   OH230054   4.956   3.693   2.130 -0.8916 -0.1708 -0.4495
 2880TIP3    H130055   4.991   3.657   2.049 -0.3377  0.9596 -0.7289
 2880TIP3    H230056   4.875   3.645   2.145 -2.1253  1.0140 -2.7936
 2881TIP3   OH230057   3.161   2.531   2.201 -0.5189 -0.2100  0.4142
 2881TIP3    H130058   3.076   2.560   2.235 -0.5884 -0.4266  0.4270
 2881TIP3    H230059   3.154   2.436   2.195 -0.8573 -0.1032 -1.1802
 2882TIP3   OH230060   6.288   3.101   5.136  0.1929  0.1806  0.5094
 2882TIP3    H130061   6.199   3.133   5.121 -0.0419 -1.0205 -0.9590
 2882TIP3    H230062   6.277   3.025   5.193  0.3666  0.5297  1.0095
 2883TIP3   OH230063   6.361   0.974   4.231  0.5668 -0.1442  0.2776
 2883TIP3    H130064   6.266   0.971   4.234  0.5656  0.2329  2.7768
 2883TIP3    H230065   6.381   1.050   4.175 -0.5794 -0.0854 -0.0770
 2884TIP3   OH230066   2.190   0.649   2.463  0.1062  0.1494 -0.3789
 2884TIP3    H130067   2.216   0.727   2.511 -1.9294  0.2302  0.6851
 2884TIP3    H230068   2.180   0.582   2.531 -1.6219 -0.0648 -0.8170
 2885TIP3   OH230069   5.013   1.017   4.693 -0.2006  0.8102 -0.3458
 2885TIP3    H130070   4.944   0.955   4.671  1.1983 -0.8773 -0.2333
 2885TIP3    H230071   5.024   1.070   4.614 -0.3072 -0.2124 -1.0760
 2886TIP3   OH230072   0.055   5.397  14.814 -0.4142 -0.3292  0.1017
 2886TIP3    H130073   0.024   5.485  14.835 -0.1122 -0.1092 -0.3559
 2886TIP3    H230074   0.142   5.411  14.777 -1.2527 -0.6080 -2.0910
 2887TIP3   OH230075   1.057   0.279   1.306 -0.1197 -0.2013 -0.1004
 2887TIP3    H130076   1.136   0.228   1.287  1.1537  1.1769  1.2249
 2887TIP3    H230077   1.079   0.329   1.385 -2.1791  0.5408  0.0523
 2888TIP3   OH230078   3.454   3.880  14.376 -0.5209  0.3458 -0.6514
 2888TIP3    H130079   3.456   3.843  14.288  0.4370 -0.2752 -0.3769
 2888TIP3    H230080   3.431   3.807  14.433 -0.6120  0.6293 -0.3167
 2889TIP3   OH230081   2.979   0.828  13.261 -0.4394  0.0010 -0.2508
 2889TIP3    H130082   3.041   0.841  13.189  1.7138 -0.4501  1.4023
 2889TIP3    H230083   2.948   0.916  13.282  0.1089  0.3155 -0.7302
 2890TIP3   OH230084   5.434   0.695  13.148 -0.6101 -0.1589  0.2701
 2890TIP3    H130085   5.485   0.672  13.226  0.6424 -2.6811 -1.1457
 2890TIP3    H230086   5.500   0.724  13.085 -1.4436  0.5638 -0.2795
 2891TIP3   OH230087   5.039   4.915  17.108 -0.0085  0.5527  0.5958
 2891TIP3    H130088   4.961   4.945  17.154 -2.4392 -2.6731 -1.0660
 2891TIP3    H230089   5.039   4.964  17.026  0.3643  1.2678  1.0047
 2892TIP3   OH230090   1.599   6.557  12.186 -0.6949 -0.0164 -0.1728
 2892TIP3    H130091   1.609   6.533  12.094 -1.6636 -0.9957 -0.0393
 2892TIP3    H230092   1.684   6.538  12.226 -0.7673 -1.1787 -0.5366
 2893TIP3   OH230093   5.279   0.905  13.106 -0.3219  0.2560 -0.2646
 2893TIP3    H130094   5.329   0.946  13.177  0.0619  1.3882 -1.1668
 2893TIP3    H230095   5.327   0.824  13.087  0.0888  0.3924  0.1648
 2894TIP3   OH230096   6.420   1.312  15.178 -0.1480  0.1000  0.0287
 2894TIP3    H130097   6.398   1.298  15.086 -1.7217  0.7536  0.2739
 2894TIP3    H230098   6.516   1.316  15.179  0.0388 -2.2061 -1.2208
 2895TIP3   OH230099   6.206   2.933   5.872 -0.9545  0.0434 -0.3811
 2895TIP3    H130100   6.173   2.941   5.962 -0.3176 -1.8551  0.0646
 2895TIP3    H230101   6.288   2.984   5.873 -1.0750  0.2396  0.0375
 2896TIP3   OH230102   5.968   2.390  15.596 -0.0648 -0.0395 -0.2191
 2896TIP3    H130103   5.916   2.347  15.527  1.5584  0.2334 -1.6935
 2896TIP3    H230104   6.056   2.355  15.584  0.8854  2.1740 -0.1634
 2897TIP3   OH230105   5.802   3.033   3.554 -0.0373 -0.2821 -0.1066
 2897TIP3    H130106   5.762   3.114   3.588 -1.5933 -0.2848 -1.7590
 2897TIP3    H230107   5.820   2.981   3.632  0.8752  1.5705  1.0041
 2898TIP3   OH230108   0.635   6.053   6.012  0.0640 -0.9823  0.7747
 2898TIP3    H130109   0.594   6.139   6.005  0.4840 -0.8468 -0.1110
 2898TIP3    H230110   0.718   6.070   6.057  0.5359 -0.7839 -0.1504
 2899TIP3   OH230111   0.712   6.274   5.656 -0.1962  0.3488 -0.1703
 2899TIP3    H130112   0.803   6.290   5.630 -0.2620  1.7503  0.3872
 2899TIP3    H230113   0.690   6.190   5.615  1.2548  0.1211 -0.5360
 2900TIP3   OH230114   2.811   5.377  15.835 -0.7331  0.1250 -0.4380
 2900TIP3    H130115   2.814   5.283  15.852  0.9615  0.4545  1.5761
 2900TIP3    H230116   2.770   5.414  15.913 -0.7126  1.1241 -0.8837
 2901TIP3   OH230117   1.320   4.678   3.439  0.3302  0.0574 -0.5322
 2901TIP3    H130118   1.404   4.722   3.450  0.3813 -0.0301 -0.5721
 2901TIP3    H230119   1.260   4.725   3.498  1.1402 -1.8846  1.9967
 2902TIP3   OH230120   1.432   2.580  16.998 -0.5774 -0.1013 -0.5005
 2902TIP3    H130121   1.521   2.547  17.013  0.6800  2.0816 -2.5297
 2902TIP3    H230122   1.381   2.542  17.069  2.0889 -0.9365  1.1319
 2903TIP3   OH230123   6.754   4.229  15.153 -0.6107  0.2351  0.4795
 2903TIP3    H130124   6.799   4.152  15.190 -0.2991  1.0790  1.9266
 2903TIP3    H230125   6.817   4.267  15.093 -1.1892 -1.2666 -1.1576
 2904TIP3   OH230126   0.937   3.299   4.170 -0.0711 -0.2236 -0.4113
 2904TIP3    H130127   0.869   3.233   4.187 -0.8151  0.3682 -1.0016
 2904TIP3    H230128   1.008   3.250   4.128  0.2563 -1.0108  0.9884
 2905TIP3   OH230129   0.550   3.613  14.943 -0.2293  0.0580 -0.5409
 2905TIP3    H130130   0.640   3.606  14.975 -0.6746 -0.1583  0.7158
 2905TIP3    H230131   0.526   3.522  14.923 -0.8862 -0.2056  1.2469
 2906TIP3   OH230132   3.983   5.498  11.000  0.0576 -0.9100 -0.4306
 2906TIP3    H130133   3.895   5.508  10.963  0.3170 -0.2316 -0.8830
 2906TIP3    H230134   4.027   5.581  10.979  0.3329 -0.6482  1.0877
 2907TIP3   OH230135   3.084   6.046  16.026  0.8197  0.2522  0.1065
 2907TIP3    H130136   3.084   6.087  16.113  0.3031  0.1930  0.1400
 2907TIP3    H230137   3.059   6.117  15.967 -2.6714 -0.5156  0.4510
 2908TIP3   OH230138   1.920   4.223  15.807 -0.0536  0.4233  0.2735
 2908TIP3    H130139   1.892   4.132  15.805  1.3412 -0.0135  0.0671
 2908TIP3    H230140   2.002   4.225  15.758  0.8763  1.4433  1.7881
 2909TIP3   OH230141   0.366   2.295   2.580  0.5505 -0.4068 -0.0290
 2909TIP3    H130142   0.378   2.223   2.642  1.7000  0.2232  0.5299
 2909TIP3    H230143   0.371   2.374   2.635 -1.3380  0.1000 -0.5224
 2910TIP3   OH230144   2.511   3.751  12.921 -0.2109  0.5397  0.3023
 2910TIP3    H130145   2.447   3.804  12.873 -0.8078 -0.4544 -0.0221
 2910TIP3    H230146   2.529   3.677  12.863 -1.2369 -0.8892  1.7511
 2911TIP3   OH230147   0.147   6.129  12.895  0.4812  0.3049 -0.0132
 2911TIP3    H130148   0.109   6.125  12.807  1.2038  0.5126 -0.3450
 2911TIP3    H230149   0.242   6.123  12.880  0.6824  1.4356  0.6584
 2912TIP3   OH230150   1.164   2.581  14.056  0.1191 -0.2034 -0.2573
 2912TIP3    H130151   1.219   2.643  14.007 -0.7100  1.8363  1.2242
 2912TIP3    H230152   1.076   2.596  14.022 -0.2280  0.1294  0.7564
 2913TIP3   OH230153   5.919   3.527  14.075  0.0712  0.2317 -0.8753
 2913TIP3    H130154   6.001   3.480  14.091  1.6635  2.5737 -1.7144
 2913TIP3    H230155   5.944   3.619  14.071 -2.6805  1.0669 -0.8212
 2914TIP3   OH230156   0.482   0.501  12.027 -0.1180 -0.0124  0.1070
 2914TIP3    H130157   0.473   0.592  11.998 -1.0503 -0.1772 -0.1415
 2914TIP3    H230158   0.466   0.449  11.949  0.1095 -0.3977  0.3141
 2915TIP3   OH230159   5.859   5.181  16.375  0.0821 -0.1613  0.2716
 2915TIP3    H130160   5.920   5.167  16.448  0.4199 -1.5050 -0.2412
 2915TIP3    H230161   5.773   5.183  16.416  0.3339  0.0491  0.8076
 2916TIP3   OH230162   3.569   4.923  16.862  0.1095 -0.6195 -0.1536
 2916TIP3    H130163   3.551   4.840  16.818 -1.2231 -0.8659  0.7700
 2916TIP3    H230164   3.650   4.954  16.823  0.1450 -1.9008 -1.1789
 2917TIP3   OH230165   5.631   0.710   2.308  0.6705  0.1697  0.2353
 2917TIP3    H130166   5.692   0.755   2.249 -0.9845  0.8144 -1.0596
 2917TIP3    H230167   5.551   0.761   2.303  0.1952 -0.2760  2.4225
 2918TIP3   OH230168   3.126   0.593  16.573  0.5408  0.4077 -0.3049
 2918TIP3    H130169   3.048   0.591  16.628  1.0382 -0.7501  0.4042
 2918TIP3    H230170   3.195   0.625  16.632  0.4405  2.4818 -1.2027
 2919TIP3   OH230171   4.277   0.189  14.310 -0.1319  0.0756  0.3308
 2919TIP3    H130172   4.331   0.114  14.337  0.5187  0.1051 -0.8530
 2919TIP3    H230173   4.189   0.152  14.298 -0.2633 -0.0997  1.6142
 2920TIP3   OH230174   4.405   4.853  11.017 -0.2934  0.2014  0.1252
 2920TIP3    H130175   4.466   4.926  11.029 -0.9546  0.7096  0.4804
 2920TIP3    H230176   4.324   4.894  10.985 -0.9222 -0.2734  1.0622
 2921TIP3   OH230177   4.293   4.144  16.997  0.3681  0.4137 -0.1384
 2921TIP3    H130178   4.261   4.140  16.907  0.4445 -1.2594 -0.1190
 2921TIP3    H230179   4.242   4.214  17.038  1.9678  2.8973 -2.0718
 2922TIP3   OH230180   2.138   2.832   1.795 -0.4922 -0.4262  0.4120
 2922TIP3    H130181   2.227   2.798   1.799 -1.2110 -2.5142  0.1877
 2922TIP3    H230182   2.120   2.864   1.883  0.7951  0.9881  0.1912
 2923TIP3   OH230183   1.542   5.697  12.233  0.3074  0.0637  0.7344
 2923TIP3    H130184   1.599   5.750  12.288  1.2727 -1.2179  1.0166
 2923TIP3    H230185   1.581   5.703  12.145 -0.2773  0.7803  0.5193
 2924TIP3   OH230186   5.723   5.660  12.758  0.2526  0.1551  0.0310
 2924TIP3    H130187   5.704   5.750  12.784  0.6868  0.5699 -1.0040
 2924TIP3    H230188   5.665   5.606  12.811 -0.4635  1.0890  0.2186
 2925TIP3   OH230189   6.298   4.964  14.865  0.3680 -0.0096 -0.0536
 2925TIP3    H130190   6.236   4.898  14.835 -0.0166 -0.0696  0.8428
 2925TIP3    H230191   6.245   5.043  14.879  0.6723  0.2361 -0.2836
 2926TIP3   OH230192   2.826   2.446   1.326  0.0094 -0.3281  0.0387
 2926TIP3    H130193   2.881   2.373   1.298 -0.3043 -1.3444  1.8936
 2926TIP3    H230194   2.869   2.479   1.405 -0.2495  1.0626 -0.3731
 2927TIP3   OH230195   4.124   6.209  12.375 -0.0557 -0.1499  0.1396
 2927TIP3    H130196   4.028   6.217  12.377 -0.1404 -1.0091 -0.0955
 2927TIP3    H230197   4.152   6.285  12.323 -0.6011  0.1636  0.2869
 2928TIP3   OH230198   0.814   1.826   1.009 -0.1950 -0.2507 -0.2968
 2928TIP3    H130199   0.813   1.741   0.967  0.2332 -0.4403  0.0589
 2928TIP3    H230200   0.813   1.807   1.103 -1.8197  0.1780 -0.2054
 2929TIP3   OH230201   2.427   4.873   6.587  0.5665 -0.4309  0.1412
 2929TIP3    H130202   2.499   4.933   6.608 -1.0968  0.7018  3.3352
 2929TIP3    H230203   2.434   4.804   6.653  0.2013 -1.7185 -1.1264
 2930TIP3   OH230204   3.786   4.485   2.629 -0.1704 -0.3113 -0.0877
 2930TIP3    H130205   3.767   4.401   2.588 -1.7056  0.2843 -0.6819
 2930TIP3    H230206   3.760   4.550   2.563 -2.4846  0.6953  1.6794
 2931TIP3   OH230207   1.279   2.316  16.720 -0.0720 -0.0003 -0.7315
 2931TIP3    H130208   1.233   2.381  16.665 -0.4313  0.5327  0.1749
 2931TIP3    H230209   1.366   2.354  16.733  0.0783 -0.2180 -1.0750
 2932TIP3   OH230210   3.371   1.078  16.226  0.2339  0.3603 -0.4787
 2932TIP3    H130211   3.313   1.038  16.290 -0.9255  1.7851 -0.5938
 2932TIP3    H230212   3.404   1.156  16.269 -0.3392  1.1875 -1.4886
 2933TIP3   OH230213   4.704   0.293   6.311  0.2866  0.3662  0.2904
 2933TIP3    H130214   4.774   0.258   6.256 -0.3159 -0.2783 -0.0766
 2933TIP3    H230215   4.627   0.292   6.255  0.3978  3.1042 -0.0447
 2934TIP3   OH230216   6.175   6.400   0.896  0.1409 -0.4109 -0.4089
 2934TIP3    H130217   6.105   6.448   0.853 -0.6041 -1.5014 -0.4559
 2934TIP3    H230218   6.184   6.320   0.844  0.9572 -0.5886 -0.0019
 2935TIP3   OH230219   5.994   4.209   2.410 -0.3482 -0.2495  0.2761
 2935TIP3    H130220   6.077   4.214   2.363  0.2649  1.1890  1.4434
 2935TIP3    H230221   5.974   4.300   2.434 -2.0313 -0.6167  0.4176
 2936TIP3   OH230222   1.137   3.089  16.989 -0.4616 -0.2884  0.4099
 2936TIP3    H130223   1.195   3.076  17.064  1.5678 -2.0988 -1.3272
 2936TIP3    H230224   1.196   3.090  16.914 -2.6241 -1.4865 -1.4056
 2937TIP3   OH230225   5.733   3.238   4.555 -0.1012 -0.2611 -0.1584
 2937TIP3    H130226   5.715   3.328   4.584  0.5844 -0.0324 -0.4200
 2937TIP3    H230227   5.699   3.183   4.625 -0.4017  0.2104  0.0739
 2938TIP3   OH230228   5.128   4.640  12.055  0.1823 -0.2518  0.5636
 2938TIP3    H130229   5.148   4.731  12.076 -0.3425 -0.0947  0.3856
 2938TIP3    H230230   5.192   4.617  11.987 -0.3125  0.2888 -0.0913
 2939TIP3   OH230231   6.674   5.553  10.956 -0.0904 -0.0759  0.3700
 2939TIP3    H130232   6.714   5.502  11.027 -0.4938 -0.8001  0.0858
 2939TIP3    H230233   6.722   5.636  10.957  0.8122 -0.5787  0.6302
 2940TIP3   OH230234   6.279   0.153   3.093 -0.1385  0.5163  0.4522
 2940TIP3    H130235   6.251   0.075   3.046  2.1967  0.5445 -1.1542
 2940TIP3    H230236   6.249   0.226   3.038  0.4556  0.6240  0.2616
 2941TIP3   OH230237   5.383   1.051   5.175  0.2058  0.3842 -0.3354
 2941TIP3    H130238   5.442   1.068   5.248 -0.1004 -0.3572  0.0977
 2941TIP3    H230239   5.437   1.002   5.113  0.6165  1.4559 -0.8599
 2942TIP3   OH230240   5.854   1.249  14.722  0.3146  0.2756  0.3161
 2942TIP3    H130241   5.858   1.274  14.815 -1.3974 -0.6833  0.7085
 2942TIP3    H230242   5.873   1.156  14.722 -2.8547 -0.5021  0.2170
 2943TIP3   OH230243   2.933   3.545   6.302  0.3240  0.3052 -0.2387
 2943TIP3    H130244   2.896   3.519   6.218  1.8201  0.3785 -0.9606
 2943TIP3    H230245   2.995   3.615   6.281  0.7803  0.2814  0.9206
 2944TIP3   OH230246   6.381   6.037  12.480 -0.1018 -0.4921  0.2499
 2944TIP3    H130247   6.292   6.071  12.473  0.0325  0.4040  2.2579
 2944TIP3    H230248   6.428   6.076  12.406 -0.5590  1.8455  1.1172
 2945TIP3   OH230249   0.504   2.640   1.955 -0.1034 -0.1311 -0.1192
 2945TIP3    H130250   0.575   2.589   1.915  1.8291  1.7943  0.6290
 2945TIP3    H230251   0.446   2.575   1.994  1.5177 -1.7910 -0.3470
 2946TIP3   OH230252   0.686   4.424   2.699  0.1982 -0.3373 -0.4291
 2946TIP3    H130253   0.777   4.452   2.701  0.4378 -1.0840  1.0690
 2946TIP3    H230254   0.668   4.404   2.607  2.4801 -2.9967 -0.4376
 2947TIP3   OH230255   1.763   3.336  17.001 -0.2353  0.5346  0.0564
 2947TIP3    H130256   1.680   3.347  16.954 -0.0029  0.1232 -0.4704
 2947TIP3    H230257   1.823   3.397  16.958  0.5690 -1.3492 -1.6841
 2948TIP3   OH230258   1.265   1.194  13.318 -0.1091 -0.4966 -0.0517
 2948TIP3    H130259   1.217   1.204  13.236 -0.7201 -1.2039  0.2167
 2948TIP3    H230260   1.198   1.181  13.385  0.3243  1.1561  0.7458
 2949TIP3   OH230261   5.472   4.715  16.666 -0.0783  0.7826 -0.3382
 2949TIP3    H130262   5.484   4.807  16.642  2.2494  0.7261  0.3455
 2949TIP3    H230263   5.551   4.671  16.633 -0.4547 -0.6952  0.6330
 2950TIP3   OH230264   1.925   1.540  12.038  0.0905 -0.0946  0.3571
 2950TIP3    H130265   1.906   1.446  12.035  0.7017 -0.2675  1.2908
 2950TIP3    H230266   1.871   1.578  11.969 -0.7008 -1.0437  0.4319
 2951TIP3   OH230267   2.106   5.394   0.313 -0.2633 -0.8887  0.1453
 2951TIP3    H130268   2.015   5.372   0.332 -0.3224 -1.4592 -0.7936
 2951TIP3    H230269   2.154   5.312   0.326  0.6757  0.0557  3.8473
 2952TIP3   OH230270   4.843   5.027  17.288 -0.2117  0.0019  0.1678
 2952TIP3    H130271   4.822   5.111  17.329  0.6583 -0.2515  1.1949
 2952TIP3    H230272   4.766   5.006  17.235 -0.2884  1.6179 -0.4099
 2953TIP3   OH230273   5.184   3.880  14.992 -0.8426  0.6709 -0.2797
 2953TIP3    H130274   5.220   3.953  14.941  1.0852 -0.6919 -1.0154
 2953TIP3    H230275   5.176   3.914  15.081 -0.7906  2.0081 -0.7658
 2954TIP3   OH230276   5.986   0.274  11.776 -0.2763 -0.3991  0.0559
 2954TIP3    H130277   5.943   0.334  11.837 -1.5374 -2.5838  1.4719
 2954TIP3    H230278   6.001   0.326  11.697 -1.5643  1.6649  1.0793
 2955TIP3   OH230279   1.063   2.860  13.044  0.2675 -0.1093  0.0328
 2955TIP3    H130280   1.146   2.838  13.087 -0.8847 -0.7199  2.0876
 2955TIP3    H230281   1.045   2.785  12.987  0.2943 -0.8047  0.9152
 2956TIP3   OH230282   0.151   5.710  16.907  0.0826 -0.1666  0.1006
 2956TIP3    H130283   0.168   5.734  16.998 -0.2724 -0.5656  0.2756
 2956TIP3    H230284   0.091   5.777  16.875 -0.5790 -0.5795  0.4606
 2957TIP3   OH230285   5.692   1.348   3.019 -0.0836 -1.0010 -0.3732
 2957TIP3    H130286   5.625   1.286   3.047  0.2032 -1.1800 -0.0848
 2957TIP3    H230287   5.714   1.321   2.930 -1.9886  0.4027 -1.3288
 2958TIP3   OH230288   4.384   5.672   3.962  0.1856 -0.1740 -0.3602
 2958TIP3    H130289   4.384   5.722   3.881  0.0299 -1.3681 -1.1310
 2958TIP3    H230290   4.291   5.660   3.983  0.1835 -0.9940 -0.7627
 2959TIP3   OH230291   6.684   4.655  16.930  0.0434 -0.1192 -0.0749
 2959TIP3    H130292   6.611   4.664  16.992  0.2389 -0.5662  0.2248
 2959TIP3    H230293   6.659   4.582  16.874  0.5946 -0.7614  0.5049
 2960TIP3   OH230294   2.862   2.883  15.636  0.1458 -0.2628  0.1348
 2960TIP3    H130295   2.798   2.953  15.625  1.1556  0.4259 -2.0323
 2960TIP3    H230296   2.842   2.822  15.564 -0.3477 -1.9406  1.6343
 2961TIP3   OH230297   0.528   6.523  14.886 -0.3522 -0.1712 -0.0560
 2961TIP3    H130298   0.487   6.600  14.848  1.0059  0.2668 -0.7073
 2961TIP3    H230299   0.555   6.551  14.974  0.1166  0.1009 -0.2835
 2962TIP3   OH230300   3.319   4.767   1.547  0.4762 -0.1637 -0.0694
 2962TIP3    H130301   3.350   4.817   1.623  1.9013 -1.6671  0.4231
 2962TIP3    H230302   3.384   4.784   1.479 -0.2659  0.4079 -0.6492
 2963TIP3   OH230303   4.399   0.589   5.151 -0.2777 -0.0930  0.1420
 2963TIP3    H130304   4.346   0.621   5.225 -0.7888 -0.5098 -0.0351
 2963TIP3    H230305   4.482   0.635   5.159 -0.8606  0.9811  0.1195
 2964TIP3   OH230306   3.810   5.620  17.234  0.4046  0.0492 -0.3817
 2964TIP3    H130307   3.777   5.575  17.156  0.5646  0.9224 -0.9679
 2964TIP3    H230308   3.842   5.549  17.290 -1.2190 -0.7310 -0.3686
 2965TIP3   OH230309   5.754   0.245  11.248  0.0447  0.1643 -0.4831
 2965TIP3    H130310   5.689   0.294  11.298 -0.6022 -0.2500 -0.8881
 2965TIP3    H230311   5.749   0.282  11.160 -1.1808 -1.2554 -1.0560
 2966TIP3   OH230312   1.272   6.756  12.725  0.0538 -0.6607 -0.2436
 2966TIP3    H130313   1.274   6.831  12.665  4.6462 -0.1068  0.2937
 2966TIP3    H230314   1.237   6.684  12.672 -0.2205  0.8156 -2.1733
 2967TIP3   OH230315   6.047   6.181   3.304 -0.0105 -0.3736 -0.3644
 2967TIP3    H130316   6.005   6.150   3.385 -1.1600  1.8579 -0.0237
 2967TIP3    H230317   5.997   6.139   3.234  1.1071 -2.4715  0.0310
 2968TIP3   OH230318   3.607   3.485   0.052  0.1295  0.1382 -0.5135
 2968TIP3    H130319   3.592   3.481  -0.043  0.2175 -0.1790 -0.5144
 2968TIP3    H230320   3.698   3.459   0.063 -0.0335 -0.3516 -0.2980
 2969TIP3   OH230321   6.510   4.765   0.543 -0.1833  0.0604  0.1602
 2969TIP3    H130322   6.443   4.831   0.558 -0.1421  0.0131  0.5832
 2969TIP3    H230323   6.565   4.769   0.622  0.1316 -0.1094 -0.0457
 2970TIP3   OH230324   5.238   4.505   2.982  0.5959 -0.5535 -0.2480
 2970TIP3    H130325   5.311   4.513   3.044  2.3215  0.1684 -2.2690
 2970TIP3    H230326   5.279   4.509   2.896 -1.6527 -2.2297 -1.4803
 2971TIP3   OH230327   1.306   1.814   1.759  0.3778 -0.6983  0.0826
 2971TIP3    H130328   1.396   1.843   1.775  0.0022  2.0917 -2.0242
 2971TIP3    H230329   1.314   1.747   1.691  0.8950  0.4094 -1.0094
 2972TIP3   OH230330   5.514   5.108  12.561 -0.1812 -0.6450  0.0181
 2972TIP3    H130331   5.510   5.043  12.631 -1.8884  0.3069  0.8674
 2972TIP3    H230332   5.427   5.105  12.520  0.7413 -1.1223 -2.0562
 2973TIP3   OH230333   4.538   3.837   4.497 -0.2604 -0.0952  0.0591
 2973TIP3    H130334   4.611   3.809   4.552 -0.7046  1.0310  1.2940
 2973TIP3    H230335   4.550   3.931   4.486 -1.1140 -0.0162 -0.3231
 2974TIP3   OH230336   0.208   2.184  12.523  0.2668  0.3222 -0.3179
 2974TIP3    H130337   0.204   2.098  12.481  0.4298 -0.1198  0.5556
 2974TIP3    H230338   0.122   2.223  12.507 -0.0428 -0.2783 -0.1446
 2975TIP3   OH230339   0.232   5.576  13.465  0.0279 -0.1985  0.8370
 2975TIP3    H130340   0.186   5.636  13.524 -0.5121 -1.5009  1.7859
 2975TIP3    H230341   0.281   5.633  13.407  0.1375  1.1489  2.1885
 2976TIP3   OH230342   6.488   0.242  12.985  0.5509 -0.1533  0.3134
 2976TIP3    H130343   6.522   0.256  12.897  0.6174 -1.0705  0.1782
 2976TIP3    H230344   6.407   0.193  12.972  0.7462 -0.6066  0.7756
 2977TIP3   OH230345   0.551   5.437  14.855 -0.4552 -0.0687  0.1034
 2977TIP3    H130346   0.542   5.515  14.910 -0.2749  0.4435 -0.5781
 2977TIP3    H230347   0.641   5.408  14.868  0.0338  0.8735 -0.9615
 2978TIP3   OH230348   1.523   3.272   6.110 -0.0770 -0.2927  0.3162
 2978TIP3    H130349   1.505   3.304   6.198  1.0207 -1.3006  0.9378
 2978TIP3    H230350   1.578   3.195   6.123  0.6772 -0.0688 -1.2807
 2979TIP3   OH230351   6.732   3.021  12.332 -0.1085 -0.1056  0.1395
 2979TIP3    H130352   6.657   3.070  12.299  0.2875 -0.0058 -0.6333
 2979TIP3    H230353   6.767   3.076  12.403  1.4883  1.7697 -1.9400
 2980TIP3   OH230354   2.811   5.877   5.997 -0.1546  0.0227 -0.2034
 2980TIP3    H130355   2.880   5.923   5.950 -0.9271  0.1326 -1.2694
 2980TIP3    H230356   2.742   5.863   5.931 -1.5288  0.7046  1.0173
 2981TIP3   OH230357   0.053   0.592   3.886  0.3466  0.2441  0.9412
 2981TIP3    H130358  -0.008   0.651   3.842  1.9226  1.3312  0.0963
 2981TIP3    H230359   0.068   0.522   3.823 -1.5172 -1.1264  1.9412
 2982TIP3   OH230360   5.858   2.437   3.017  0.0316 -0.3079 -0.2492
 2982TIP3    H130361   5.950   2.464   3.023 -0.1278  0.5253 -1.1698
 2982TIP3    H230362   5.814   2.487   3.085  0.1986 -0.3793 -0.0886
 2983TIP3   OH230363   2.906   3.203  14.877  0.1987 -0.2845  0.3885
 2983TIP3    H130364   2.935   3.267  14.943 -1.8875 -0.3468  1.4390
 2983TIP3    H230365   2.988   3.168  14.841  1.4195  0.2988  2.4060
 2984TIP3   OH230366   0.549   3.469   4.705 -0.4550  0.2027  0.3241
 2984TIP3    H130367   0.598   3.543   4.669 -0.2698  0.0513  0.2676
 2984TIP3    H230368   0.485   3.448   4.637 -0.5432  0.3451  0.3628
 2985TIP3   OH230369   2.910   1.308   6.390 -0.0913 -0.3853 -0.1341
 2985TIP3    H130370   2.898   1.398   6.421 -2.8974 -0.9553  0.7740
 2985TIP3    H230371   2.998   1.284   6.418  0.9290  2.2166 -0.8620
 2986TIP3   OH230372   5.799   3.083  12.157 -0.2479 -0.1008  0.2459
 2986TIP3    H130373   5.752   3.074  12.240 -0.7739  0.3036 -0.0047
 2986TIP3    H230374   5.845   3.000  12.147  0.1172 -0.0207  1.1217
 2987TIP3   OH230375   3.664   3.885  12.578  0.2547  0.0418  0.0978
 2987TIP3    H130376   3.582   3.840  12.601 -0.4773  0.9990 -0.5551
 2987TIP3    H230377   3.647   3.976  12.601  1.4306  0.1311  0.6600
 2988TIP3   OH230378   5.273   6.558  11.403  0.1468  0.0023 -0.3140
 2988TIP3    H130379   5.296   6.466  11.416 -1.8183 -0.5478 -0.3019
 2988TIP3    H230380   5.241   6.561  11.313  1.3352  0.9547 -0.7185
 2989TIP3   OH230381   3.323   5.673  12.251  0.3392 -0.0278 -0.0305
 2989TIP3    H130382   3.314   5.768  12.250  1.5296  0.1192  1.1041
 2989TIP3    H230383   3.418   5.658  12.251  0.1656 -1.2001  0.7089
 2990TIP3   OH230384   1.144   2.727  16.149  0.2379  0.6427  0.3681
 2990TIP3    H130385   1.214   2.689  16.096  0.3815  0.4044  0.7260
 2990TIP3    H230386   1.092   2.778  16.086 -1.1041 -1.6500 -0.5360
 2991TIP3   OH230387   4.616   3.817  14.377  0.1493 -0.1608 -0.3078
 2991TIP3    H130388   4.546   3.879  14.398 -1.0434 -1.4719 -0.2213
 2991TIP3    H230389   4.570   3.738  14.349  1.6081 -1.1330 -0.0921
 2992TIP3   OH230390   3.569   1.322  16.168 -0.3873 -0.1138 -0.1060
 2992TIP3    H130391   3.622   1.256  16.125  0.8485  1.9470 -1.9180
 2992TIP3    H230392   3.618   1.404  16.158 -2.9523  1.5520 -0.1633
 2993TIP3   OH230393   0.379   2.513  14.036  0.2185  0.4602  0.3229
 2993TIP3    H130394   0.339   2.469  13.961 -1.0808  1.4587  0.3953
 2993TIP3    H230395   0.388   2.444  14.102  0.1393 -0.1364 -0.2755
 2994TIP3   OH230396   5.230   2.224  11.828 -0.3058  0.1434 -0.0188
 2994TIP3    H130397   5.172   2.171  11.882  1.3576  0.6167  2.3611
 2994TIP3    H230398   5.299   2.163  11.800  0.6595  0.6133  1.2619
 2995TIP3   OH230399   0.171   2.677  13.633  0.4798  0.1430 -0.2497
 2995TIP3    H130400   0.084   2.652  13.664 -0.2216  0.7525 -1.6114
 2995TIP3    H230401   0.226   2.676  13.711 -1.1449  1.5046  0.9897
 2996TIP3   OH230402   5.597   6.203   2.914 -0.1324  0.1774  0.1892
 2996TIP3    H130403   5.646   6.189   2.995  1.2856  1.1087 -0.4680
 2996TIP3    H230404   5.628   6.287   2.881 -1.5911  0.4083 -0.7063
 2997TIP3   OH230405   1.823   5.958  16.344  0.0902 -1.2212 -0.7771
 2997TIP3    H130406   1.831   5.863  16.351  1.1493 -1.0676  0.6457
 2997TIP3    H230407   1.908   5.991  16.373  0.7467  0.1255 -3.8398
 2998TIP3   OH230408   0.141   2.073   1.842  0.3461 -0.4880 -0.5582
 2998TIP3    H130409   0.165   2.146   1.899 -0.6155  0.7064 -1.6068
 2998TIP3    H230410   0.174   1.995   1.886  0.6993  0.5058  0.9943
 2999TIP3   OH230411   4.360   4.505  12.641 -0.2807 -0.4922 -0.0710
 2999TIP3    H130412   4.401   4.421  12.620  0.1232 -0.4296  0.4641
 2999TIP3    H230413   4.278   4.504  12.591  0.2002 -0.7591 -0.8785
 3000TIP3   OH230414   1.119   1.984   4.889 -0.4793 -0.0901 -0.7765
 3000TIP3    H130415   1.068   2.050   4.842 -4.3097 -1.2897  1.3046
 3000TIP3    H230416   1.093   1.901   4.849  0.1968 -0.7231  0.0594
 3001TIP3   OH230417   4.352   5.960   5.023  0.3882 -0.2364 -0.0205
 3001TIP3    H130418   4.378   6.004   5.104  0.9640 -1.1441  0.3036
 3001TIP3    H230419   4.435   5.940   4.979  0.2835 -2.5538  0.6983
 3002TIP3   OH230420   1.222   4.957   0.167  0.1602  0.0920 -0.4894
 3002TIP3    H130421   1.229   4.990   0.257 -1.0045 -0.8249 -0.0358
 3002TIP3    H230422   1.240   5.033   0.112  1.4942  0.5367  0.5061
 3003TIP3   OH230423   2.241   4.679  13.251 -0.5203 -0.4801  0.1802
 3003TIP3    H130424   2.298   4.620  13.201 -1.4560 -1.7657  0.5779
 3003TIP3    H230425   2.190   4.725  13.184  1.0741  0.8453 -0.1951
 3004TIP3   OH230426   3.071   2.020   4.564  0.0828  0.0279 -0.5863
 3004TIP3    H130427   3.007   1.988   4.628  1.4100 -0.5450  0.5008
 3004TIP3    H230428   3.018   2.054   4.492 -1.4641 -3.0819 -1.0802
 3005TIP3   OH230429   2.318   6.640   2.086  0.3137  0.5321  0.1447
 3005TIP3    H130430   2.329   6.557   2.041 -0.4451  0.8991 -0.7549
 3005TIP3    H230431   2.404   6.681   2.084  1.5515 -1.5292  3.3820
 3006TIP3   OH230432   6.593   0.238  11.183  0.7626  0.0485 -0.2222
 3006TIP3    H130433   6.612   0.240  11.089  2.5199 -0.5925  0.0853
 3006TIP3    H230434   6.650   0.304  11.221  0.2403  0.1286  0.4371
 3007TIP3   OH230435   4.804   5.490  13.895  0.6948  0.0636 -0.0327
 3007TIP3    H130436   4.730   5.437  13.864 -0.1705  1.5605 -0.6516
 3007TIP3    H230437   4.817   5.463  13.986  0.4127 -1.3144 -0.3755
 3008TIP3   OH230438   5.247   3.124  13.541 -0.1729 -0.1483  0.2933
 3008TIP3    H130439   5.241   3.069  13.619 -0.7979 -0.3227  0.1330
 3008TIP3    H230440   5.301   3.074  13.480  2.5939  1.1298  1.5327
 3009TIP3   OH230441   6.563   0.778  15.157  0.1356  0.1371 -0.4252
 3009TIP3    H130442   6.575   0.751  15.067  3.7025  0.1719 -0.0934
 3009TIP3    H230443   6.589   0.871  15.158 -0.1344  0.2146  0.5789
 3010TIP3   OH230444   4.207   4.769   1.619 -0.1428  0.2049  0.5030
 3010TIP3    H130445   4.293   4.796   1.588 -0.7251  0.9130 -0.5755
 3010TIP3    H230446   4.167   4.849   1.652 -0.0689 -0.2826  1.8580
 3011TIP3   OH230447   2.455   0.057   2.552  0.6487 -0.5811 -0.0637
 3011TIP3    H130448   2.469  -0.010   2.485  0.4373  0.9056 -1.6430
 3011TIP3    H230449   2.383   0.110   2.519  1.2543  0.8408  0.8174
 3012TIP3   OH230450   1.910   0.580  16.450  0.1532  0.0857 -0.3750
 3012TIP3    H130451   1.935   0.592  16.359 -0.6713  1.4524 -0.4585
 3012TIP3    H230452   1.992   0.559  16.495  0.6418 -0.1458 -1.3507
 3013TIP3   OH230453   2.787   5.063   2.514  0.0985  0.2083 -0.0704
 3013TIP3    H130454   2.779   4.973   2.546 -0.5684  0.0988 -0.5284
 3013TIP3    H230455   2.880   5.084   2.525  0.1852 -0.3924  0.4106
 3014TIP3   OH230456   2.669   2.558   1.116 -0.5927  1.1010  0.0573
 3014TIP3    H130457   2.698   2.494   1.181 -1.0567  2.2678  1.4642
 3014TIP3    H230458   2.610   2.509   1.059  0.7493 -0.2393 -0.2479
 3015TIP3   OH230459   4.819   2.771   0.083 -0.0699  0.3698  0.4385
 3015TIP3    H130460   4.797   2.861   0.110  3.0114  1.1341  0.7964
 3015TIP3    H230461   4.781   2.763  -0.004 -1.3299  1.6249  0.8272
 3016TIP3   OH230462   1.550   4.626  13.473  0.4087  0.0060  0.3837
 3016TIP3    H130463   1.522   4.535  13.466 -1.7854  0.6176  0.2495
 3016TIP3    H230464   1.505   4.670  13.401  1.9333  1.1046  0.0585
 3017TIP3   OH230465   3.635   0.958   3.916 -0.2610  0.4063  0.0328
 3017TIP3    H130466   3.561   0.948   3.857 -0.8798  2.0742  0.4455
 3017TIP3    H230467   3.628   0.884   3.976 -0.2387 -0.7143 -1.3030
 3018TIP3   OH230468   0.366   3.467  14.140 -0.0096  0.1933 -0.1615
 3018TIP3    H130469   0.378   3.437  14.230 -0.5007  1.3052  0.2953
 3018TIP3    H230470   0.282   3.513  14.141  0.0094  0.2688 -1.1747
 3019TIP3   OH230471   1.888   1.678   5.381 -0.1169 -0.5419  0.6600
 3019TIP3    H130472   1.817   1.637   5.430 -2.2618  1.9813 -0.0734
 3019TIP3    H230473   1.857   1.679   5.290  1.0619  0.2124  0.2401
 3020TIP3   OH230474   0.412   2.535  14.340 -0.4493  0.0266  0.4423
 3020TIP3    H130475   0.406   2.440  14.332  1.6487  0.0184 -1.8282
 3020TIP3    H230476   0.329   2.567  14.303  0.1792 -0.8626 -1.8983
 3021TIP3   OH230477   1.773   0.192  12.044 -0.0127 -0.2354 -0.4551
 3021TIP3    H130478   1.814   0.235  11.968 -1.5921 -0.1809 -1.3231
 3021TIP3    H230479   1.846   0.160  12.096  1.2038  2.1439 -0.5572
 3022TIP3   OH230480   0.962   5.049  14.276  0.1056 -0.5995 -0.5298
 3022TIP3    H130481   1.049   5.065  14.313 -0.1320 -0.2776 -0.1113
 3022TIP3    H230482   0.973   5.066  14.182  0.3938 -0.1720 -0.4212
 3023TIP3   OH230483   0.286   0.619  13.439  0.1727  0.3634  0.0261
 3023TIP3    H130484   0.314   0.550  13.379 -1.0680  0.5240 -0.7578
 3023TIP3    H230485   0.365   0.671  13.453  0.4238  0.5059 -1.7224
 3024TIP3   OH230486   1.705   0.210  12.835  0.2000 -0.0561 -0.1048
 3024TIP3    H130487   1.679   0.282  12.778 -0.4618  0.2760  0.5977
 3024TIP3    H230488   1.752   0.253  12.907 -1.4328 -0.1265  1.0728
 3025TIP3   OH230489   0.137   6.357  10.467 -0.3128 -0.5359  0.3848
 3025TIP3    H130490   0.148   6.279  10.522  0.1465 -0.5920  0.2194
 3025TIP3    H230491   0.226   6.384  10.445 -0.4838 -0.3517 -0.1066
 3026TIP3   OH230492   1.116   5.159   6.295 -0.0212 -0.0883 -0.3409
 3026TIP3    H130493   1.076   5.246   6.305 -0.9315 -0.3857 -1.1623
 3026TIP3    H230494   1.132   5.129   6.384 -1.7488  0.0113  0.0419
 3027TIP3   OH230495   6.039   4.646   4.060  0.2362  0.2057 -0.2578
 3027TIP3    H130496   5.989   4.603   3.990  0.7202 -1.2204  0.2557
 3027TIP3    H230497   6.097   4.706   4.014 -0.9114  0.8280 -0.9493
 3028TIP3   OH230498   0.348   0.757   3.401  0.0385  0.3922  0.3133
 3028TIP3    H130499   0.419   0.821   3.398 -0.5456  1.0268 -0.3616
 3028TIP3    H230500   0.380   0.682   3.350  0.3353  0.5523  0.2629
 3029TIP3   OH230501   5.329   4.403  13.745 -0.0979 -0.5413  0.2031
 3029TIP3    H130502   5.264   4.377  13.811 -0.3385 -0.6643 -0.0799
 3029TIP3    H230503   5.289   4.477  13.700  0.0742 -0.4469  0.2062
 3030TIP3   OH230504   0.987   0.314  10.750 -0.6822 -0.1569 -0.2529
 3030TIP3    H130505   1.029   0.331  10.665  0.8838  1.3861  0.7402
 3030TIP3    H230506   0.965   0.401  10.783 -2.5476 -0.8142  0.3496
 3031TIP3   OH230507   5.570   0.187   5.703 -0.3896  0.1963  0.0149
 3031TIP3    H130508   5.489   0.188   5.755 -0.9320  2.2358 -0.7681
 3031TIP3    H230509   5.549   0.238   5.625  0.3994 -2.7487 -2.2973
 3032TIP3   OH230510   4.595   5.333  11.307  0.0397  0.5534  0.4563
 3032TIP3    H130511   4.577   5.310  11.215 -1.8015  1.6550  0.4717
 3032TIP3    H230512   4.537   5.277  11.358  1.0461 -0.0435  0.9620
 3033TIP3   OH230513   0.694   5.898   1.290 -0.0073 -0.0479  0.3027
 3033TIP3    H130514   0.702   5.875   1.383 -1.0699  2.1875  1.0187
 3033TIP3    H230515   0.621   5.846   1.258  1.2562 -1.8963  0.2964
 3034TIP3   OH230516   2.532   4.329  12.547  0.0767  0.1146  0.5340
 3034TIP3    H130517   2.548   4.403  12.489  1.7044 -1.7887 -1.6261
 3034TIP3    H230518   2.615   4.316  12.594 -0.4042  0.0523  1.3884
 3035TIP3   OH230519   1.763   4.729   0.784 -0.1365  0.2109 -0.4366
 3035TIP3    H130520   1.720   4.651   0.751 -3.6398  1.2869  1.0432
 3035TIP3    H230521   1.855   4.705   0.791 -0.9007 -3.4424 -0.9032
 3036TIP3   OH230522   5.566   2.239   0.861  0.5674 -0.3354 -0.3261
 3036TIP3    H130523   5.658   2.257   0.841  0.4129 -0.3883 -1.1124
 3036TIP3    H230524   5.518   2.280   0.789 -0.0201 -0.3921  0.0334
 3037TIP3   OH230525   0.747   1.317   2.011  0.6468  0.1015  0.4482
 3037TIP3    H130526   0.838   1.344   2.026  0.6325 -1.4690  4.5651
 3037TIP3    H230527   0.694   1.384   2.055 -0.0192 -0.5076  0.5882
 3038TIP3   OH230528   4.089   5.082  15.793  0.3849  0.1622  0.1920
 3038TIP3    H130529   4.099   5.029  15.872  1.7629 -0.3498 -0.2914
 3038TIP3    H230530   4.098   5.020  15.720 -0.9876  0.6050 -0.3960
 3039TIP3   OH230531   0.614   0.167  13.208 -0.6921  0.1981 -0.5022
 3039TIP3    H130532   0.540   0.196  13.155  0.1240 -0.6775 -2.1686
 3039TIP3    H230533   0.689   0.168  13.149  0.1590 -1.2927  0.4752
 3040TIP3   OH230534   4.509   6.111  14.970  0.0341 -0.0203 -0.0862
 3040TIP3    H130535   4.504   6.207  14.961 -0.1553 -0.0550 -0.3704
 3040TIP3    H230536   4.426   6.080  14.935  0.7972 -0.4040 -1.6866
 3041TIP3   OH230537   0.939   4.905  12.145 -0.3587  0.0004  0.1391
 3041TIP3    H130538   0.964   4.997  12.144  0.6166 -0.2637 -0.3529
 3041TIP3    H230539   0.958   4.873  12.057 -1.9657 -0.3524 -0.1142
 3042TIP3   OH230540   4.285   6.592   3.394 -0.3063 -0.3084  0.2025
 3042TIP3    H130541   4.213   6.655   3.398 -0.6852 -0.6111 -1.1505
 3042TIP3    H230542   4.359   6.642   3.361 -0.6035 -0.5397 -0.8578
 3043TIP3   OH230543   3.275   5.931  13.474 -0.0290  0.1720 -0.0451
 3043TIP3    H130544   3.360   5.910  13.514 -0.6242  0.4505  1.4524
 3043TIP3    H230545   3.271   6.027  13.478  0.5145  0.3334 -2.1870
 3044TIP3   OH230546   3.095   0.327  13.981 -0.5153 -0.0953  0.0361
 3044TIP3    H130547   3.133   0.310  13.894 -0.2393  0.8964 -0.0395
 3044TIP3    H230548   3.132   0.257  14.036 -0.3974 -0.5130 -0.5527
 3045TIP3   OH230549   4.429   3.570   0.030 -0.1447 -0.0689  0.3337
 3045TIP3    H130550   4.521   3.597   0.042  0.0901 -0.9888  0.6701
 3045TIP3    H230551   4.385   3.601   0.109  0.1405 -0.7523  0.7593
 3046TIP3   OH230552   0.928   5.876  14.420  0.3879 -0.2666 -0.1920
 3046TIP3    H130553   0.984   5.811  14.379  0.0228 -0.9294  0.3393
 3046TIP3    H230554   0.918   5.944  14.354  0.2676 -1.0424 -0.9935
 3047TIP3   OH230555   4.667   4.722  11.074 -0.2345 -0.1977 -0.5488
 3047TIP3    H130556   4.718   4.749  11.150 -0.3142  0.1655 -0.6251
 3047TIP3    H230557   4.689   4.784  11.006 -1.3773  0.4600 -0.3514
 3048TIP3   OH230558   6.094   1.373  13.046 -0.4788 -0.4323 -0.2037
 3048TIP3    H130559   6.004   1.385  13.016 -1.2251 -1.5564  1.4044
 3048TIP3    H230560   6.112   1.449  13.101 -0.4970 -0.2734 -0.4191
 3049TIP3   OH230561   5.634   5.499   4.050  0.4106 -0.4946 -0.4080
 3049TIP3    H130562   5.609   5.529   4.137 -0.4687  0.2775 -0.9044
 3049TIP3    H230563   5.726   5.522   4.041  0.5934 -0.8898  0.4412
 3050TIP3   OH230564   1.241   5.934  16.869 -0.0554  0.1966 -0.2249
 3050TIP3    H130565   1.160   5.886  16.852  0.4526 -1.1417  1.0366
 3050TIP3    H230566   1.299   5.871  16.911  1.3971  1.3396 -0.4253
 3051TIP3   OH230567   1.697   6.257  14.870 -0.4793 -0.5852  0.1767
 3051TIP3    H130568   1.602   6.255  14.856 -0.3652 -0.5268 -0.6790
 3051TIP3    H230569   1.711   6.334  14.926 -0.8839 -0.2593 -0.1573
 3052TIP3   OH230570   6.473   5.226  13.832  0.3655 -0.3816 -0.0035
 3052TIP3    H130571   6.463   5.210  13.926  0.7026 -0.3819  0.0321
 3052TIP3    H230572   6.406   5.291  13.812  0.1161 -0.5733  0.1848
 3053TIP3   OH230573   4.762   5.070   6.901  0.1211  0.0593  1.0886
 3053TIP3    H130574   4.817   5.078   6.823 -1.3635  0.0138 -0.0137
 3053TIP3    H230575   4.763   5.158   6.940  1.7116 -0.1804  1.6304
 3054TIP3   OH230576   4.566   5.324   2.068  0.2026 -0.6499  0.1814
 3054TIP3    H130577   4.485   5.372   2.049  0.2110 -1.0972 -1.1189
 3054TIP3    H230578   4.552   5.286   2.155 -0.3500  0.5580  0.6387
 3055TIP3   OH230579   1.717   5.518   2.040  0.2726  0.1867 -0.3964
 3055TIP3    H130580   1.672   5.528   1.956  0.5417  2.3539 -0.3238
 3055TIP3    H230581   1.725   5.423   2.051 -2.2200 -0.2274 -1.4792
 3056TIP3   OH230582   5.326   0.409   2.101 -0.0217 -0.1395 -0.6251
 3056TIP3    H130583   5.376   0.354   2.040 -0.0769 -3.2323  1.8452
 3056TIP3    H230584   5.244   0.362   2.114 -0.1899  0.6271  1.4388
 3057TIP3   OH230585   6.681   5.333  17.284  0.2455  0.4892  0.6323
 3057TIP3    H130586   6.654   5.394  17.215  1.2913 -0.1475 -0.3884
 3057TIP3    H230587   6.769   5.305  17.258  0.1101 -0.8562  1.4930
 3058TIP3   OH230588   3.122   6.580   0.489 -0.3988  0.4108  0.3291
 3058TIP3    H130589   3.135   6.673   0.505  1.5114  0.3852 -0.7318
 3058TIP3    H230590   3.081   6.576   0.402 -0.5093  0.2716  0.3874
 3059TIP3   OH230591   4.814   3.730   5.199  0.0997  0.0854  0.5466
 3059TIP3    H130592   4.843   3.715   5.109  0.3682  1.0857  0.4625
 3059TIP3    H230593   4.837   3.821   5.217 -0.9484  0.2251  1.2480
 3060TIP3   OH230594   1.363   4.239   0.645  0.6166  0.8845  0.2772
 3060TIP3    H130595   1.331   4.164   0.696  0.8907  1.2847  1.0504
 3060TIP3    H230596   1.341   4.316   0.698  0.3468  1.3618 -0.5001
 3061TIP3   OH230597   5.792   5.634  12.492  0.0502  0.0603  0.5780
 3061TIP3    H130598   5.726   5.581  12.449  1.8756 -1.3188 -0.6726
 3061TIP3    H230599   5.774   5.625  12.586 -0.4487 -1.7604  0.3275
 3062TIP3   OH230600   0.367   0.654  16.903 -0.2273 -0.6510  0.4322
 3062TIP3    H130601   0.319   0.737  16.901  0.3842 -0.3013  0.0807
 3062TIP3    H230602   0.438   0.665  16.840 -0.8667 -1.8997 -0.5656
 3063TIP3   OH230603   1.876   4.795  14.025  0.5150  0.5550  0.3864
 3063TIP3    H130604   1.851   4.829  14.112 -1.1832 -0.2237  0.2405
 3063TIP3    H230605   1.924   4.715  14.044 -1.6434 -0.7653  0.6452
 3064TIP3   OH230606   6.109   3.776  14.035  0.3708 -0.8052  0.5616
 3064TIP3    H130607   6.203   3.767  14.051  0.7642  0.5419 -0.8141
 3064TIP3    H230608   6.084   3.855  14.082  0.0796 -0.7168  0.2564
 3065TIP3   OH230609   6.609   0.024  15.505  0.7371 -0.1807  0.3245
 3065TIP3    H130610   6.696   0.060  15.520  0.9231 -0.3504 -0.3049
 3065TIP3    H230611   6.551   0.101  15.501  0.8756 -0.0616  0.6304
 3066TIP3   OH230612   3.494   0.848   1.869  0.8465 -0.2018  0.4861
 3066TIP3    H130613   3.577   0.889   1.895  0.7134  0.6996 -0.4300
 3066TIP3    H230614   3.494   0.764   1.914  1.4503  0.5127  1.9196
 3067TIP3   OH230615   1.251   1.281   5.415  0.2061 -0.0977  0.0356
 3067TIP3    H130616   1.167   1.264   5.457 -0.1236  1.2879 -0.0049
 3067TIP3    H230617   1.284   1.360   5.458  0.4763  0.6055 -1.3740
 3068TIP3   OH230618   5.769   2.255  16.515  0.2317  0.1816 -0.4593
 3068TIP3    H130619   5.823   2.324  16.478  0.4988 -0.1412 -0.6734
 3068TIP3    H230620   5.830   2.200  16.564 -0.1983  0.9376  0.9810
 3069TIP3   OH230621   4.881   1.221  16.060 -0.2080 -0.0525  0.4392
 3069TIP3    H130622   4.811   1.210  15.995  0.3643  0.2213 -0.2424
 3069TIP3    H230623   4.941   1.284  16.020  0.2095  0.0428  1.1991
 3070TIP3   OH230624   3.074   2.612   1.136  0.2189  0.3048  0.2384
 3070TIP3    H130625   3.073   2.526   1.094 -1.3873  0.4045 -0.0081
 3070TIP3    H230626   3.164   2.623   1.167  0.4011 -1.5720  0.5070
 3071TIP3   OH230627   3.756   2.090   0.620  0.7166  0.2897  0.1808
 3071TIP3    H130628   3.682   2.147   0.642  0.7711  0.6161 -0.4704
 3071TIP3    H230629   3.736   2.058   0.532  0.3985 -1.1703  0.7521
 3072TIP3   OH230630   2.461   2.089  13.452  0.6452  0.2726 -0.0932
 3072TIP3    H130631   2.520   2.147  13.501 -1.6402  1.7258  1.1038
 3072TIP3    H230632   2.397   2.060  13.517 -0.3417 -0.7324 -1.4670
 3073TIP3   OH230633   2.686   2.871  14.997  0.0120  0.5232 -0.3840
 3073TIP3    H130634   2.748   2.864  14.924 -0.4943  0.9197 -0.8616
 3073TIP3    H230635   2.669   2.965  15.005  1.5868  0.6998  1.5626
 3074TIP3   OH230636   4.360   2.105   0.961 -0.4028  0.2089 -0.1311
 3074TIP3    H130637   4.307   2.163   0.906  0.1133  0.3056 -0.5315
 3074TIP3    H230638   4.382   2.032   0.904  0.4557  0.4926 -0.1757
 3075TIP3   OH230639   3.908   1.548   2.892 -0.1694  0.1939 -0.0908
 3075TIP3    H130640   3.829   1.522   2.843 -0.2098  0.2361 -0.0482
 3075TIP3    H230641   3.971   1.478   2.875 -0.4554 -0.2009  0.4522
 3076TIP3   OH230642   6.048   3.954  11.768  0.5425  0.1996 -0.0616
 3076TIP3    H130643   5.996   3.954  11.848  1.4311 -0.4546  0.5350
 3076TIP3    H230644   6.070   3.862  11.754  1.8109  0.4955 -0.1054
 3077TIP3   OH230645   0.389   2.235  14.271 -0.0522  0.5275  0.1608
 3077TIP3    H130646   0.325   2.227  14.342  0.0484  0.7986  0.2855
 3077TIP3    H230647   0.430   2.149  14.266 -0.3036  0.4039  0.1971
 3078TIP3   OH230648   5.989   4.977  15.075  0.6931 -0.3473 -0.4541
 3078TIP3    H130649   6.059   4.950  15.135 -0.2269 -1.3391  0.2253
 3078TIP3    H230650   5.946   5.049  15.120 -0.0519 -1.1493  0.1463
 3079TIP3   OH230651   3.868   4.020  11.056  0.0280  0.3803  0.0977
 3079TIP3    H130652   3.926   3.978  11.120 -1.5182 -1.8127  0.1455
 3079TIP3    H230653   3.896   4.112  11.056  1.4473  0.0334  2.3728
 3080TIP3   OH230654   3.303   2.913  15.000 -0.3216  1.1082  0.2402
 3080TIP3    H130655   3.328   2.881  15.087 -2.2731  0.0814  0.4876
 3080TIP3    H230656   3.355   2.861  14.939 -0.2967  0.5223  0.7537
 3081TIP3   OH230657   0.942   2.817   1.602  0.7463  0.0084 -0.3425
 3081TIP3    H130658   0.901   2.887   1.552 -0.3597 -0.4434 -0.0988
 3081TIP3    H230659   0.937   2.740   1.544  1.8937  0.1044 -0.5870
 3082TIP3   OH230660   3.547   1.566  13.698  0.8185 -0.2646 -0.2836
 3082TIP3    H130661   3.601   1.590  13.623 -1.4452  0.4235 -1.7858
 3082TIP3    H230662   3.523   1.475  13.682  1.6309 -0.6273  0.4773
 3083TIP3   OH230663   1.832   5.010  14.303 -0.4551  0.3610 -0.0621
 3083TIP3    H130664   1.818   4.994  14.396 -1.1599 -1.9725 -0.5118
 3083TIP3    H230665   1.750   5.050  14.273 -0.1009  1.4304  0.3578
 3084TIP3   OH230666   3.276   4.298  14.878  0.2399 -0.0760 -0.1408
 3084TIP3    H130667   3.252   4.334  14.793 -2.6177  0.0564  0.6463
 3084TIP3    H230668   3.296   4.206  14.860  0.3631  0.1139 -1.0348
 3085TIP3   OH230669   4.567   4.203   2.681 -0.1501 -0.3478  0.4339
 3085TIP3    H130670   4.580   4.254   2.601 -0.1093  0.0288  0.6804
 3085TIP3    H230671   4.490   4.242   2.722 -0.3862 -0.7686  0.4021
 3086TIP3   OH230672   3.889   3.818   2.909 -0.1838 -0.0409  0.0573
 3086TIP3    H130673   3.953   3.867   2.960  0.5401 -0.4776 -0.4141
 3086TIP3    H230674   3.921   3.824   2.819 -1.1171  0.2138 -0.2774
 3087TIP3   OH230675   6.534   5.109   2.449  0.4459  0.8079 -0.8786
 3087TIP3    H130676   6.463   5.066   2.496 -0.5402  0.5448 -2.5450
 3087TIP3    H230677   6.600   5.127   2.516 -0.6351 -0.1045  0.4708
 3088TIP3   OH230678   5.817   0.829  15.849 -0.0346 -0.1073  0.0219
 3088TIP3    H130679   5.855   0.901  15.797 -0.8266 -0.0497 -0.4973
 3088TIP3    H230680   5.794   0.870  15.932 -0.6051  0.2869 -0.3189
 3089TIP3   OH230681   4.448   5.911  15.699 -0.3630  0.0689  0.1505
 3089TIP3    H130682   4.367   5.908  15.749 -1.2015  1.6689 -1.0367
 3089TIP3    H230683   4.464   6.004  15.684  2.0498 -0.1617  0.8710
 3090TIP3   OH230684   1.831   6.074   3.014  0.1313  0.1818  0.3006
 3090TIP3    H130685   1.899   6.064   2.948 -0.2930  0.1187 -0.1265
 3090TIP3    H230686   1.856   6.013   3.084 -0.3424 -1.0504 -0.5666
 3091TIP3   OH230687   4.538   0.009  13.945  0.4190  0.1386  0.1136
 3091TIP3    H130688   4.584   0.077  13.896 -0.4158  1.2064  0.7816
 3091TIP3    H230689   4.607  -0.037  13.993  0.8245  1.6394  1.0192
 3092TIP3   OH230690   1.556   2.460  14.148  0.6956  0.5161  0.3637
 3092TIP3    H130691   1.550   2.375  14.191 -0.1547  1.0000  1.2485
 3092TIP3    H230692   1.507   2.519  14.205 -0.8769  1.1103 -1.5080
 3093TIP3   OH230693   5.132   4.191  13.858  0.0452  0.0858 -0.5319
 3093TIP3    H130694   5.115   4.172  13.766 -0.9216 -2.0612  0.0229
 3093TIP3    H230695   5.155   4.107  13.896  0.6525  0.9697  1.1704
 3094TIP3   OH230696   1.904   2.326   1.935  0.2508  0.2213  0.0916
 3094TIP3    H130697   1.963   2.297   2.004 -0.1719 -0.3059  0.2394
 3094TIP3    H230698   1.830   2.364   1.982  0.0351  0.0052 -0.0743
 3095TIP3   OH230699   5.180   6.212  15.801 -0.3385 -0.2700  0.1361
 3095TIP3    H130700   5.254   6.272  15.806 -0.4530 -0.1200  0.0622
 3095TIP3    H230701   5.109   6.266  15.766 -0.4727 -0.4206  0.1783
 3096TIP3   OH230702   5.602   3.275   0.572  0.2818 -0.2271  0.3363
 3096TIP3    H130703   5.594   3.294   0.666  0.2520  0.5673  0.1789
 3096TIP3    H230704   5.627   3.359   0.533 -0.2314 -0.4314 -0.4343
 3097TIP3   OH230705   2.364   2.900  16.763 -0.3122 -0.1649 -0.4956
 3097TIP3    H130706   2.381   2.861  16.677  1.9496  0.1286 -0.2577
 3097TIP3    H230707   2.345   2.825  16.819  1.7578 -0.8148 -0.5415
 3098TIP3   OH230708   5.112   1.248   1.428 -0.0381 -0.1470 -0.1077
 3098TIP3    H130709   5.170   1.174   1.410  0.8585  0.2632  0.9497
 3098TIP3    H230710   5.035   1.208   1.468  1.2037 -0.4331  2.2029
 3099TIP3   OH230711   1.999   0.312   0.510 -0.0065 -0.2880 -0.6585
 3099TIP3    H130712   1.954   0.230   0.529 -1.7373  0.4980 -1.1833
 3099TIP3    H230713   2.073   0.313   0.571 -1.3347 -1.1234  1.0436
 3100TIP3   OH230714   1.479   2.131  14.291  0.1446 -0.2469  0.1927
 3100TIP3    H130715   1.426   2.171  14.222 -0.7767 -0.7498  0.5976
 3100TIP3    H230716   1.433   2.151  14.372  0.8967 -0.1814  0.6197
 3101TIP3   OH230717   0.421   3.699   4.207 -0.4951  0.6860  0.9062
 3101TIP3    H130718   0.447   3.756   4.279  2.0966  0.2993  0.4092
 3101TIP3    H230719   0.416   3.758   4.131  1.4808  0.4742  0.5366
 3102TIP3   OH230720   3.366   0.394   2.247 -0.3335 -0.2308 -0.2095
 3102TIP3    H130721   3.360   0.331   2.176 -1.1695  1.1455 -1.4087
 3102TIP3    H230722   3.460   0.411   2.257 -0.1378 -1.2841 -0.1802
 3103TIP3   OH230723   1.119   5.210   2.990 -0.1599 -0.2958  0.2277
 3103TIP3    H130724   1.041   5.160   3.014 -1.4176  2.4230  2.3063
 3103TIP3    H230725   1.164   5.226   3.073  1.0354  0.6449 -0.5698
 3104TIP3   OH230726   5.172   6.152  12.924 -0.1202  0.3477  0.8148
 3104TIP3    H130727   5.193   6.229  12.872  1.7488 -0.6702 -0.0431
 3104TIP3    H230728   5.153   6.186  13.011 -1.4632  1.9285 -0.0361
 3105TIP3   OH230729   1.842   2.104  13.073  0.4315 -0.4210  0.2448
 3105TIP3    H130730   1.828   2.171  13.006  0.4933 -0.1373  0.5195
 3105TIP3    H230731   1.929   2.069  13.054  0.2984 -0.5987 -0.0506
 3106TIP3   OH230732   4.095   2.601  15.031  0.3012 -0.0475 -0.0966
 3106TIP3    H130733   4.013   2.557  15.006 -0.5303  0.6283  1.3089
 3106TIP3    H230734   4.087   2.614  15.125  2.9352 -1.7721  0.4764
 3107TIP3   OH230735   4.971   3.199  13.380 -0.0960  0.2413  0.3469
 3107TIP3    H130736   5.036   3.258  13.419 -0.0001 -0.0067  0.5685
 3107TIP3    H230737   4.918   3.255  13.324  0.8398  0.3035 -0.4982
 3108TIP3   OH230738   3.618   5.957  17.276 -0.4622  0.2531  0.0068
 3108TIP3    H130739   3.609   5.929  17.185 -0.2865 -1.6755  0.5185
 3108TIP3    H230740   3.608   5.876  17.327  1.5436  0.8849  1.5854
 3109TIP3   OH230741   1.777   4.702   4.161  0.0941 -0.2239  0.1816
 3109TIP3    H130742   1.863   4.711   4.202  0.7659 -2.8801 -0.4744
 3109TIP3    H230743   1.785   4.624   4.106 -2.2811  0.3729 -1.1219
 3110TIP3   OH230744   3.122   4.382   4.436 -0.3084 -0.1316  0.2286
 3110TIP3    H130745   3.204   4.339   4.411  0.1715  0.8958 -0.0024
 3110TIP3    H230746   3.149   4.462   4.481 -1.1608  0.6072 -0.5206
 3111TIP3   OH230747   3.592   5.348   2.643 -0.6427  0.2961 -0.3835
 3111TIP3    H130748   3.579   5.283   2.575  1.2598  1.3195 -1.8323
 3111TIP3    H230749   3.504   5.380   2.663 -1.3443 -0.8059 -1.5613
 3112TIP3   OH230750   2.342   6.141  11.021  0.5611 -0.4044  0.2268
 3112TIP3    H130751   2.325   6.197  11.096  0.1725  0.9753 -0.8592
 3112TIP3    H230752   2.373   6.059  11.060 -3.4465 -1.2895  2.1372
 3113TIP3   OH230753   5.265   4.473   5.191 -0.8361 -0.4399  0.6353
 3113TIP3    H130754   5.250   4.431   5.106  0.7172 -1.9323  1.0506
 3113TIP3    H230755   5.219   4.417   5.254  0.9734 -1.4138  1.1529
 3114TIP3   OH230756   4.637   5.900   5.701  0.0225  0.6716 -0.5486
 3114TIP3    H130757   4.638   5.872   5.792 -0.6840  1.3611 -0.3206
 3114TIP3    H230758   4.675   5.988   5.703 -1.2724  1.2534 -0.7104
 3115TIP3   OH230759   1.923   4.970   0.632 -0.2314 -0.2467  0.4574
 3115TIP3    H130760   1.894   4.889   0.672  2.4931 -1.7428 -0.3511
 3115TIP3    H230761   1.931   5.032   0.705  0.2324 -1.5354  1.5354
 3116TIP3   OH230762   0.390   0.605   3.790 -0.0644  0.2029  0.2650
 3116TIP3    H130763   0.428   0.531   3.741 -1.0025  0.5749 -1.0759
 3116TIP3    H230764   0.298   0.605   3.765 -0.3116  1.1259  1.1596
 3117TIP3   OH230765   6.404   0.924   2.437 -0.2393  0.1927 -0.5800
 3117TIP3    H130766   6.418   0.830   2.428 -0.3641  0.2585 -1.5029
 3117TIP3    H230767   6.355   0.949   2.359 -0.5956  0.9503 -0.1242
 3118TIP3   OH230768   5.781   6.191   5.027  0.7391 -0.6938  0.3442
 3118TIP3    H130769   5.742   6.150   4.950 -0.5215 -0.9114  1.0808
 3118TIP3    H230770   5.721   6.171   5.099  0.9249  1.0517  1.0500
 3119TIP3   OH230771   3.717   0.736  12.278  0.6001  0.2234 -0.4898
 3119TIP3    H130772   3.771   0.769  12.206  2.3769 -0.8546  0.2857
 3119TIP3    H230773   3.707   0.811  12.337  2.2547  0.1580 -0.0929
 3120TIP3   OH230774   0.691   6.426   2.567  0.0640  0.3786 -0.1842
 3120TIP3    H130775   0.710   6.428   2.473 -0.5573 -0.8446 -0.3647
 3120TIP3    H230776   0.662   6.336   2.583  0.9493  0.3380  1.3428
 3121TIP3   OH230777   5.179   5.538  14.706 -0.0687 -0.6519  0.3991
 3121TIP3    H130778   5.104   5.522  14.762 -0.7956 -0.1406 -0.4037
 3121TIP3    H230779   5.255   5.527  14.763 -0.7968  2.6285  2.2526
 3122TIP3   OH230780   2.917   0.007   4.757 -0.5722  0.8403  0.1874
 3122TIP3    H130781   2.911   0.087   4.809 -0.1992  1.0967 -0.1529
 3122TIP3    H230782   3.005  -0.027   4.774  0.0015  1.5580 -1.1447
 3123TIP3   OH230783   1.131   3.633   0.793  0.3830 -0.1517  0.3951
 3123TIP3    H130784   1.119   3.543   0.763  1.9605 -0.4155  0.4977
 3123TIP3    H230785   1.122   3.627   0.888 -0.0513 -0.0978  0.3603
 3124TIP3   OH230786   2.788   4.637   0.198 -0.6310  0.5809 -0.1659
 3124TIP3    H130787   2.797   4.557   0.147 -2.1323  0.0862  0.2771
 3124TIP3    H230788   2.695   4.660   0.191 -0.6836  1.0508  1.4919
 3125TIP3   OH230789   4.369   6.415  14.107 -0.0564 -0.1315  0.1502
 3125TIP3    H130790   4.347   6.464  14.028  0.2646 -1.0532 -0.5295
 3125TIP3    H230791   4.443   6.462  14.146  0.6345 -0.3988 -0.8174
 3126TIP3   OH230792   2.634   3.905  16.351 -0.5140  0.2674  0.3570
 3126TIP3    H130793   2.668   3.818  16.329 -0.8586  0.1062  0.4641
 3126TIP3    H230794   2.687   3.965  16.298 -0.7648 -0.0604 -0.2740
 3127TIP3   OH230795   4.415   1.268  16.503 -0.2064 -0.5680  0.5562
 3127TIP3    H130796   4.407   1.184  16.548 -1.5640 -0.6544  0.1937
 3127TIP3    H230797   4.334   1.276  16.452  0.1314  0.7214  0.1814
 3128TIP3   OH230798   6.249   6.653  14.108 -0.0857 -0.0684  0.8701
 3128TIP3    H130799   6.249   6.560  14.087  1.8572 -0.0407  0.5262
 3128TIP3    H230800   6.196   6.660  14.187 -0.1280 -1.5021  0.9947
 3129TIP3   OH230801   1.949   3.406   4.855  0.2331 -0.9035 -0.2662
 3129TIP3    H130802   2.043   3.393   4.865  0.3954 -0.0819 -0.5686
 3129TIP3    H230803   1.916   3.410   4.944  0.5250 -0.9452 -0.1546
 3130TIP3   OH230804   0.709   1.484   3.696  0.2001 -0.5638  0.5033
 3130TIP3    H130805   0.694   1.487   3.602 -1.1988 -0.3832  0.7024
 3130TIP3    H230806   0.756   1.565   3.715 -0.7851  0.1183  0.1359
 3131TIP3   OH230807   3.215   0.701   1.778 -0.1577  0.6763  0.0250
 3131TIP3    H130808   3.212   0.779   1.724  0.0795  1.4791  1.1395
 3131TIP3    H230809   3.173   0.727   1.860 -2.3758 -1.0807 -0.4480
 3132TIP3   OH230810   6.683   6.321  15.332 -0.4094  0.5611 -0.0352
 3132TIP3    H130811   6.763   6.277  15.305  0.2008 -0.0257  2.4741
 3132TIP3    H230812   6.658   6.375  15.257  2.4681  0.9546 -0.8031
 3133TIP3   OH230813   0.317   0.351  16.289  0.0215 -0.2113  0.2698
 3133TIP3    H130814   0.253   0.280  16.294  0.9258 -0.9929  1.2990
 3133TIP3    H230815   0.277   0.423  16.338  0.1968 -0.9348  1.5190
 3134TIP3   OH230816   4.714   6.317  14.344 -0.4167 -0.0307  0.5478
 3134TIP3    H130817   4.781   6.249  14.349 -0.3268  0.1562  3.2411
 3134TIP3    H230818   4.637   6.278  14.385 -1.5260  0.2908 -1.1336
 3135TIP3   OH230819   5.092   3.270   3.065 -0.5712  0.3981  0.1016
 3135TIP3    H130820   5.128   3.269   3.154  1.5504 -2.7942 -0.6329
 3135TIP3    H230821   5.164   3.301   3.011 -0.8051 -0.5807 -0.8028
 3136TIP3   OH230822   2.842   4.463   3.453  0.0384 -0.0670 -0.2092
 3136TIP3    H130823   2.812   4.507   3.532 -0.6439 -0.5433 -0.1990
 3136TIP3    H230824   2.901   4.394   3.484  2.2269  1.6421 -0.2863
 3137TIP3   OH230825   1.187   6.520  13.582 -0.0246  0.2758  0.1937
 3137TIP3    H130826   1.189   6.437  13.630 -1.2822  0.3138  0.3536
 3137TIP3    H230827   1.095   6.529  13.555 -0.0135  1.8563  0.6007
 3138TIP3   OH230828   1.039   4.046  12.885  0.4745  0.2748  0.1507
 3138TIP3    H130829   1.006   3.961  12.914 -0.2725  1.1865  2.1866
 3138TIP3    H230830   1.039   4.041  12.789 -1.3814 -1.3371  0.1778
 3139TIP3   OH230831   1.763   0.277  15.095  0.1740  0.5432 -0.0806
 3139TIP3    H130832   1.814   0.317  15.024 -2.0570 -0.2899 -2.2968
 3139TIP3    H230833   1.689   0.337  15.108 -1.2639 -0.9744 -0.9158
 3140TIP3   OH230834   4.811   4.393  12.499  0.0549  1.0821  0.3649
 3140TIP3    H130835   4.830   4.322  12.438 -1.1452  3.2781 -2.8014
 3140TIP3    H230836   4.898   4.423  12.527  0.6296 -0.2529  0.1142
 3141TIP3   OH230837   4.875   6.533  16.039  0.1233 -0.5115  0.1100
 3141TIP3    H130838   4.893   6.451  16.083  1.6478 -0.3361 -0.1055
 3141TIP3    H230839   4.948   6.543  15.977 -1.1694 -0.0469 -1.3932
 3142TIP3   OH230840   6.689   5.312   0.388  0.1093  0.8157 -0.2417
 3142TIP3    H130841   6.665   5.307   0.480 -0.7557  2.2280 -0.3628
 3142TIP3    H230842   6.784   5.324   0.389 -0.0371  2.0370  0.5190
 3143TIP3   OH230843   1.088   3.621  12.715  0.4796 -0.0801  0.7118
 3143TIP3    H130844   1.141   3.613  12.636  1.2757 -0.1157  1.2374
 3143TIP3    H230845   0.998   3.608  12.685  0.8767 -1.4309  0.0302
 3144TIP3   OH230846   4.916   1.950  14.849 -0.3782  0.6260  0.1623
 3144TIP3    H130847   4.969   1.929  14.772 -0.7225  0.8657 -0.1487
 3144TIP3    H230848   4.854   1.878  14.855 -0.0676  0.3850  0.4791
 3145TIP3   OH230849   4.073   3.368  12.568  0.3286  0.1248 -0.3856
 3145TIP3    H130850   4.082   3.280  12.532  1.5519 -0.3593  0.9891
 3145TIP3    H230851   4.136   3.422  12.520  0.1939  0.0454 -0.6472
 3146TIP3   OH230852   1.253   5.507   2.926  0.2174  0.5522 -0.0038
 3146TIP3    H130853   1.347   5.520   2.912  0.3232 -0.5595 -0.3884
 3146TIP3    H230854   1.248   5.434   2.988 -0.3893  0.8092  0.2493
 3147TIP3   OH230855   1.868   4.580  17.263 -0.1095  0.1895  0.3325
 3147TIP3    H130856   1.849   4.535  17.346 -0.2354 -0.0499  0.1742
 3147TIP3    H230857   1.861   4.512  17.197  1.1077  0.1384  0.2442
 3148TIP3   OH230858   4.149   2.041   3.891 -0.5480  0.0587  0.2574
 3148TIP3    H130859   4.111   1.970   3.839 -2.2671  0.5329  0.8108
 3148TIP3    H230860   4.105   2.035   3.976 -0.5435  1.6351  0.3936
 3149TIP3   OH230861   4.384   6.712   5.538 -0.2948 -0.7421  0.1362
 3149TIP3    H130862   4.290   6.708   5.520 -0.6046  1.5322  0.8242
 3149TIP3    H230863   4.390   6.718   5.633  0.5160 -0.4271  0.0763
 3150TIP3   OH230864   1.188   0.028  11.331 -0.1537 -0.1816  0.2765
 3150TIP3    H130865   1.155  -0.041  11.388  0.4784  0.6490  1.6907
 3150TIP3    H230866   1.116   0.046  11.271 -0.3457 -2.0203 -0.0974
 3151TIP3   OH230867   6.520   0.755  14.104 -0.1460  0.5557 -0.0750
 3151TIP3    H130868   6.570   0.679  14.075  0.4172  0.3174  1.4377
 3151TIP3    H230869   6.440   0.753  14.051  0.8934  0.2939 -1.7281
 3152TIP3   OH230870   5.291   4.999   5.441  0.7058 -0.2895 -0.0103
 3152TIP3    H130871   5.213   4.946   5.453  0.2841  0.5700  1.3036
 3152TIP3    H230872   5.294   5.017   5.347 -0.5887 -0.4549 -0.1018
 3153TIP3   OH230873   3.351   4.194   2.546  0.3998 -0.2999  0.0600
 3153TIP3    H130874   3.425   4.256   2.545  0.2210 -0.0738  0.6099
 3153TIP3    H230875   3.368   4.136   2.472 -0.2690  1.3786 -1.4837
 3154TIP3   OH230876   0.173   3.601  11.939  0.1326  0.5593  0.2119
 3154TIP3    H130877   0.218   3.516  11.946  0.6430  0.9733  2.8768
 3154TIP3    H230878   0.234   3.657  11.892  0.8477  0.0988  0.5722
 3155TIP3   OH230879   4.928   6.658   2.842  0.1104  0.1191 -0.1235
 3155TIP3    H130880   4.949   6.631   2.931 -0.5687 -0.7569 -0.2169
 3155TIP3    H230881   4.853   6.717   2.852 -0.8855 -1.0875 -0.1966
 3156TIP3   OH230882   3.185   4.939   1.291 -0.1227 -0.0599  0.1818
 3156TIP3    H130883   3.216   4.867   1.237 -2.0577 -1.5626  0.9204
 3156TIP3    H230884   3.093   4.949   1.267  0.1311  2.3246 -0.0210
 3157TIP3   OH230885   4.563   6.508  15.584 -0.0710  0.1142 -0.0065
 3157TIP3    H130886   4.605   6.575  15.531 -3.1927  1.5020 -0.9919
 3157TIP3    H230887   4.479   6.491  15.540  1.0606 -5.6953 -0.7745
 3158TIP3   OH230888   5.543   5.719  16.975 -0.2620 -0.6430 -0.5785
 3158TIP3    H130889   5.457   5.689  17.003 -0.6346  0.1948 -0.7758
 3158TIP3    H230890   5.525   5.801  16.928  0.7415  0.2347  0.4935
 3159TIP3   OH230891   5.126   6.593  16.233 -1.1389  0.3973 -0.4818
 3159TIP3    H130892   5.121   6.553  16.146  1.1726  2.3301 -1.6155
 3159TIP3    H230893   5.182   6.533  16.283 -0.5006  0.4579 -1.1041
 3160TIP3   OH230894   3.930   1.374  14.352 -0.0915 -0.1185 -0.0836
 3160TIP3    H130895   3.922   1.435  14.279 -1.3854 -0.6994 -0.4495
 3160TIP3    H230896   3.840   1.344  14.368  0.0739  0.3244  2.0276
 3161TIP3   OH230897   1.565   3.139   2.835 -0.1808  0.0154 -0.4805
 3161TIP3    H130898   1.486   3.177   2.873 -0.5246  1.6535 -2.6559
 3161TIP3    H230899   1.574   3.054   2.878 -2.5622  0.1961  0.5194
 3162TIP3   OH230900   0.811   6.195   1.335 -0.2792 -0.0908  0.7618
 3162TIP3    H130901   0.859   6.192   1.418 -0.0760  3.4608  0.9327
 3162TIP3    H230902   0.719   6.195   1.360 -0.2342 -0.2734  0.9225
 3163TIP3   OH230903   4.237   4.921   5.051  0.0649  0.6432  0.2333
 3163TIP3    H130904   4.153   4.940   5.093 -0.8906 -1.4795 -0.5783
 3163TIP3    H230905   4.227   4.953   4.961 -0.1374 -0.1348 -0.0348
 3164TIP3   OH230906   1.516   1.486   2.952 -0.3864 -0.3515 -0.0672
 3164TIP3    H130907   1.548   1.575   2.936 -1.1770 -0.0640 -0.0571
 3164TIP3    H230908   1.583   1.446   3.009  0.7706 -0.2894 -1.3282
 3165TIP3   OH230909   6.048   5.755  10.767 -0.3314  0.3804 -0.2253
 3165TIP3    H130910   6.099   5.683  10.730 -0.8787 -0.9446  1.4733
 3165TIP3    H230911   6.033   5.814  10.693  2.3802  0.1048 -1.0938
 3166TIP3   OH230912   5.175   2.318  15.558 -0.6036  0.2298 -0.6925
 3166TIP3    H130913   5.172   2.295  15.651 -1.1438 -0.8447 -0.9645
 3166TIP3    H230914   5.094   2.367  15.543 -0.4303  0.5628 -0.5701
 3167TIP3   OH230915   1.794   4.036   1.763  0.4373 -0.3765 -0.2630
 3167TIP3    H130916   1.820   4.035   1.671 -0.0797  1.2473 -0.4495
 3167TIP3    H230917   1.705   4.002   1.764  0.0965  0.4866 -0.4992
 3168TIP3   OH230918   1.190   3.353   4.848 -0.0618 -0.4008  0.3787
 3168TIP3    H130919   1.142   3.385   4.925 -0.5572 -0.5038  0.1192
 3168TIP3    H230920   1.281   3.348   4.877  0.0248  1.1200  0.4771
 3169TIP3   OH230921   6.066   3.288  17.099  0.3918  0.1171 -0.1669
 3169TIP3    H130922   6.070   3.246  17.013  0.1760 -0.3365  0.0408
 3169TIP3    H230923   6.152   3.272  17.137  0.4664  0.2650 -0.2744
 3170TIP3   OH230924   6.592   5.083  13.152 -0.1391 -0.2623 -0.9507
 3170TIP3    H130925   6.606   5.132  13.233 -0.5746 -0.0729 -0.9819
 3170TIP3    H230926   6.629   4.997  13.169  0.7718  0.1234 -0.9444
 3171TIP3   OH230927   2.449   2.523  12.230  0.3783 -0.2478  0.0851
 3171TIP3    H130928   2.418   2.609  12.256  2.0119  0.4296 -0.0822
 3171TIP3    H230929   2.481   2.535  12.140  1.0245 -0.9035  0.2153
 3172TIP3   OH230930   6.053   6.680   6.393 -0.0246 -0.0287 -0.1017
 3172TIP3    H130931   6.097   6.602   6.425  0.0458 -0.5120 -1.3280
 3172TIP3    H230932   6.092   6.697   6.308 -1.8206 -0.1870 -1.0162
 3173TIP3   OH230933   6.002   3.477   3.198  0.2798 -0.0523  0.0064
 3173TIP3    H130934   5.929   3.497   3.257  1.5117  2.3999  0.8225
 3173TIP3    H230935   5.971   3.502   3.112  0.0834  0.8832  0.3366
 3174TIP3   OH230936   4.505   2.976  10.441  0.4257  0.0113  0.3184
 3174TIP3    H130937   4.512   3.049  10.380 -2.1722  0.0962  0.0113
 3174TIP3    H230938   4.557   3.003  10.517 -0.7500  2.3672  0.3573
 3175TIP3   OH230939   1.047   4.201   0.251 -0.0274  0.0700 -0.4653
 3175TIP3    H130940   1.118   4.239   0.303 -1.0013  1.2783  0.0063
 3175TIP3    H230941   0.968   4.246   0.280 -0.6128  0.9187 -3.1013
 3176TIP3   OH230942   4.578   2.850   2.748 -0.0820 -0.4636  0.1905
 3176TIP3    H130943   4.613   2.923   2.799  2.1261  0.1081 -1.9744
 3176TIP3    H230944   4.617   2.772   2.789  2.5662  0.0553 -1.1272
 3177TIP3   OH230945   3.483   1.302  12.391  0.6939 -0.8787  0.3219
 3177TIP3    H130946   3.507   1.385  12.352  0.9661 -0.5781  1.1082
 3177TIP3    H230947   3.536   1.296  12.470  1.2809 -2.1763 -0.1364
 3178TIP3   OH230948   5.823   1.837   0.287 -0.2770  0.0970  0.1415
 3178TIP3    H130949   5.756   1.860   0.351 -1.4955 -1.6321 -0.4358
 3178TIP3    H230950   5.885   1.782   0.335  0.4538  1.2185  0.5279
 3179TIP3   OH230951   1.425   4.243  15.893  0.4931  0.0885 -0.3369
 3179TIP3    H130952   1.521   4.245  15.886  0.4844  0.8831 -0.3060
 3179TIP3    H230953   1.408   4.207  15.980  0.7890  0.8725  0.0561
 3180TIP3   OH230954   2.742   1.629  15.168  0.3969 -0.0957  0.5968
 3180TIP3    H130955   2.675   1.598  15.106  0.6055  0.0479  0.2951
 3180TIP3    H230956   2.792   1.551  15.190  1.5682  0.1640 -0.9478
 3181TIP3   OH230957   2.245   3.789  13.207  0.1645 -0.0087  0.8479
 3181TIP3    H130958   2.226   3.808  13.298 -0.3161 -0.1904  0.7900
 3181TIP3    H230959   2.239   3.693  13.201  0.4289 -0.0176  0.6742
 3182TIP3   OH230960   1.724   1.706  15.724  0.0433 -0.4014  0.1981
 3182TIP3    H130961   1.775   1.783  15.697 -3.0421  1.9033  0.5104
 3182TIP3    H230962   1.741   1.697  15.817  0.7895 -0.4557  0.0688
 3183TIP3   OH230963   6.702   5.986   1.438  0.1055 -0.0770 -0.4682
 3183TIP3    H130964   6.628   5.925   1.439  1.1581 -1.5307 -2.6661
 3183TIP3    H230965   6.671   6.061   1.388 -1.0729  1.1790  1.9349
 3184TIP3   OH230966   5.869   3.256   4.890 -0.7254  0.4377 -0.5098
 3184TIP3    H130967   5.776   3.242   4.872 -0.9193  1.3442 -0.2704
 3184TIP3    H230968   5.913   3.240   4.806 -1.1494  0.4577 -0.7374
 3185TIP3   OH230969   5.437   1.925   3.283 -0.3313  0.4296 -0.2296
 3185TIP3    H130970   5.344   1.908   3.265 -0.3602  1.4116 -1.0705
 3185TIP3    H230971   5.483   1.884   3.210 -0.3209  2.6349 -1.5461
 3186TIP3   OH230972   6.551   2.144  10.880  0.2009 -0.0140  0.2951
 3186TIP3    H130973   6.501   2.223  10.859  0.1149  0.3742  1.8330
 3186TIP3    H230974   6.516   2.077  10.822 -1.9459  0.3178  1.1079
 3187TIP3   OH230975   6.555   4.548  13.257  0.0378  0.9784 -0.2664
 3187TIP3    H130976   6.577   4.461  13.223 -0.8848  0.0774  1.3146
 3187TIP3    H230977   6.507   4.590  13.185  1.2192  0.5219 -1.3568
 3188TIP3   OH230978   0.167   3.298  15.802 -0.2446 -0.1011 -0.6729
 3188TIP3    H130979   0.250   3.250  15.793 -1.2300 -1.9697 -0.3154
 3188TIP3    H230980   0.110   3.238  15.850 -1.2983  1.8131  0.5761
 3189TIP3   OH230981   6.184   1.824  15.133  0.2727  0.0111 -0.0861
 3189TIP3    H130982   6.089   1.817  15.127  0.0687  1.2812  1.2212
 3189TIP3    H230983   6.215   1.735  15.113 -1.2639 -0.8383  1.0433
 3190TIP3   OH230984   0.969   4.854   3.305  0.2009  0.6288  0.4564
 3190TIP3    H130985   0.989   4.774   3.258 -0.6689  0.2904  0.6463
 3190TIP3    H230986   0.912   4.827   3.377 -0.9022  1.5215 -0.0311
 3191TIP3   OH230987   4.249   6.154   0.572 -0.3945  0.1001 -0.1839
 3191TIP3    H130988   4.304   6.214   0.523 -1.8620  0.6454 -1.2352
 3191TIP3    H230989   4.160   6.185   0.556 -1.0191 -0.7315  1.4774
 3192TIP3   OH230990   4.688   0.817   4.090 -0.1011 -0.4581 -0.0164
 3192TIP3    H130991   4.621   0.823   4.157 -1.1851  0.5561 -1.1396
 3192TIP3    H230992   4.674   0.730   4.051 -0.1812 -0.6044  0.3323
 3193TIP3   OH230993   5.779   3.401  16.584  0.4911 -0.2947  0.2230
 3193TIP3    H130994   5.841   3.330  16.567 -1.1111 -1.7602  0.1669
 3193TIP3    H230995   5.696   3.356  16.600 -0.2451  1.5158  1.8562
 3194TIP3   OH230996   0.946   5.559   0.193  0.1484 -0.5827 -0.0551
 3194TIP3    H130997   0.947   5.643   0.148 -1.2784 -0.4968  0.0319
 3194TIP3    H230998   0.854   5.545   0.216  0.5339 -1.6314  0.9337
 3195TIP3   OH230999   1.320   5.547   4.522  0.2451 -0.1853  0.1236
 3195TIP3    H131000   1.390   5.493   4.485  0.1126  0.2575 -0.8204
 3195TIP3    H231001   1.239   5.502   4.496  0.1105  0.8102 -1.2939
 3196TIP3   OH231002   6.689   1.967  14.961  0.3444 -0.0391 -0.0184
 3196TIP3    H131003   6.642   2.049  14.946 -0.0333 -0.4170 -0.9760
 3196TIP3    H231004   6.779   1.986  14.937  0.7055  0.6843  1.8022
 3197TIP3   OH231005   1.457   3.238  14.134  0.1350 -0.4358  0.2077
 3197TIP3    H131006   1.374   3.196  14.157 -0.7599  0.5847 -0.9981
 3197TIP3    H231007   1.521   3.167  14.135 -0.5489 -1.0825  2.0388
 3198TIP3   OH231008   4.899   2.345   5.816  0.7237 -0.4251 -0.5260
 3198TIP3    H131009   4.889   2.435   5.785 -0.2189 -0.3744 -0.1097
 3198TIP3    H231010   4.838   2.337   5.889 -0.4484 -1.8958 -1.6051
 3199TIP3   OH231011   1.788   1.932   5.823  0.2635 -0.5222  0.5505
 3199TIP3    H131012   1.769   1.932   5.917 -3.7582 -0.0507 -0.0653
 3199TIP3    H231013   1.734   1.862   5.788 -0.3920  0.9969 -1.6787
 3200TIP3   OH231014   5.132   2.819  13.454  0.2364  0.2656 -0.1588
 3200TIP3    H131015   5.092   2.853  13.534  1.3831 -1.8118  1.4109
 3200TIP3    H231016   5.162   2.731  13.478  0.4100 -0.5301 -2.9670
 3201TIP3   OH231017   5.776   5.714  15.942  0.0415  0.5330 -0.0043
 3201TIP3    H131018   5.851   5.722  16.002  0.4936 -0.0688 -0.4772
 3201TIP3    H231019   5.707   5.674  15.996  1.2953 -2.5808 -0.5196
 3202TIP3   OH231020   2.778   4.462  11.403 -0.0017  0.0300  0.0360
 3202TIP3    H131021   2.734   4.415  11.332 -0.0341  2.0025 -1.2981
 3202TIP3    H231022   2.846   4.513  11.360  2.6068 -1.6372  1.8707
 3203TIP3   OH231023   2.501   1.908   2.547 -0.0963  0.1186  0.4730
 3203TIP3    H131024   2.534   1.871   2.465 -0.7970 -0.3028  0.3660
 3203TIP3    H231025   2.519   2.001   2.540  0.6085 -0.0329  0.2070
 3204TIP3   OH231026   2.739   2.944   5.502  0.1163  0.6548  0.0630
 3204TIP3    H131027   2.691   2.862   5.508  0.0038  0.8193  2.6781
 3204TIP3    H231028   2.830   2.918   5.488 -0.2260  0.2282 -1.5703
 3205TIP3   OH231029   4.621   4.008   0.417 -0.5275 -0.1974 -0.9214
 3205TIP3    H131030   4.570   4.087   0.396 -0.1213  0.3131 -0.0553
 3205TIP3    H231031   4.696   4.011   0.358  0.8196  1.4372  0.7511
 3206TIP3   OH231032   1.808   4.418   3.474  0.1250 -0.0175  0.4366
 3206TIP3    H131033   1.825   4.489   3.536 -0.7991 -0.6541  1.4508
 3206TIP3    H231034   1.743   4.453   3.414 -0.1796  0.0576  0.8127
 3207TIP3   OH231035   3.201   1.805  15.988  0.0038 -0.3429  0.2352
 3207TIP3    H131036   3.131   1.869  16.001 -1.8128 -2.1538 -0.1716
 3207TIP3    H231037   3.157   1.728  15.954  2.3316 -1.3296 -0.7316
 3208TIP3   OH231038   5.066   5.190   0.860  0.4847 -0.7330 -0.4178
 3208TIP3    H131039   5.129   5.159   0.925 -0.7285 -0.8282  0.7587
 3208TIP3    H231040   5.046   5.114   0.807 -1.3780 -1.6962  1.5362
 3209TIP3   OH231041   3.023   4.255  14.253 -0.4494  0.1645  0.5135
 3209TIP3    H131042   2.931   4.269  14.278 -0.8824 -0.7567 -0.4615
 3209TIP3    H231043   3.067   4.232  14.335 -1.7460 -2.4254  0.6006
 3210TIP3   OH231044   4.538   6.645  13.678  0.4221 -0.2914  0.4723
 3210TIP3    H131045   4.549   6.657  13.772  2.0710 -1.8873  0.5549
 3210TIP3    H231046   4.460   6.590  13.670 -0.5932  1.0745  0.7827
 3211TIP3   OH231047   0.153   5.048   1.312  0.7374  0.2137  0.2027
 3211TIP3    H131048   0.061   5.066   1.293  0.3464  0.4141  2.1325
 3211TIP3    H231049   0.174   4.973   1.256 -0.2210  0.9234 -1.1726
 3212TIP3   OH231050   0.728   4.746  14.034 -0.1839 -0.1355 -0.0859
 3212TIP3    H131051   0.708   4.664  13.988  0.7536 -0.7162  0.5009
 3212TIP3    H231052   0.644   4.774  14.070 -1.3288  1.2100 -3.4260
 3213TIP3   OH231053   4.848   4.037  11.542 -0.1926  0.3607  0.3690
 3213TIP3    H131054   4.763   4.069  11.511 -1.1424 -1.1348  1.2600
 3213TIP3    H231055   4.828   3.950  11.579  2.0271 -0.8066 -0.9996
 3214TIP3   OH231056   2.175   6.089  16.587  0.5155 -0.1433 -0.4444
 3214TIP3    H131057   2.256   6.044  16.612  0.3620 -0.7247 -0.9607
 3214TIP3    H231058   2.112   6.065  16.655  0.0893 -1.7453 -1.3359
 3215TIP3   OH231059   4.512   5.951  11.620 -0.4084 -0.0795  0.1449
 3215TIP3    H131060   4.513   5.872  11.566  2.7810 -0.1241  0.0406
 3215TIP3    H231061   4.420   5.969  11.636 -1.2773 -3.3243 -0.5382
 3216TIP3   OH231062   3.662   4.845  12.147 -0.5864  0.5347  0.0369
 3216TIP3    H131063   3.593   4.779  12.141 -0.8577  0.7634  0.5740
 3216TIP3    H231064   3.617   4.925  12.175 -0.2177  0.8777 -0.3292
 3217TIP3   OH231065   1.615   2.745   1.091 -0.0446 -0.3013  0.3405
 3217TIP3    H131066   1.661   2.700   1.162 -0.0576 -0.4025  0.2859
 3217TIP3    H231067   1.522   2.725   1.106  0.0708 -1.6810 -0.6250
 3218TIP3   OH231068   0.384   2.776   4.638  0.4254 -0.8384 -0.1495
 3218TIP3    H131069   0.423   2.746   4.720  2.0424 -0.2415 -0.6612
 3218TIP3    H231070   0.304   2.725   4.629 -0.6405  0.1561  2.5620
 3219TIP3   OH231071   2.463   6.073  11.948 -0.3872 -0.0968  0.5758
 3219TIP3    H131072   2.411   6.059  12.027 -1.5515 -1.2539 -0.3426
 3219TIP3    H231073   2.437   6.160  11.917 -0.6571 -0.0465  0.9427
 3220TIP3   OH231074   6.724   6.248   4.288 -0.0766 -0.2041 -0.5581
 3220TIP3    H131075   6.652   6.219   4.343 -0.3053  1.1839 -0.0862
 3220TIP3    H231076   6.757   6.328   4.331  1.5597 -0.6467 -0.9089
 3221TIP3   OH231077   2.037   1.832  14.472  0.2231  0.2564  0.1685
 3221TIP3    H131078   1.999   1.876  14.396  2.0566  0.2795 -0.7879
 3221TIP3    H231079   2.035   1.739  14.449  1.1697  0.2949 -0.1343
 3222TIP3   OH231080   1.054   1.593   5.235 -0.3084 -0.4463  0.3571
 3222TIP3    H131081   1.004   1.561   5.310 -0.0581 -1.0235  0.2796
 3222TIP3    H231082   1.049   1.522   5.170 -0.9246  0.2363 -0.3596
 3223TIP3   OH231083   0.960   0.286  15.867  0.1807 -0.1382 -0.3791
 3223TIP3    H131084   0.873   0.286  15.908  1.1846 -0.1919  1.8847
 3223TIP3    H231085   0.997   0.200  15.888  0.9474  0.0437 -0.9354
 3224TIP3   OH231086   0.242   0.728  12.555 -0.6151  0.0057  0.2571
 3224TIP3    H131087   0.308   0.691  12.614  0.9147  0.1282 -1.2811
 3224TIP3    H231088   0.236   0.665  12.483 -1.1628  0.6793 -0.3062
 3225TIP3   OH231089   5.037   5.585   4.238  0.0652  0.4241 -0.0873
 3225TIP3    H131090   4.941   5.587   4.248  0.0934 -1.2990  0.7418
 3225TIP3    H231091   5.069   5.645   4.305 -0.3466 -0.8091  1.2468
 3226TIP3   OH231092   4.573   3.380  12.228 -0.0021  0.0699 -0.1779
 3226TIP3    H131093   4.605   3.464  12.261  1.2040 -0.0710 -0.9017
 3226TIP3    H231094   4.652   3.336  12.196 -0.9671 -0.1105 -2.5063
 3227TIP3   OH231095   6.500   1.319   3.716 -0.5097 -0.1680 -0.0801
 3227TIP3    H131096   6.569   1.255   3.733 -0.6124 -0.7363 -1.6499
 3227TIP3    H231097   6.546   1.398   3.688 -0.3731  0.5616  2.0493
 3228TIP3   OH231098   0.289   5.094   0.174  0.4229  0.3127  0.3090
 3228TIP3    H131099   0.274   5.077   0.081 -0.5880  1.2594  0.2721
 3228TIP3    H231100   0.208   5.066   0.217  0.4465  0.9008  0.7546
 3229TIP3   OH231101   3.142   3.860   0.390  0.5274  0.0546 -0.0842
 3229TIP3    H131102   3.101   3.875   0.304 -0.8519  0.3490  0.6059
 3229TIP3    H231103   3.078   3.892   0.453  1.4707 -0.2890  1.0768
 3230TIP3   OH231104   2.762   3.076   3.649  0.2999 -0.3956 -0.0907
 3230TIP3    H131105   2.763   2.988   3.687  3.2005 -1.1379 -1.6238
 3230TIP3    H231106   2.685   3.076   3.593 -0.7303 -1.3058  1.2306
 3231TIP3   OH231107   6.580   1.247   0.269  0.0106 -0.2759  0.0443
 3231TIP3    H131108   6.636   1.169   0.275 -0.5614 -0.6357  0.8796
 3231TIP3    H231109   6.499   1.222   0.313 -0.5080  0.5140 -0.4357
 3232TIP3   OH231110   5.761   1.186  10.793  0.2543 -0.4381 -0.5165
 3232TIP3    H131111   5.684   1.243  10.796 -0.0374 -0.7247 -2.0163
 3232TIP3    H231112   5.834   1.244  10.817 -0.4389 -0.2870  1.4593
 3233TIP3   OH231113   0.846   1.302   1.209 -0.0754  0.8435 -0.4640
 3233TIP3    H131114   0.941   1.314   1.211 -0.2875  3.2589 -1.3054
 3233TIP3    H231115   0.819   1.306   1.301  0.5836  0.6582 -0.2586
 3234TIP3   OH231116   1.613   3.229  16.134  0.3378 -0.5365  0.4883
 3234TIP3    H131117   1.626   3.298  16.199 -1.0064 -1.2656  1.5817
 3234TIP3    H231118   1.702   3.199  16.113  0.9849  1.7273 -0.3088
 3235TIP3   OH231119   2.866   4.432   1.802  0.2139 -0.7330 -0.0468
 3235TIP3    H131120   2.866   4.382   1.884 -1.5256  1.9723  1.7622
 3235TIP3    H231121   2.931   4.501   1.815 -0.7850  0.3309 -0.5265
 3236TIP3   OH231122   4.564   2.228   3.022 -0.2734 -0.2497 -0.0904
 3236TIP3    H131123   4.529   2.288   2.956 -0.6650 -0.3178  0.0566
 3236TIP3    H231124   4.531   2.262   3.105  0.4222 -0.0173  0.0982
 3237TIP3   OH231125   4.453   4.309  11.553 -0.9960 -1.0302  0.1435
 3237TIP3    H131126   4.360   4.309  11.576 -1.4271  1.3214 -1.3076
 3237TIP3    H231127   4.469   4.396  11.518  1.8458 -1.3065  0.5565
 3238TIP3   OH231128   1.236   2.239   0.996  0.2907  0.1991 -0.4666
 3238TIP3    H131129   1.288   2.199   0.926  0.1662 -0.1526 -0.3637
 3238TIP3    H231130   1.164   2.177   1.010  0.9041 -0.2831  0.7269
 3239TIP3   OH231131   3.758   1.491   2.373  0.3902 -0.0573 -0.3441
 3239TIP3    H131132   3.812   1.413   2.379 -1.6465 -1.4682  1.1284
 3239TIP3    H231133   3.724   1.490   2.284  0.6972 -0.6182 -0.4597
 3240TIP3   OH231134   1.093   1.634   6.449 -0.1952 -0.2379  0.0391
 3240TIP3    H131135   1.153   1.563   6.471 -0.7250 -0.6262  0.2770
 3240TIP3    H231136   1.049   1.603   6.369  1.2777  0.8882 -1.2645
 3241TIP3   OH231137   5.173   5.698  12.389  0.0006 -0.1934 -0.3757
 3241TIP3    H131138   5.216   5.628  12.339 -0.1294 -0.4211 -0.1733
 3241TIP3    H231139   5.243   5.763  12.403 -0.3267  0.5958 -2.1307
 3242TIP3   OH231140   4.137   0.892  11.702  0.3758  0.6006  0.4120
 3242TIP3    H131141   4.171   0.982  11.705  1.4410  0.2803 -0.8461
 3242TIP3    H231142   4.070   0.894  11.633  0.3194  0.4641  0.4630
 3243TIP3   OH231143   0.057   4.442   5.677  0.3181 -0.4099  0.2841
 3243TIP3    H131144  -0.004   4.495   5.626  1.7842  0.5584 -0.5725
 3243TIP3    H231145   0.003   4.375   5.718 -1.0640 -0.7424 -1.8873
 3244TIP3   OH231146   6.188   1.684   5.928  0.0714 -0.1228 -0.4362
 3244TIP3    H131147   6.147   1.609   5.972  2.2788 -0.4692  1.2211
 3244TIP3    H231148   6.197   1.657   5.837  1.3155 -2.1457  0.2317
 3245TIP3   OH231149   2.797   5.404   4.453 -0.2241 -0.2450 -0.1999
 3245TIP3    H131150   2.736   5.402   4.380  1.0449  2.5002 -1.5111
 3245TIP3    H231151   2.868   5.345   4.427 -0.5233 -0.4854 -0.4705
 3246TIP3   OH231152   4.227   4.061   5.062 -0.4410 -0.2192  0.0342
 3246TIP3    H131153   4.142   4.096   5.033  0.0760  2.4620  1.3789
 3246TIP3    H231154   4.206   4.007   5.138 -1.1194 -1.3907 -0.9633
 3247TIP3   OH231155   2.174   2.481   3.495  0.6309  0.2201  0.0900
 3247TIP3    H131156   2.248   2.421   3.493  3.5311  3.4814 -0.5795
 3247TIP3    H231157   2.141   2.483   3.406  0.9822  0.1122 -0.0421
 3248TIP3   OH231158   1.687   6.652  15.991  0.3357 -0.2949 -0.2428
 3248TIP3    H131159   1.622   6.581  15.992  0.2897 -0.2572  1.1009
 3248TIP3    H231160   1.657   6.713  16.059  0.7140  0.7123 -0.9541
 3249TIP3   OH231161   3.782   3.766  13.769  0.3065  0.1470 -0.0240
 3249TIP3    H131162   3.723   3.695  13.742 -0.7950  0.8873  0.3439
 3249TIP3    H231163   3.870   3.730  13.759 -0.2329 -1.3217  0.3023
 3250TIP3   OH231164   1.935   4.752   1.424 -0.2225  0.6544 -0.0891
 3250TIP3    H131165   1.934   4.753   1.329 -1.5597 -0.4803 -0.1237
 3250TIP3    H231166   1.968   4.665   1.446  0.9562  1.2320  0.5127
 3251TIP3   OH231167   0.257   4.638   5.807 -0.3762  0.2308  0.0335
 3251TIP3    H131168   0.326   4.650   5.872  1.8376 -1.4539 -1.8415
 3251TIP3    H231169   0.235   4.545   5.813 -1.5729  0.4735 -0.3225
 3252TIP3   OH231170   0.214   0.285  12.182  0.8404 -0.3868  0.3115
 3252TIP3    H131171   0.275   0.216  12.156 -0.2767 -0.8070 -1.3778
 3252TIP3    H231172   0.140   0.275  12.122  0.7975  2.5470 -0.2767
 3253TIP3   OH231173   3.600   2.925   3.855 -0.3441  0.2415  0.0780
 3253TIP3    H131174   3.664   2.914   3.785 -1.4620 -1.3213 -0.7922
 3253TIP3    H231175   3.592   2.837   3.893 -1.3995  0.5667  0.6425
 3254TIP3   OH231176   4.906   1.122   3.379 -0.1012  0.2228  0.2120
 3254TIP3    H131177   4.879   1.054   3.440 -1.3019 -0.5563 -1.1401
 3254TIP3    H231178   4.826   1.172   3.361  0.0543 -0.0305 -1.2865
 3255TIP3   OH231179   0.125   1.927  11.103  0.6963  0.5367  0.2770
 3255TIP3    H131180   0.078   2.003  11.070 -0.0680 -0.2059 -0.3912
 3255TIP3    H231181   0.209   1.928  11.057  0.2955  0.4314 -0.4747
 3256TIP3   OH231182   1.483   5.328   3.085  0.1612  0.4632 -0.0855
 3256TIP3    H131183   1.508   5.267   3.016  0.8536  0.4360  0.1816
 3256TIP3    H231184   1.477   5.274   3.164  2.2377  0.9462  0.4587
 3257TIP3   OH231185   4.809   0.277   1.166  0.0763 -0.0280  0.2740
 3257TIP3    H131186   4.752   0.202   1.148  0.5430 -0.4430  0.5025
 3257TIP3    H231187   4.897   0.245   1.145  0.5284 -0.1992  2.2147
 3258TIP3   OH231188   3.850   1.536  15.409 -0.0140  0.3921  0.0155
 3258TIP3    H131189   3.789   1.499  15.345  0.2345  0.2656 -0.1506
 3258TIP3    H231190   3.828   1.629  15.413 -1.7726 -0.0253  1.6742
 3259TIP3   OH231191   2.830   3.694   1.068  0.5008 -0.4287  0.2081
 3259TIP3    H131192   2.824   3.789   1.074  1.1095 -0.3488 -0.3072
 3259TIP3    H231193   2.769   3.661   1.134 -0.5056  0.3154 -0.3261
 3260TIP3   OH231194   3.765   5.556  12.036  0.0542 -0.0280 -0.1443
 3260TIP3    H131195   3.804   5.611  11.969  3.4369  0.2052  1.7607
 3260TIP3    H231196   3.780   5.466  12.005 -1.3958  0.0547 -1.1614
 3261TIP3   OH231197   2.199   4.548   5.629  0.0430  0.0049 -0.2717
 3261TIP3    H131198   2.272   4.605   5.654 -1.5190  2.1541 -0.3351
 3261TIP3    H231199   2.207   4.538   5.534 -0.2349  0.9940 -0.4071
 3262TIP3   OH231200   6.304   6.271   2.845  0.0393  0.6319  0.2143
 3262TIP3    H131201   6.333   6.338   2.782  0.1151 -0.5898 -1.1026
 3262TIP3    H231202   6.254   6.209   2.792 -0.0859 -0.3143  1.4137
 3263TIP3   OH231203   3.165   1.704  12.117  0.1914 -0.2707 -0.2192
 3263TIP3    H131204   3.202   1.617  12.129  0.0357 -0.3141 -0.0545
 3263TIP3    H231205   3.181   1.725  12.025 -1.0395 -1.0618 -0.6367
 3264TIP3   OH231206   0.829   5.483  14.956  0.0434  0.3565  0.0449
 3264TIP3    H131207   0.862   5.488  14.866  0.1448 -0.2085  0.0482
 3264TIP3    H231208   0.846   5.393  14.982 -2.8002 -0.4124 -0.4519
 3265TIP3   OH231209   2.804   5.478  16.090  0.0331  0.2281  0.0434
 3265TIP3    H131210   2.848   5.452  16.171 -1.6291 -0.8275  0.6453
 3265TIP3    H231211   2.814   5.574  16.089  0.0525  0.2770  1.5118
 3266TIP3   OH231212   0.638   5.869  11.879 -0.1706  0.1756  0.1590
 3266TIP3    H131213   0.544   5.879  11.865 -0.4957 -0.7536  1.4482
 3266TIP3    H231214   0.645   5.818  11.960  1.4824  2.3536  1.4983
 3267TIP3   OH231215   3.826   0.265   4.594  0.3814  0.3253  0.3530
 3267TIP3    H131216   3.815   0.219   4.677 -2.4441  0.7631  0.3115
 3267TIP3    H231217   3.835   0.357   4.619 -2.7117  0.7538  0.1985
 3268TIP3   OH231218   1.858   4.202  13.289 -0.3185  0.4486 -0.2767
 3268TIP3    H131219   1.807   4.283  13.278 -1.6641 -0.2845  0.3229
 3268TIP3    H231220   1.810   4.152  13.354  1.4230 -0.1193  0.6350
 3269TIP3   OH231221   5.293   2.031   1.575  0.3645 -0.2082 -0.0304
 3269TIP3    H131222   5.285   1.937   1.556  0.7105 -0.2146 -0.1552
 3269TIP3    H231223   5.279   2.073   1.490  2.0356 -0.2407 -0.3561
 3270TIP3   OH231224   5.168   3.998  15.236 -0.0933 -0.0488 -0.7089
 3270TIP3    H131225   5.109   4.031  15.304  0.4158 -0.0944 -0.2371
 3270TIP3    H231226   5.254   3.996  15.278  0.2878  0.2495 -1.4673
 3271TIP3   OH231227   0.520   3.680   0.490 -0.5911 -0.1902 -0.1757
 3271TIP3    H131228   0.437   3.662   0.446 -0.9618  0.1249  0.3865
 3271TIP3    H231229   0.581   3.614   0.456 -1.0053 -0.2677 -0.7724
 3272TIP3   OH231230   4.500   2.672  15.706  0.2474 -0.4734 -0.0758
 3272TIP3    H131231   4.588   2.638  15.719  0.1538 -0.4402  0.7112
 3272TIP3    H231232   4.510   2.767  15.706  0.5609 -0.4351 -2.6575
 3273TIP3   OH231233   4.696   6.402  16.445 -0.5385  0.3281 -0.2710
 3273TIP3    H131234   4.748   6.363  16.515  0.6084  0.2392 -1.1325
 3273TIP3    H231235   4.687   6.494  16.469  0.0063  0.3367 -0.0893
 3274TIP3   OH231236   3.036   0.461   3.120  0.4930 -0.2201  0.4168
 3274TIP3    H131237   3.131   0.475   3.124  0.4834 -0.3897  1.7005
 3274TIP3    H231238   3.024   0.404   3.045  1.2197  1.1590 -0.8132
 3275TIP3   OH231239   5.700   6.605  10.274  0.3040 -0.1677 -0.4970
 3275TIP3    H131240   5.670   6.689  10.308 -0.0651 -0.3321 -0.4195
 3275TIP3    H231241   5.793   6.620  10.254 -0.0326  0.6153 -1.6006
 3276TIP3   OH231242   5.692   5.372  15.450  0.5109 -0.0837  0.5490
 3276TIP3    H131243   5.713   5.295  15.502  0.6678  0.5258  1.4070
 3276TIP3    H231244   5.670   5.439  15.514 -0.2759  0.4053 -0.2047
 3277TIP3   OH231245   5.012   1.929   2.240 -0.1562 -0.0452  0.0096
 3277TIP3    H131246   5.087   1.896   2.289 -1.1174 -1.8675  0.3242
 3277TIP3    H231247   4.952   1.961   2.307  0.4872  1.8950 -0.2640
 3278TIP3   OH231248   3.688   6.172  14.318 -0.0253 -0.3479  0.1805
 3278TIP3    H131249   3.603   6.129  14.329 -0.4917  0.0809 -1.4815
 3278TIP3    H231250   3.744   6.129  14.382 -1.3315 -1.0754  0.8927
 3279TIP3   OH231251   0.076   4.834  11.474 -0.6587  0.2820 -0.7454
 3279TIP3    H131252   0.125   4.858  11.395 -0.0697  1.3154 -0.0997
 3279TIP3    H231253   0.068   4.739  11.470  1.2833  0.0859 -0.9761
 3280TIP3   OH231254   4.454   3.730   3.410 -0.2243 -0.2610  0.2614
 3280TIP3    H131255   4.465   3.824   3.421 -0.8262 -0.2777  1.1510
 3280TIP3    H231256   4.438   3.718   3.316  1.3045  0.3521 -0.1079
 3281TIP3   OH231257   0.233   5.698   2.782  0.3197  0.5291 -0.0689
 3281TIP3    H131258   0.247   5.697   2.877 -1.8386  1.3471  0.3114
 3281TIP3    H231259   0.221   5.790   2.760 -0.3725  0.2529 -0.9323
 3282TIP3   OH231260   6.566   6.114  13.130 -0.1100 -0.3265 -0.1912
 3282TIP3    H131261   6.624   6.067  13.070 -2.1295 -0.7071 -1.9534
 3282TIP3    H231262   6.478   6.098  13.096 -1.1506  1.5959  1.3966
 3283TIP3   OH231263   2.812   3.329   0.749 -0.2643 -0.5526  0.4109
 3283TIP3    H131264   2.809   3.259   0.684 -0.5773 -0.3333  0.1818
 3283TIP3    H231265   2.804   3.285   0.833  0.4695 -0.8685  0.3227
 3284TIP3   OH231266   0.167   3.983  11.091 -0.0658 -0.4465  0.1144
 3284TIP3    H131267   0.207   3.933  11.163 -0.4447 -0.2193  0.4866
 3284TIP3    H231268   0.145   3.916  11.026  0.1631 -0.6708  0.2622
 3285TIP3   OH231269   0.155   2.006  14.838  0.1022 -0.4760  0.1276
 3285TIP3    H131270   0.219   2.046  14.898  1.1077  0.5101 -1.5229
 3285TIP3    H231271   0.117   2.080  14.791 -0.9737 -1.2001 -0.1580
 3286TIP3   OH231272   0.867   5.997   2.548 -0.8372 -0.4144 -0.2530
 3286TIP3    H131273   0.884   5.907   2.577 -0.6330 -0.5210 -0.6944
 3286TIP3    H231274   0.850   6.045   2.629 -0.3371 -0.7163  0.0359
 3287TIP3   OH231275   5.705   3.192   1.085  0.1351 -0.4776 -0.0820
 3287TIP3    H131276   5.753   3.274   1.072 -2.3383  0.8917 -1.0469
 3287TIP3    H231277   5.745   3.154   1.163  3.6722 -0.1628 -1.5150
 3288TIP3   OH231278   2.901   2.391  11.165  0.2180  0.1523 -0.0886
 3288TIP3    H131279   2.987   2.351  11.171  0.3708  0.6966  2.5998
 3288TIP3    H231280   2.871   2.371  11.076  2.6004 -1.0369 -0.6963
 3289TIP3   OH231281   3.911   1.952   0.787  0.0174 -0.5417 -0.7164
 3289TIP3    H131282   3.976   1.945   0.718  1.1175  2.1927 -0.0700
 3289TIP3    H231283   3.839   2.001   0.747  0.7626  1.2716  0.0536
 3290TIP3   OH231284   4.783   3.894   2.551 -0.2318  0.0717 -0.2127
 3290TIP3    H131285   4.862   3.841   2.544 -0.1690  0.2647 -1.1227
 3290TIP3    H231286   4.789   3.935   2.637  0.9226  0.4872 -0.4786
 3291TIP3   OH231287   0.654   2.719   1.488  0.1177  0.9994 -0.3831
 3291TIP3    H131288   0.672   2.745   1.578  0.4291 -0.4652 -0.0046
 3291TIP3    H231289   0.727   2.664   1.463 -1.8271 -1.9408 -0.1014
 3292TIP3   OH231290   2.547   4.077  11.930 -0.2333  0.1007  0.1568
 3292TIP3    H131291   2.533   4.112  12.018 -2.1603  0.0701 -0.1007
 3292TIP3    H231292   2.589   3.992  11.944  0.2247  0.4537  0.9986
 3293TIP3   OH231293   2.552   3.185  11.110 -0.5943 -0.1445 -0.0507
 3293TIP3    H131294   2.500   3.106  11.099 -0.6410 -0.3562  1.5045
 3293TIP3    H231295   2.558   3.222  11.022 -0.0051 -2.2141 -0.9544
 3294TIP3   OH231296   3.546   0.719   1.564  0.0309  0.3356  0.3985
 3294TIP3    H131297   3.501   0.658   1.505 -2.5514  2.2447  0.2259
 3294TIP3    H231298   3.481   0.738   1.632  2.0981  0.0499  2.5927
 3295TIP3   OH231299   5.060   5.558   2.373  0.1051 -0.0231 -0.6248
 3295TIP3    H131300   5.069   5.507   2.292 -1.6880  1.0963 -1.5918
 3295TIP3    H231301   4.968   5.550   2.396  0.4104  0.4011  0.8396
 3296TIP3   OH231302   6.341   5.293  11.866 -0.4725  1.1616  0.3368
 3296TIP3    H131303   6.381   5.380  11.875  1.6190  0.2748  0.1709
 3296TIP3    H231304   6.281   5.286  11.940 -0.0226  2.4123  0.8432
 3297TIP3   OH231305   5.426   2.615   2.307  0.1869 -0.0428 -0.1040
 3297TIP3    H131306   5.353   2.672   2.284 -1.1972 -1.3597  0.8345
 3297TIP3    H231307   5.473   2.663   2.375  1.0658  1.4257 -1.6736
 3298TIP3   OH231308   0.261   6.148  13.299  0.1083 -0.5152  0.6461
 3298TIP3    H131309   0.345   6.194  13.311  0.3778 -0.7196 -0.3404
 3298TIP3    H231310   0.208   6.209  13.248 -0.1126 -0.6419  0.7260
 3299TIP3   OH231311   5.254   4.697   0.409 -0.2693 -0.2344 -0.3908
 3299TIP3    H131312   5.251   4.671   0.317 -0.7241  0.6546 -0.6386
 3299TIP3    H231313   5.313   4.772   0.412  2.5858 -2.3532  0.6205
 3300TIP3   OH231314   2.208   4.015  14.112 -0.2601  0.4958  0.2375
 3300TIP3    H131315   2.221   3.921  14.099  0.3798  0.5909  0.1570
 3300TIP3    H231316   2.141   4.038  14.048 -0.1276  0.1693 -0.0266
 3301TIP3   OH231317   0.609   0.832  17.208  0.4178 -0.9372  0.0344
 3301TIP3    H131318   0.604   0.749  17.160  1.1425 -1.0869  0.2136
 3301TIP3    H231319   0.692   0.870  17.181  0.0754 -0.2491 -0.0615
 3302TIP3   OH231320   4.169   3.840  10.433  0.0630  0.4529 -0.3670
 3302TIP3    H131321   4.143   3.923  10.472 -0.5117  0.8487 -1.5286
 3302TIP3    H231322   4.209   3.864  10.349  0.4216 -0.4140 -0.4633
 3303TIP3   OH231323   2.437   5.590   1.634 -1.3919  0.1165  0.1876
 3303TIP3    H131324   2.407   5.664   1.688  0.9713  0.5718  0.9974
 3303TIP3    H231325   2.428   5.514   1.690 -0.4076  0.3667  0.7172
 3304TIP3   OH231326   4.840   1.399  13.253 -1.0328 -0.2153  0.2243
 3304TIP3    H131327   4.774   1.374  13.318 -1.0250 -0.7537  0.0330
 3304TIP3    H231328   4.789   1.435  13.180 -1.1081 -0.4473  0.1592
 3305TIP3   OH231329   6.313   2.549   5.543 -0.0797 -0.3917 -0.2355
 3305TIP3    H131330   6.326   2.614   5.613 -0.2838  0.0560 -0.6083
 3305TIP3    H231331   6.267   2.477   5.585  0.2849 -0.3622  0.2219
 3306TIP3   OH231332   5.745   1.383  14.514 -0.0937  0.2267  0.8475
 3306TIP3    H131333   5.754   1.337  14.597  0.8566  1.2338  1.3289
 3306TIP3    H231334   5.668   1.439  14.525 -0.7227 -0.5560  0.5738
 3307TIP3   OH231335   6.465   2.855  16.690  0.2216 -0.5996 -0.3319
 3307TIP3    H131336   6.426   2.889  16.609  1.5139  1.0479 -0.3204
 3307TIP3    H231337   6.558   2.847  16.670  0.3235 -1.7584  0.5119
 3308TIP3   OH231338   0.437   6.074   4.274 -0.3503  0.1039  0.1085
 3308TIP3    H131339   0.531   6.060   4.264 -0.4453 -2.1977  1.6202
 3308TIP3    H231340   0.403   6.070   4.185  0.9160  0.3489 -0.4072
 3309TIP3   OH231341   2.793   3.539   0.190 -0.1652 -0.4130  0.3716
 3309TIP3    H131342   2.841   3.459   0.167 -0.8376 -0.9255  0.7106
 3309TIP3    H231343   2.850   3.582   0.254 -0.9320 -1.9340  2.1672
 3310TIP3   OH231344   0.670   2.353   5.756 -0.2070  0.1480 -0.1385
 3310TIP3    H131345   0.616   2.274   5.764  0.1460 -0.2345 -1.3646
 3310TIP3    H231346   0.757   2.320   5.736  0.0197  0.8465 -0.3180
 3311TIP3   OH231347   2.481   6.112  12.986  0.4036 -0.3251 -0.6103
 3311TIP3    H131348   2.572   6.081  12.990  0.4145 -0.1417  1.6136
 3311TIP3    H231349   2.434   6.040  12.943  1.3670 -0.9789 -0.6198
 3312TIP3   OH231350   0.883   1.213   5.940 -0.0257 -0.4057  0.3117
 3312TIP3    H131351   0.962   1.249   5.980  0.5602 -1.1778 -0.1364
 3312TIP3    H231352   0.828   1.290   5.922  0.7262  0.1553  0.3902
 3313TIP3   OH231353   5.920   1.551   3.407 -0.3088 -0.0112  0.0254
 3313TIP3    H131354   5.855   1.483   3.387  0.1439 -0.2471 -0.6486
 3313TIP3    H231355   5.932   1.599   3.325 -1.5481  1.7170  0.7924
 3314TIP3   OH231356   1.951   1.928   2.220 -0.4761  0.2479 -1.2393
 3314TIP3    H131357   1.954   2.011   2.174 -0.2906  0.9416 -0.0232
 3314TIP3    H231358   1.858   1.908   2.230 -0.5171  0.1603 -1.7706
 3315TIP3   OH231359   3.320   5.227  12.272  0.3190  0.1830  0.4836
 3315TIP3    H131360   3.249   5.288  12.291 -0.6921 -0.8655  0.1832
 3315TIP3    H231361   3.330   5.175  12.352 -1.1845 -1.5147 -0.3455
 3316TIP3   OH231362   3.224   0.087   5.784 -0.4661 -0.0853 -0.0638
 3316TIP3    H131363   3.208   0.117   5.873 -0.3977 -2.9139  0.9856
 3316TIP3    H231364   3.314   0.114   5.766 -1.1992  2.5721 -0.2784
 3317TIP3   OH231365   6.569   3.684   0.428 -0.1823  0.2304 -0.5483
 3317TIP3    H131366   6.519   3.616   0.473 -1.2277  0.5751 -1.1302
 3317TIP3    H231367   6.601   3.741   0.497  1.1942 -1.1363 -0.0038
 3318TIP3   OH231368   6.214   0.860  10.885 -0.3375 -0.4262 -0.0942
 3318TIP3    H131369   6.181   0.940  10.844  0.1498 -1.2053 -2.0757
 3318TIP3    H231370   6.144   0.834  10.946 -0.6677  1.2732  0.2993
 3319TIP3   OH231371   3.232   6.464  11.812 -0.1726  0.0374 -0.3670
 3319TIP3    H131372   3.185   6.393  11.767  0.2797 -2.3690  2.5993
 3319TIP3    H231373   3.303   6.487  11.752 -0.0420 -2.4211 -1.2866
 3320TIP3   OH231374   4.300   0.838  12.962  0.0403  0.3320 -0.5239
 3320TIP3    H131375   4.322   0.885  12.882  1.0257  0.1324 -0.3833
 3320TIP3    H231376   4.376   0.782  12.979 -1.1074 -1.3932 -0.7320
 3321TIP3   OH231377   6.340   6.168   4.654  0.1879 -0.4640  0.2095
 3321TIP3    H131378   6.304   6.220   4.726 -1.7245 -2.0870  0.5445
 3321TIP3    H231379   6.291   6.196   4.577 -0.4162 -1.2506  0.2812
 3322TIP3   OH231380   4.361   5.379  13.022  0.4556  0.0203 -0.2083
 3322TIP3    H131381   4.299   5.391  12.950 -0.0752  0.4321  0.3046
 3322TIP3    H231382   4.423   5.315  12.990 -0.6185 -0.8997 -0.5055
 3323TIP3   OH231383   4.560   0.724   2.588 -0.2249  0.0617 -0.1532
 3323TIP3    H131384   4.640   0.743   2.539  1.1001  0.2181  1.9439
 3323TIP3    H231385   4.540   0.805   2.635 -1.3279 -0.1463 -0.2232
 3324TIP3   OH231386   1.183   1.706  12.331 -0.0549  0.0770  0.2714
 3324TIP3    H131387   1.175   1.766  12.257  1.9122  0.6075  0.4273
 3324TIP3    H231388   1.191   1.762  12.408  2.3173 -0.2560  0.3672
 3325TIP3   OH231389   0.894   5.898  11.781  0.0925  0.4391 -0.1698
 3325TIP3    H131390   0.808   5.885  11.820  0.3226  0.9704  0.5370
 3325TIP3    H231391   0.952   5.915  11.855  0.7843  0.2291 -0.6454
 3326TIP3   OH231392   5.947   1.424  10.481  0.0816 -0.4510  0.2747
 3326TIP3    H131393   5.970   1.429  10.388 -2.1076 -0.8002 -0.3541
 3326TIP3    H231394   6.023   1.460  10.526  0.1028  2.5301 -1.8134
 3327TIP3   OH231395   1.392   0.875   1.356  0.0640 -0.2592  0.2533
 3327TIP3    H131396   1.476   0.900   1.315 -0.9406  0.6074 -1.3824
 3327TIP3    H231397   1.414   0.859   1.448  2.0973 -0.4637 -0.2107
 3328TIP3   OH231398   5.792   1.360   2.533 -0.4451  0.0719  0.2990
 3328TIP3    H131399   5.731   1.396   2.469 -0.3343 -0.7497 -0.2929
 3328TIP3    H231400   5.872   1.344   2.483 -0.2927 -0.3941  0.6877
 3329TIP3   OH231401   2.116   0.590   0.718  0.2993 -0.1138 -0.4348
 3329TIP3    H131402   2.048   0.611   0.654  0.2909 -1.7505 -1.0287
 3329TIP3    H231403   2.067   0.558   0.794  0.3287  1.3569  0.2291
 3330TIP3   OH231404   1.675   5.631   4.177 -0.2240 -0.0359  0.5082
 3330TIP3    H131405   1.581   5.618   4.168 -0.3579  1.1178  0.0507
 3330TIP3    H231406   1.692   5.716   4.134  1.1159 -0.5261 -0.0002
 3331TIP3   OH231407   2.371   3.852  15.410  0.4185 -0.4241 -0.7576
 3331TIP3    H131408   2.371   3.885  15.500  1.3143 -1.0597 -0.5097
 3331TIP3    H231409   2.335   3.764  15.417 -2.0818  0.4696 -1.4338
 3332TIP3   OH231410   2.371   2.853  16.256 -0.0606 -0.1198 -0.0496
 3332TIP3    H131411   2.312   2.778  16.249 -0.7852  0.4286  0.1475
 3332TIP3    H231412   2.429   2.845  16.180 -1.1827  0.0366 -0.9332
 3333TIP3   OH231413   2.329   1.980   2.864 -0.4191 -0.0607 -0.6449
 3333TIP3    H131414   2.363   2.067   2.845 -0.8361  0.7372  1.8775
 3333TIP3    H231415   2.236   1.993   2.881 -0.4054 -0.9046  0.1873
 3334TIP3   OH231416   2.731   0.931   4.160 -0.0297  0.7488  0.2558
 3334TIP3    H131417   2.675   0.975   4.097 -0.7928 -0.7991 -0.1967
 3334TIP3    H231418   2.715   0.837   4.146  2.0184  0.2800  0.7154
 3335TIP3   OH231419   5.741   1.536   1.105 -0.2059 -0.6999  0.2039
 3335TIP3    H131420   5.763   1.522   1.197 -1.1272 -0.8315  0.4129
 3335TIP3    H231421   5.776   1.459   1.060  1.7912  0.1699  0.1590
 3336TIP3   OH231422   4.437   3.382  14.750 -0.6418 -0.4165  0.9000
 3336TIP3    H131423   4.387   3.363  14.829 -4.5087  1.2709 -0.8283
 3336TIP3    H231424   4.395   3.329  14.682  0.1471  0.7983 -0.6131
 3337TIP3   OH231425   0.443   6.730   4.954 -0.7002  0.3557  0.1714
 3337TIP3    H131426   0.391   6.650   4.966 -0.0359 -0.2404 -0.7674
 3337TIP3    H231427   0.503   6.709   4.882  0.8926  0.9934  1.2484
 3338TIP3   OH231428   5.915   4.898   3.339 -0.2699  0.1097  0.0871
 3338TIP3    H131429   5.946   4.944   3.417 -0.7984 -1.3292  1.1967
 3338TIP3    H231430   5.993   4.886   3.285  0.5087 -0.5861  1.3198
 3339TIP3   OH231431   4.825   4.765   2.225 -0.3267 -0.1041 -0.4356
 3339TIP3    H131432   4.837   4.818   2.304  0.2133 -1.6205  0.5367
 3339TIP3    H231433   4.735   4.782   2.199 -1.7170 -2.0426  2.4758
 3340TIP3   OH231434   1.429   5.875   3.647 -0.4490 -0.1639 -0.2326
 3340TIP3    H131435   1.431   5.963   3.684  0.2944  0.2147 -1.1323
 3340TIP3    H231436   1.520   5.856   3.623 -0.4912 -1.4179  0.4914
 3341TIP3   OH231437   0.100   4.174  12.666 -0.5772 -0.1472 -0.0339
 3341TIP3    H131438   0.115   4.217  12.750 -0.2369  2.3107 -1.2360
 3341TIP3    H231439   0.059   4.242  12.612 -1.6117 -1.9284 -1.5993
 3342TIP3   OH231440   1.685   0.489   4.820 -0.0404  0.2624 -0.0243
 3342TIP3    H131441   1.644   0.547   4.755  0.5983  0.9517  0.1696
 3342TIP3    H231442   1.779   0.498   4.804  0.0655 -1.4542 -0.6008
 3343TIP3   OH231443   2.297   1.343  17.127 -0.1349 -0.4396 -0.2796
 3343TIP3    H131444   2.236   1.273  17.104 -0.1311 -0.5216 -0.0438
 3343TIP3    H231445   2.280   1.411  17.062 -0.2983 -0.5653 -0.3716
 3344TIP3   OH231446   2.591   5.680  10.511 -0.8218  0.5237 -0.0560
 3344TIP3    H131447   2.563   5.733  10.586 -0.1355 -0.5841  1.0287
 3344TIP3    H231448   2.521   5.690  10.447 -0.1343  3.8079 -0.4903
 3345TIP3   OH231449   5.899   2.866   4.412 -0.6842 -0.0126 -0.3348
 3345TIP3    H131450   5.871   2.953   4.385  0.6065  0.0016 -1.7828
 3345TIP3    H231451   5.972   2.882   4.472  0.8892 -0.0373 -2.1405
 3346TIP3   OH231452   5.344   3.786   1.072 -0.2319 -0.0702  0.0700
 3346TIP3    H131453   5.326   3.859   1.132 -2.1753  1.0651 -1.7574
 3346TIP3    H231454   5.431   3.806   1.036 -0.5119  1.1178 -0.0083
 3347TIP3   OH231455   2.713   6.381   0.972  0.0755  0.3044 -0.4321
 3347TIP3    H131456   2.678   6.336   1.048 -1.5967 -0.0458 -1.3544
 3347TIP3    H231457   2.649   6.364   0.902 -0.4143  3.6237 -0.9752
 3348TIP3   OH231458   5.354   2.647   1.730 -0.0772 -0.2324 -0.4759
 3348TIP3    H131459   5.398   2.705   1.792  0.5320 -1.4124  0.2290
 3348TIP3    H231460   5.303   2.706   1.674  0.9633  1.0134 -0.1572
 3349TIP3   OH231461   4.112   2.501  16.812 -0.4170 -0.5512 -0.0610
 3349TIP3    H131462   4.122   2.430  16.876 -1.3841 -1.3738 -0.7987
 3349TIP3    H231463   4.197   2.507  16.769 -0.5296 -1.7514 -0.4791
 3350TIP3   OH231464   2.156   4.403  11.542 -0.0463 -0.0439  0.1629
 3350TIP3    H131465   2.147   4.400  11.447 -0.6974  0.5981  0.1943
 3350TIP3    H231466   2.068   4.386  11.576  0.1678 -0.2124  0.6504
 3351TIP3   OH231467   5.670   4.629   4.517 -0.2482  0.1138 -0.2989
 3351TIP3    H131468   5.731   4.581   4.461  0.4929 -0.1835  0.7309
 3351TIP3    H231469   5.628   4.562   4.570  0.2719  0.5193  0.6531
 3352TIP3   OH231470   0.053   5.360   5.912  0.9419 -0.0011 -0.5331
 3352TIP3    H131471   0.035   5.308   5.834  0.1922 -1.7443  0.7186
 3352TIP3    H231472   0.117   5.308   5.961 -0.1619 -0.0172  0.9770
 3353TIP3   OH231473   3.296   3.140  13.286 -0.7703 -0.0230 -0.5083
 3353TIP3    H131474   3.334   3.213  13.335  0.0660 -0.5104 -0.4010
 3353TIP3    H231475   3.207   3.168  13.265 -2.2032 -0.8824  3.6622
 3354TIP3   OH231476   0.000   5.696   3.369 -0.3662 -0.5314 -0.0596
 3354TIP3    H131477  -0.082   5.652   3.391 -0.3405 -0.9460 -0.7543
 3354TIP3    H231478  -0.015   5.788   3.391 -1.0126 -0.6059 -0.1630
 3355TIP3   OH231479   6.401   1.317   1.512  0.1980 -0.2513 -0.9168
 3355TIP3    H131480   6.378   1.242   1.457 -1.9060  0.1029 -0.6022
 3355TIP3    H231481   6.409   1.279   1.600 -2.3365  0.0231 -0.4865
 3356TIP3   OH231482   1.915   5.012  13.371  0.2488  0.2131  0.0870
 3356TIP3    H131483   1.936   5.023  13.278  2.4565  0.6406  0.5756
 3356TIP3    H231484   1.857   5.086  13.391 -0.9020 -0.3323 -1.0967
 3357TIP3   OH231485   2.442   3.184  16.827 -0.1510  0.2098 -0.6328
 3357TIP3    H131486   2.510   3.121  16.803 -0.2053  0.7786 -2.4927
 3357TIP3    H231487   2.490   3.264  16.847 -0.1955  0.1746 -0.3824
 3358TIP3   OH231488   3.540   6.107   6.532  0.2388  0.1583 -0.0129
 3358TIP3    H131489   3.462   6.163   6.535  0.2004  0.1158 -0.2136
 3358TIP3    H231490   3.508   6.022   6.503  0.1701 -0.1948  1.0374
 3359TIP3   OH231491   6.376   6.397  15.954  0.6856  0.8051  0.0192
 3359TIP3    H131492   6.426   6.416  16.033  0.6396 -1.0513  0.5523
 3359TIP3    H231493   6.284   6.410  15.979  0.7215  1.0603  0.0159
 3360TIP3   OH231494   5.020   1.740  11.658 -0.6279 -0.4493  0.4118
 3360TIP3    H131495   4.956   1.678  11.626 -0.5463 -0.7604  0.8464
 3360TIP3    H231496   5.009   1.817  11.602  0.4484 -1.4602 -1.3019
 3361TIP3   OH231497   0.753   0.032  13.389  0.5235  0.3420 -0.4039
 3361TIP3    H131498   0.728   0.095  13.321  0.3486 -0.6422 -1.2758
 3361TIP3    H231499   0.675  -0.022  13.403  0.4453  0.7505  0.8512
 3362TIP3   OH231500   1.904   6.646  11.245 -0.0726 -0.4286 -0.0715
 3362TIP3    H131501   1.892   6.603  11.161  0.7434  2.2858 -1.7006
 3362TIP3    H231502   1.830   6.707  11.252  1.5176  1.6489 -0.4257
 3363TIP3   OH231503   4.002   1.346  11.321 -0.5728 -0.2030  0.5499
 3363TIP3    H131504   3.992   1.369  11.228 -1.1195 -0.6311  0.4962
 3363TIP3    H231505   3.941   1.273  11.334  0.1470 -0.7256  1.0333
 3364TIP3   OH231506   3.084   6.465   4.270  0.5494  1.1383 -0.2224
 3364TIP3    H131507   3.024   6.391   4.268  0.8546  0.8972 -0.4298
 3364TIP3    H231508   3.080   6.496   4.360  1.7167 -0.1939  0.3183
 3365TIP3   OH231509   5.798   1.283   4.547 -0.5667 -0.2334  0.5218
 3365TIP3    H131510   5.746   1.356   4.512 -0.3526 -0.1449  0.3887
 3365TIP3    H231511   5.813   1.305   4.639  0.2774  0.3338  0.2536
 3366TIP3   OH231512   5.398   6.773  12.638 -0.2213 -0.1355  0.1823
 3366TIP3    H131513   5.425   6.720  12.563  0.0712  1.4588 -0.9093
 3366TIP3    H231514   5.389   6.711  12.710  1.3539 -1.4662 -0.6938
 3367TIP3   OH231515   5.457   2.748  16.703 -0.0607 -0.1091 -0.7996
 3367TIP3    H131516   5.453   2.806  16.779  1.6223 -0.3411 -0.5094
 3367TIP3    H231517   5.389   2.682  16.720  0.8074 -0.6159  0.8988
 3368TIP3   OH231518   5.879   4.252   4.174  0.0337 -0.5961 -0.5955
 3368TIP3    H131519   5.886   4.205   4.090 -3.0401  0.8808 -1.8590
 3368TIP3    H231520   5.818   4.200   4.225  0.1022 -0.3032 -0.2134
 3369TIP3   OH231521   3.548   1.456  15.540  0.0581  0.4190  0.6385
 3369TIP3    H131522   3.552   1.361  15.544 -0.6154  0.3082 -0.6070
 3369TIP3    H231523   3.543   1.476  15.446  0.9110  1.7197  0.8330
 3370TIP3   OH231524   6.119   1.222  11.393  0.6128  0.4507  0.0821
 3370TIP3    H131525   6.087   1.312  11.402  1.4487  1.0651 -2.3028
 3370TIP3    H231526   6.151   1.217  11.303  2.3810 -1.6760  0.7439
 3371TIP3   OH231527   3.469   6.630   6.179 -0.8319  0.6950  0.2263
 3371TIP3    H131528   3.509   6.670   6.256 -3.8207  2.1151  1.1796
 3371TIP3    H231529   3.435   6.546   6.210  2.0093 -1.0106 -0.8332
 3372TIP3   OH231530   3.252   1.871  16.443  0.6611  0.6166  0.2503
 3372TIP3    H131531   3.249   1.956  16.398 -2.2204  0.5809  0.2150
 3372TIP3    H231532   3.188   1.817  16.396  0.8323 -0.8723  1.6586
 3373TIP3   OH231533   2.695   4.803   1.107  0.1545  0.0733  0.2302
 3373TIP3    H131534   2.666   4.771   1.022 -0.2978 -0.2018  0.4824
 3373TIP3    H231535   2.731   4.890   1.089  0.5242 -0.1829 -0.3157
 3374TIP3   OH231536   2.662   0.004  16.674 -0.2795 -0.3296  0.0496
 3374TIP3    H131537   2.726  -0.051  16.718  0.2309 -0.1553 -0.4627
 3374TIP3    H231538   2.714   0.071  16.630 -0.8647  0.2876  0.2841
 3375TIP3   OH231539   0.390   1.576  12.406 -0.2785  0.5903  0.9253
 3375TIP3    H131540   0.383   1.514  12.333  0.9035  1.6368 -0.1267
 3375TIP3    H231541   0.300   1.607  12.419 -0.5815  0.0453  0.2081
 3376TIP3   OH231542   2.240   3.444   1.453  0.6733 -0.2389 -0.4403
 3376TIP3    H131543   2.318   3.412   1.407  0.2142 -1.1349 -0.6052
 3376TIP3    H231544   2.217   3.374   1.514 -2.2434 -1.8064 -3.0336
 3377TIP3   OH231545   0.036   2.844   6.232 -0.1174 -0.0794  0.5274
 3377TIP3    H131546  -0.020   2.782   6.187 -0.0117  1.0882 -1.3484
 3377TIP3    H231547   0.123   2.805   6.228  0.1685  0.6018 -1.6948
 3378TIP3   OH231548   1.657   4.088   2.307  0.2171  0.5073 -0.3950
 3378TIP3    H131549   1.567   4.119   2.313  0.3715  0.6940  1.5925
 3378TIP3    H231550   1.687   4.117   2.221 -1.6438  0.3401 -1.1356
 3379TIP3   OH231551   0.492   2.559   5.799 -0.8376  0.3821  0.2157
 3379TIP3    H131552   0.553   2.485   5.804 -0.9200  0.3255  0.4005
 3379TIP3    H231553   0.408   2.523   5.829 -1.5015 -0.0903 -1.9706
 3380TIP3   OH231554   4.387   3.888   0.347 -0.5972  0.3683  1.3746
 3380TIP3    H131555   4.336   3.893   0.428  0.3558  1.9502  1.9252
 3380TIP3    H231556   4.472   3.927   0.370  0.1974 -0.4683 -0.0151
 3381TIP3   OH231557   2.707   2.036  16.621  0.1691 -0.5678 -0.0063
 3381TIP3    H131558   2.778   2.002  16.566  0.8531 -0.1568  0.6022
 3381TIP3    H231559   2.737   2.020  16.711 -0.9764 -1.3100  0.2599
 3382TIP3   OH231560   3.915   0.516   5.405  0.0299 -0.1398 -0.3033
 3382TIP3    H131561   3.879   0.466   5.332 -2.0444  1.2960 -0.3610
 3382TIP3    H231562   3.840   0.562   5.443  1.4168  0.9938  1.2795
 3383TIP3   OH231563   4.473   5.797  14.648  0.2899  0.2146 -0.1199
 3383TIP3    H131564   4.457   5.868  14.710  2.3575  1.0999 -0.5147
 3383TIP3    H231565   4.507   5.726  14.703  0.4521  0.3711 -0.0148
 3384TIP3   OH231566   5.035   3.946  16.525  0.0654 -0.4760  0.4207
 3384TIP3    H131567   4.953   3.900  16.510 -0.2903  0.3830 -0.4226
 3384TIP3    H231568   5.010   4.038  16.533  0.9631 -0.1670 -0.1555
 3385TIP3   OH231569   1.146   6.701   4.424 -0.6403 -0.1113  0.0707
 3385TIP3    H131570   1.152   6.703   4.329  1.4809  0.6583  0.1714
 3385TIP3    H231571   1.117   6.789   4.448 -1.0913 -0.2788  0.1612
 3386TIP3   OH231572   6.160   0.487   2.362  0.0223  0.0353 -0.5384
 3386TIP3    H131573   6.253   0.508   2.372  0.4457 -1.4839 -1.0843
 3386TIP3    H231574   6.120   0.569   2.331  0.7861  1.2911  1.5527
 3387TIP3   OH231575   4.279   6.320   0.779  0.1176 -0.0742  0.6804
 3387TIP3    H131576   4.366   6.356   0.764 -0.6776  1.7592  0.2661
 3387TIP3    H231577   4.273   6.245   0.719  0.7452  0.9082 -0.6556
 3388TIP3   OH231578   3.193   1.892  14.622  0.3570 -0.4322 -0.3913
 3388TIP3    H131579   3.114   1.885  14.569  0.5739 -1.9861 -0.5405
 3388TIP3    H231580   3.263   1.859  14.567  1.4268  2.2031 -0.7860
 3389TIP3   OH231581   3.867   3.897   5.475  0.6087  0.0163  0.0955
 3389TIP3    H131582   3.857   3.810   5.514  2.0897 -0.0650  0.3652
 3389TIP3    H231583   3.878   3.955   5.550  0.0266  0.3949 -0.1009
 3390TIP3   OH231584   3.020   1.494   1.632 -0.4804  0.0669 -0.4068
 3390TIP3    H131585   3.025   1.588   1.650 -0.6199  0.1851 -0.9643
 3390TIP3    H231586   2.959   1.487   1.559  0.2550 -0.3663 -0.9957
 3391TIP3   OH231587   6.642   1.724   0.594  0.4922  0.2569  0.2907
 3391TIP3    H131588   6.611   1.712   0.684 -2.2337 -0.4384 -0.6535
 3391TIP3    H231589   6.700   1.650   0.578 -1.1180 -1.1338  0.6610
 3392TIP3   OH231590   1.483   4.718  17.286  0.4083  0.1512  0.2416
 3392TIP3    H131591   1.540   4.643  17.274 -0.6438 -0.7517  0.7493
 3392TIP3    H231592   1.420   4.691  17.354 -0.7923  0.9978 -0.4853
 3393TIP3   OH231593   5.343   4.013   1.224 -0.3805 -0.2069 -0.1806
 3393TIP3    H131594   5.304   4.069   1.290  0.5092  1.2762 -0.8656
 3393TIP3    H231595   5.398   4.071   1.172  0.1990 -1.6262 -1.2353
 3394TIP3   OH231596   5.587   2.041  13.530  0.2835  0.7008 -0.1642
 3394TIP3    H131597   5.540   2.124  13.542  0.3229  0.9458 -1.5825
 3394TIP3    H231598   5.647   2.038  13.604 -0.8465  1.1424  0.8135
 3395TIP3   OH231599   0.441   6.655   1.018  0.4233 -0.2540  0.3326
 3395TIP3    H131600   0.485   6.611   0.945 -0.5906  2.3661 -2.0738
 3395TIP3    H231601   0.502   6.646   1.092  1.6804 -2.7202 -0.9000
 3396TIP3   OH231602   2.994   4.456  12.280 -0.0781 -0.3359 -0.1198
 3396TIP3    H131603   2.995   4.395  12.353 -0.0522 -1.2068 -0.8326
 3396TIP3    H231604   3.072   4.510  12.292  0.4065 -1.0555  0.0082
 3397TIP3   OH231605   6.538   4.920  14.707 -0.0937 -0.4348  0.3221
 3397TIP3    H131606   6.487   4.857  14.656  2.6456 -2.4016 -0.2251
 3397TIP3    H231607   6.477   4.953  14.773 -2.4436 -1.4065 -1.2544
 3398TIP3   OH231608   5.571   5.462   2.132  0.1653  0.0233  0.0695
 3398TIP3    H131609   5.530   5.401   2.193 -1.9021  0.6921 -0.5834
 3398TIP3    H231610   5.546   5.430   2.045 -0.5801  1.5115 -0.2897
 3399TIP3   OH231611   0.563   2.497   4.575 -0.7999  0.7267 -0.6478
 3399TIP3    H131612   0.491   2.502   4.512 -0.0043  1.5700 -1.5296
 3399TIP3    H231613   0.549   2.573   4.632 -0.6651  0.8363 -0.7604
 3400TIP3   OH231614   3.897   2.356  17.255 -0.1521  0.1939 -0.4832
 3400TIP3    H131615   3.908   2.370  17.349  1.0426 -2.2903 -0.1897
 3400TIP3    H231616   3.803   2.370  17.240 -0.0566  2.6404  0.6264
 3401TIP3   OH231617   0.404   4.535  17.251 -0.0964  0.2776 -0.2524
 3401TIP3    H131618   0.400   4.439  17.252 -0.9584  0.2948  1.2048
 3401TIP3    H231619   0.436   4.557  17.164  0.7638 -1.3584 -0.3894
 3402TIP3   OH231620   0.549   2.101  15.247 -0.0158 -0.5421 -0.2066
 3402TIP3    H131621   0.599   2.148  15.181  1.8898  1.5284  2.4733
 3402TIP3    H231622   0.609   2.034  15.280  0.0153  0.0953  1.0903
 3403TIP3   OH231623   6.388   5.114  15.607  0.1697  0.4252  0.2120
 3403TIP3    H131624   6.325   5.043  15.614  0.8264 -0.0501  1.8768
 3403TIP3    H231625   6.461   5.077  15.558  1.1114 -0.5717  2.2441
 3404TIP3   OH231626   1.426   2.424  13.911 -0.1074  0.0509 -0.1826
 3404TIP3    H131627   1.487   2.469  13.852 -0.0246  0.9054  0.5344
 3404TIP3    H231628   1.468   2.428  13.997 -0.9250  0.1687  0.2174
 3405TIP3   OH231629   3.786   1.479   1.965 -0.1159  0.2058 -0.2965
 3405TIP3    H131630   3.798   1.571   1.986  0.8366  0.3076 -1.2220
 3405TIP3    H231631   3.700   1.475   1.922 -0.6896  0.4600  0.7970
 3406TIP3   OH231632   1.191   3.351   1.368  0.8972  0.2418  0.0692
 3406TIP3    H131633   1.098   3.365   1.348  0.2136 -0.4214  2.4968
 3406TIP3    H231634   1.203   3.257   1.360  0.7855  0.0519  1.8164
 3407TIP3   OH231635   0.520   5.516  13.990 -0.0102  0.1128 -0.1380
 3407TIP3    H131636   0.460   5.441  13.994  1.2518 -0.9315  0.0065
 3407TIP3    H231637   0.463   5.593  13.988 -1.3201 -0.7884  1.0758
 3408TIP3   OH231638   5.355   1.667   4.791 -0.0414  0.1024  0.4737
 3408TIP3    H131639   5.372   1.735   4.855 -0.9018  1.2832 -0.5097
 3408TIP3    H231640   5.424   1.602   4.805  0.0781  0.5795  2.2289
 3409TIP3   OH231641   6.283   0.399   3.744 -0.2623 -0.0676  0.1056
 3409TIP3    H131642   6.203   0.417   3.792  0.3663 -0.2413  1.2628
 3409TIP3    H231643   6.268   0.437   3.657 -0.9497  1.4197  0.8296
 3410TIP3   OH231644   5.850   2.380  11.729  0.0616 -0.0159  0.2197
 3410TIP3    H131645   5.862   2.340  11.643 -0.1676 -0.1434  0.2453
 3410TIP3    H231646   5.933   2.364  11.774  1.1629  2.2832 -0.8414
 3411TIP3   OH231647   4.824   3.171   1.513 -0.0920 -0.0891  0.7126
 3411TIP3    H131648   4.824   3.258   1.554  4.9948  0.1509  0.9182
 3411TIP3    H231649   4.799   3.187   1.422  3.5641  2.3867 -0.0768
 3412TIP3   OH231650   6.743   4.804  14.388 -0.3336  0.0967  0.1488
 3412TIP3    H131651   6.680   4.732  14.386  0.2161 -0.3679 -0.9466
 3412TIP3    H231652   6.765   4.820  14.296 -2.4804  3.5073  0.0391
 3413TIP3   OH231653   5.729   6.320  12.228  0.5508 -0.0366 -0.4132
 3413TIP3    H131654   5.816   6.297  12.197  0.2077 -0.0615 -1.3955
 3413TIP3    H231655   5.721   6.278  12.314  0.5882 -2.1481 -1.3844
 3414TIP3   OH231656   0.246   3.497  12.407 -0.2106 -0.1286 -0.1344
 3414TIP3    H131657   0.303   3.454  12.472  2.6743  2.9533 -0.3815
 3414TIP3    H231658   0.206   3.570  12.454 -0.2277  0.5355 -1.1477
 3415TIP3   OH231659   5.395   0.936   2.586  0.1675  0.3646 -0.1093
 3415TIP3    H131660   5.371   0.905   2.499 -0.6561 -1.0891  0.5927
 3415TIP3    H231661   5.326   0.901   2.643  0.3413  1.8209  1.0368
 3416TIP3   OH231662   4.521   3.524  13.100 -0.2539  0.2899  0.1854
 3416TIP3    H131663   4.519   3.484  13.013  1.6450 -0.3794  0.3934
 3416TIP3    H231664   4.599   3.579  13.099 -1.0831  1.5190  0.9737
 3417TIP3   OH231665   3.551   6.736  16.911  0.4593 -0.1342  0.2251
 3417TIP3    H131666   3.541   6.829  16.933  1.8057 -0.0283  0.4894
 3417TIP3    H231667   3.491   6.722  16.838 -1.0640  0.5107  1.2874
 3418TIP3   OH231668   5.095   4.742  14.172  0.7008 -0.0333 -0.0790
 3418TIP3    H131669   5.152   4.736  14.095  0.5611 -0.2541 -0.1676
 3418TIP3    H231670   5.063   4.832  14.170  1.8950  0.4205  0.5927
 3419TIP3   OH231671   3.245   5.226  16.475 -0.3036  0.4389  0.4143
 3419TIP3    H131672   3.328   5.209  16.431 -0.1446 -0.2583  0.9759
 3419TIP3    H231673   3.266   5.224  16.569 -1.0142 -0.1017  0.5724
 3420TIP3   OH231674   0.089   4.042   3.142 -0.6090  0.0361  0.3678
 3420TIP3    H131675   0.014   4.036   3.084 -0.7557 -1.0785  0.6489
 3420TIP3    H231676   0.129   3.955   3.139  1.0274  0.7598 -0.2346
 3421TIP3   OH231677   4.305   5.384  12.605  0.0927 -0.2875  0.1521
 3421TIP3    H131678   4.364   5.445  12.650 -0.4315  1.4641 -1.3911
 3421TIP3    H231679   4.217   5.413  12.629 -0.1810  0.3241 -1.4650
 3422TIP3   OH231680   2.655   2.186   6.290 -0.0490  0.9099  0.2717
 3422TIP3    H131681   2.675   2.105   6.244 -0.2472 -0.5215  2.5629
 3422TIP3    H231682   2.614   2.158   6.372 -1.4808  3.3929  0.4991
 3423TIP3   OH231683   3.497   3.488  10.826 -0.3437 -0.5656 -0.8830
 3423TIP3    H131684   3.476   3.450  10.741 -0.4451 -0.8678 -0.7225
 3423TIP3    H231685   3.444   3.439  10.889  0.3326 -0.8843 -0.5511
 3424TIP3   OH231686   2.033   6.635  13.893 -0.4573  0.5844  0.4061
 3424TIP3    H131687   2.093   6.606  13.961 -1.2283 -1.2456  0.3832
 3424TIP3    H231688   1.977   6.700  13.935 -0.4175  0.0486  1.3004
 3425TIP3   OH231689   1.190   2.449   0.796 -0.1638  0.2393  0.3017
 3425TIP3    H131690   1.225   2.405   0.874 -1.3505  0.8607  1.2053
 3425TIP3    H231691   1.117   2.502   0.829 -0.4510  0.7980 -1.1827
 3426TIP3   OH231692   5.967   5.651   5.626 -0.0553  0.3807 -1.0484
 3426TIP3    H131693   5.975   5.702   5.545 -0.7248  3.4498  0.6524
 3426TIP3    H231694   5.917   5.573   5.600 -0.8881  1.5965 -3.4393
 3427TIP3   OH231695   1.257   1.469  12.073 -0.0679 -0.3020 -0.1518
 3427TIP3    H131696   1.261   1.399  12.008  0.9403 -0.8510  0.4825
 3427TIP3    H231697   1.299   1.544  12.030 -0.9197 -0.1546 -0.7398
 3428TIP3   OH231698   0.353   1.048   4.298 -0.1289  0.3112  0.1629
 3428TIP3    H131699   0.259   1.028   4.292  0.0515 -0.4933 -0.0219
 3428TIP3    H231700   0.357   1.128   4.350 -0.9161  0.3140  0.2286
 3429TIP3   OH231701   4.376   4.598  11.719 -0.4482 -1.0152 -0.0098
 3429TIP3    H131702   4.336   4.597  11.806 -2.3584 -2.1258 -0.8276
 3429TIP3    H231703   4.470   4.591  11.735 -0.7421 -0.9347  1.9530
 3430TIP3   OH231704   2.674   1.623   3.007 -0.4124 -0.2432 -0.4725
 3430TIP3    H131705   2.664   1.718   3.003 -1.7339 -0.3336 -0.0064
 3430TIP3    H231706   2.708   1.606   3.095 -1.6482 -0.2809  0.0166
 3431TIP3   OH231707   0.283   6.621  16.298 -0.4298 -0.0136 -0.7788
 3431TIP3    H131708   0.200   6.578  16.315 -0.4222  0.0019 -0.7005
 3431TIP3    H231709   0.346   6.573  16.352 -0.4904  0.3499 -0.3771
 3432TIP3   OH231710   1.249   0.932  14.235 -0.2378  0.1424  0.0470
 3432TIP3    H131711   1.224   0.988  14.162 -2.8033 -0.8437  0.0469
 3432TIP3    H231712   1.343   0.915  14.222 -0.0684  1.9924 -1.5679
 3433TIP3   OH231713   0.628   3.570  15.800  0.2489  0.8758 -0.0680
 3433TIP3    H131714   0.571   3.630  15.848  0.4607  2.4387 -1.6626
 3433TIP3    H231715   0.573   3.533  15.731 -0.4156 -2.3727  2.0278
 3434TIP3   OH231716   6.464   4.565   2.855 -0.0903 -0.7666 -0.3538
 3434TIP3    H131717   6.410   4.632   2.896 -1.6241 -1.1755 -1.5823
 3434TIP3    H231718   6.472   4.496   2.922 -0.2059 -0.2413  0.2073
 3435TIP3   OH231719   6.482   0.194  11.828  0.3582 -0.1615  0.1064
 3435TIP3    H131720   6.510   0.160  11.914  0.7559 -2.7735 -0.9582
 3435TIP3    H231721   6.386   0.196  11.833  0.3845 -0.1073  0.6642
 3436TIP3   OH231722   4.918   6.307  17.031 -0.2063  0.0001  0.2189
 3436TIP3    H131723   4.948   6.396  17.049  0.0041  0.2509 -1.2965
 3436TIP3    H231724   4.836   6.318  16.983 -0.3766 -0.6316  0.3534
 3437TIP3   OH231725   4.572   6.403  15.027 -0.6066 -0.0282 -0.3353
 3437TIP3    H131726   4.591   6.457  15.103 -1.6818 -0.2941  0.1433
 3437TIP3    H231727   4.586   6.460  14.952  1.6374 -0.0876 -0.0477
 3438TIP3   OH231728   6.178   2.567   4.878  0.2213 -0.4179  0.0746
 3438TIP3    H131729   6.138   2.542   4.794  0.0274 -0.9225  0.3169
 3438TIP3    H231730   6.165   2.662   4.883 -0.9424 -0.5691  0.1378
 3439TIP3   OH231731   3.927   0.702   0.271 -0.0350 -0.3357 -0.9239
 3439TIP3    H131732   3.960   0.716   0.182 -0.6218  0.0559 -1.0787
 3439TIP3    H231733   3.981   0.760   0.325  0.2485 -0.4914 -1.0364
 3440TIP3   OH231734   0.417   1.913   4.163  0.4380  0.4128 -0.0976
 3440TIP3    H131735   0.388   1.854   4.232  1.5588 -0.5085 -0.3912
 3440TIP3    H231736   0.425   1.858   4.085  1.3035  0.9776 -0.4252
 3441TIP3   OH231737   6.006   2.151  15.000  0.4605 -0.0079 -0.3673
 3441TIP3    H131738   6.067   2.175  14.930 -0.5854  0.2867 -1.2114
 3441TIP3    H231739   5.927   2.122  14.954  0.3543 -1.4985  0.6805
 3442TIP3   OH231740   0.823   3.111   5.952 -0.2069 -0.2696  0.7400
 3442TIP3    H131741   0.732   3.100   5.979 -1.1653  1.2090 -1.6037
 3442TIP3    H231742   0.828   3.071   5.866  0.8258  1.3749 -0.0130
 3443TIP3   OH231743   5.853   1.634   5.843 -0.2069  0.1717  0.1937
 3443TIP3    H131744   5.944   1.620   5.872  0.2229 -0.9115 -1.5434
 3443TIP3    H231745   5.862   1.678   5.759 -1.2509 -1.0571 -0.5796
 3444TIP3   OH231746   3.913   2.596  15.266  0.6423 -0.1826 -0.1608
 3444TIP3    H131747   3.834   2.648  15.277  0.5432 -0.2891 -0.3740
 3444TIP3    H231748   3.912   2.535  15.340 -0.1248 -1.0273 -0.8449
 3445TIP3   OH231749   6.071   1.914   2.004  0.4903 -0.2655 -0.0007
 3445TIP3    H131750   5.987   1.877   1.978  1.3852 -1.5953 -1.1537
 3445TIP3    H231751   6.092   1.872   2.088  0.0798 -0.0161  0.2304
 3446TIP3   OH231752   6.758   4.530   4.943 -0.2966 -0.0785 -0.7766
 3446TIP3    H131753   6.801   4.454   4.981 -1.0675 -0.2280 -0.1761
 3446TIP3    H231754   6.734   4.501   4.854 -1.5571 -0.9361 -0.1845
 3447TIP3   OH231755   1.864   5.440  15.756 -0.9590 -0.4356 -0.1227
 3447TIP3    H131756   1.775   5.412  15.733 -2.1684  1.2548  1.9966
 3447TIP3    H231757   1.874   5.524  15.711 -0.1024 -0.9691 -0.9509
 3448TIP3   OH231758   4.098   6.077  15.469  0.2647  0.3046 -0.1007
 3448TIP3    H131759   4.084   6.097  15.562 -1.3422  0.4532 -0.3539
 3448TIP3    H231760   4.194   6.078  15.459  0.4475  0.9211  1.4085
 3449TIP3   OH231761   1.872   4.406  16.691  0.3126  0.0425 -0.3375
 3449TIP3    H131762   1.936   4.401  16.620  0.3469  0.0396 -0.3060
 3449TIP3    H231763   1.791   4.433  16.647  0.5468  0.9292 -0.2531
 3450TIP3   OH231764   0.190   4.777  14.178 -0.4279  0.4070 -0.1365
 3450TIP3    H131765   0.156   4.769  14.088 -1.9901  0.8204  0.3813
 3450TIP3    H231766   0.225   4.865  14.183 -2.9558  1.4667  0.4400
 3451TIP3   OH231767   1.083   0.728  13.060  0.1900  0.2725  0.2355
 3451TIP3    H131768   0.997   0.761  13.086 -1.1750 -2.4504 -0.4964
 3451TIP3    H231769   1.127   0.708  13.143  0.6561  2.7117  0.6574
 3452TIP3   OH231770   5.216   1.431  15.207 -0.0949  0.0318 -0.1950
 3452TIP3    H131771   5.301   1.452  15.245 -0.6901  3.7617 -0.5277
 3452TIP3    H231772   5.233   1.355  15.152  2.9121  0.3196  0.1421
 3453TIP3   OH231773   0.919   5.468  14.656 -0.2809  0.0117 -1.3152
 3453TIP3    H131774   0.911   5.373  14.644  1.4141  0.0124 -3.0421
 3453TIP3    H231775   0.868   5.505  14.584 -0.3242  0.3948 -1.0889
 3454TIP3   OH231776   2.798   4.659   3.262  0.4693 -0.0465 -0.2042
 3454TIP3    H131777   2.876   4.701   3.297  0.1123  1.1859 -0.8442
 3454TIP3    H231778   2.759   4.614   3.337  1.5810 -0.3620  0.1996
 3455TIP3   OH231779   6.399   2.616   1.287  0.9270 -0.1926  0.3142
 3455TIP3    H131780   6.323   2.597   1.232 -0.0328  0.6489  1.3069
 3455TIP3    H231781   6.451   2.678   1.236  0.4372 -0.0123  0.0286
 3456TIP3   OH231782   2.436   2.364   1.261 -0.2659 -0.3749 -0.6259
 3456TIP3    H131783   2.501   2.305   1.224  0.9244 -0.7198  1.7697
 3456TIP3    H231784   2.488   2.428   1.311 -1.7025 -0.0244  0.4841
 3457TIP3   OH231785   4.764   6.363  13.224  0.0333 -0.2831  0.2719
 3457TIP3    H131786   4.822   6.391  13.295  1.2937  0.1186 -0.8831
 3457TIP3    H231787   4.759   6.438  13.166 -0.1708 -0.9506 -0.5907
 3458TIP3   OH231788   5.733   2.627  16.669 -0.1551  0.1817 -0.3623
 3458TIP3    H131789   5.645   2.661  16.683 -0.4429 -0.9006  0.5821
 3458TIP3    H231790   5.735   2.601  16.577 -0.8708  0.0983 -0.3572
 3459TIP3   OH231791   5.540   3.118  14.085  0.2767 -0.6782 -0.2495
 3459TIP3    H131792   5.516   3.155  14.000 -0.7219  0.0619  0.3375
 3459TIP3    H231793   5.594   3.186  14.126 -0.8284 -0.1988  0.4677
 3460TIP3   OH231794   4.527   0.837  14.748  0.0294 -0.0597  0.8123
 3460TIP3    H131795   4.527   0.751  14.707 -0.5149  0.2842  0.0772
 3460TIP3    H231796   4.602   0.835  14.808  1.3753 -0.2631 -0.8272
 3461TIP3   OH231797   4.093   5.097  14.621  0.4747 -0.6568  0.2333
 3461TIP3    H131798   3.998   5.107  14.617  0.5853  1.2470  1.0195
 3461TIP3    H231799   4.124   5.131  14.537  0.5195  0.5652  0.7090
 3462TIP3   OH231800   2.179   0.248   3.839 -0.1517 -0.4793 -0.2894
 3462TIP3    H131801   2.132   0.166   3.857  0.9687 -0.8358  1.3309
 3462TIP3    H231802   2.140   0.311   3.899  0.3048 -0.3550 -0.1168
 3463TIP3   OH231803   3.186   0.314  12.903  0.2058 -0.1609 -0.5675
 3463TIP3    H131804   3.108   0.309  12.849 -1.4427  1.6432  1.4983
 3463TIP3    H231805   3.231   0.230  12.887 -1.8257 -1.0266 -2.2140
 3464TIP3   OH231806   0.870   6.109  14.974 -0.1667 -0.3085 -0.1727
 3464TIP3    H131807   0.861   6.092  15.068 -1.2195 -1.3403 -0.4319
 3464TIP3    H231808   0.826   6.035  14.932 -0.5888  0.6368 -1.4672
 3465TIP3   OH231809   5.141   2.089   0.845  0.6513 -0.0843  0.1046
 3465TIP3    H131810   5.164   2.178   0.873  2.8971  0.0119 -1.7328
 3465TIP3    H231811   5.049   2.095   0.820  0.9250  1.9318 -0.6198
 3466TIP3   OH231812   1.907   4.402   5.916  0.1015  0.3358 -0.5607
 3466TIP3    H131813   1.846   4.474   5.903  0.8897  1.1150 -0.0282
 3466TIP3    H231814   1.928   4.404   6.009 -1.3920 -1.8595 -0.0878
 3467TIP3   OH231815   3.520   1.786   3.512 -0.3795  0.5809 -0.1038
 3467TIP3    H131816   3.477   1.858   3.559 -2.5012  0.5410 -1.8541
 3467TIP3    H231817   3.485   1.706   3.554 -0.5465  0.5609 -0.2794
 3468TIP3   OH231818   3.050   5.973   1.198 -0.1337  0.1989 -0.1964
 3468TIP3    H131819   2.966   6.013   1.174 -0.2363  0.7476  0.9772
 3468TIP3    H231820   3.103   5.978   1.118 -0.0954  2.8528 -0.1167
 3469TIP3   OH231821   2.644   0.937   0.409  0.9028 -0.1575 -0.2146
 3469TIP3    H131822   2.687   0.851   0.409  3.0181  0.8364 -1.6804
 3469TIP3    H231823   2.582   0.932   0.336  0.3487 -0.7305  0.2849
 3470TIP3   OH231824   4.590   5.825   1.190 -0.3548  0.7995 -0.8024
 3470TIP3    H131825   4.564   5.756   1.250  0.3905  0.6569 -0.6347
 3470TIP3    H231826   4.666   5.789   1.143  1.0294  2.0577  0.3874
 3471TIP3   OH231827   0.904   2.332  14.956 -0.4115 -0.2884 -0.1890
 3471TIP3    H131828   0.980   2.385  14.933 -1.9543  1.3600 -1.7901
 3471TIP3    H231829   0.855   2.323  14.874 -2.0840 -1.0745  0.8367
 3472TIP3   OH231830   5.707   4.727  10.602  0.0180  0.1538 -0.5379
 3472TIP3    H131831   5.655   4.806  10.613  0.9009  0.6771  0.0021
 3472TIP3    H231832   5.774   4.752  10.538  1.5456  0.5055  1.1219
 3473TIP3   OH231833   6.350   1.977  14.383 -0.4207  0.2774  0.1289
 3473TIP3    H131834   6.375   1.889  14.355 -0.4491  0.0370  0.8657
 3473TIP3    H231835   6.260   1.987  14.353 -0.2916  0.2089 -0.2982
 3474TIP3   OH231836   1.880   4.953   2.753  0.0840 -0.2063  0.4166
 3474TIP3    H131837   1.919   4.876   2.710  0.3976 -0.1351  0.5729
 3474TIP3    H231838   1.916   5.028   2.706 -0.9784 -0.1639 -0.3860
 3475TIP3   OH231839   4.235   6.663   1.119 -0.1225  0.1530  0.1808
 3475TIP3    H131840   4.259   6.634   1.031 -2.2562 -0.3161 -0.3087
 3475TIP3    H231841   4.207   6.584   1.164  0.0820  0.5260  0.9885
 3476TIP3   OH231842   4.551   0.158   1.708 -0.2966 -0.2465 -0.1394
 3476TIP3    H131843   4.568   0.208   1.627 -2.2991 -1.0431 -1.1237
 3476TIP3    H231844   4.573   0.068   1.685 -3.3679 -0.9399 -0.7639
 3477TIP3   OH231845   5.964   1.633  15.478  0.0505 -0.7058 -0.3250
 3477TIP3    H131846   5.937   1.725  15.468  0.3579 -0.8205 -2.7326
 3477TIP3    H231847   5.882   1.584  15.475 -0.1199 -0.5584  1.0209
 3478TIP3   OH231848   4.723   6.261  12.664 -0.0196  0.7495 -0.2644
 3478TIP3    H131849   4.653   6.196  12.674  0.2986  0.6875  2.1586
 3478TIP3    H231850   4.689   6.323  12.599 -1.9394  0.1994  0.1467
 3479TIP3   OH231851   1.542   3.181   4.381  0.0617 -0.1870  0.0931
 3479TIP3    H131852   1.511   3.110   4.325 -0.1832 -1.0261  1.2736
 3479TIP3    H231853   1.517   3.156   4.469 -0.3919  1.5598  0.5116
 3480TIP3   OH231854   3.707   6.359   2.527 -1.0625  0.1410 -0.2620
 3480TIP3    H131855   3.631   6.318   2.485 -0.6467  0.0973 -0.9953
 3480TIP3    H231856   3.672   6.439   2.566 -1.3222  0.6297 -1.4346
 3481TIP3   OH231857   1.673   1.761  14.614 -0.1019  0.5684  0.2613
 3481TIP3    H131858   1.748   1.704  14.633  0.9512  1.9387  0.3554
 3481TIP3    H231859   1.597   1.703  14.621  1.0499 -1.3146 -1.7018
 3482TIP3   OH231860   0.464   4.901  12.952 -0.0487  0.4367 -0.1199
 3482TIP3    H131861   0.490   4.840  12.883  1.8146 -1.4128  2.0546
 3482TIP3    H231862   0.397   4.854  13.001  0.6898  0.5272  0.9988
 3483TIP3   OH231863   6.586   2.048  12.216 -0.6462 -0.3364 -0.3644
 3483TIP3    H131864   6.552   2.056  12.126 -0.9011  0.0412 -0.2378
 3483TIP3    H231865   6.568   2.133  12.256  1.1427  0.1435 -0.5118
 3484TIP3   OH231866   1.489   4.896  12.154 -0.4497 -0.2758 -0.1724
 3484TIP3    H131867   1.519   4.843  12.227  2.5520 -0.5034 -1.4468
 3484TIP3    H231868   1.484   4.985  12.190  2.2944 -0.1513  0.0776
 3485TIP3   OH231869   5.466   0.553  10.365  1.0255  0.3218  0.0261
 3485TIP3    H131870   5.406   0.478  10.357  0.5616  0.7274 -0.3629
 3485TIP3    H231871   5.426   0.608  10.432 -0.2218  1.6624 -1.7341
 3486TIP3   OH231872   1.923   6.718   1.598  0.2374  0.3796  0.6448
 3486TIP3    H131873   1.944   6.627   1.579  0.8780  0.6501 -0.0293
 3486TIP3    H231874   1.938   6.728   1.692 -0.8324 -0.4553  0.9126
 3487TIP3   OH231875   1.682   2.565  17.123  0.5715 -0.8052  0.2253
 3487TIP3    H131876   1.692   2.598  17.212 -0.9215 -0.0484  0.1519
 3487TIP3    H231877   1.746   2.614  17.071  0.5737 -0.3331  0.6737
 3488TIP3   OH231878   5.455   1.301   6.234 -0.1817  0.8932 -0.3693
 3488TIP3    H131879   5.515   1.299   6.309  0.4540  0.2735 -0.8710
 3488TIP3    H231880   5.388   1.236   6.255 -0.1034  0.8503 -0.2538
 3489TIP3   OH231881   0.196   4.685  11.761  0.3604 -0.5084 -0.5285
 3489TIP3    H131882   0.159   4.644  11.839 -1.1729  0.3037 -0.8006
 3489TIP3    H231883   0.266   4.625  11.733  1.1579 -0.6559  1.6281
 3490TIP3   OH231884   5.898   6.721  15.871  0.2471 -0.2536  0.4419
 3490TIP3    H131885   5.893   6.657  15.800 -0.4402 -0.6949  0.8773
 3490TIP3    H231886   5.840   6.687  15.938  0.8907  0.1557  1.2294
 3491TIP3   OH231887   3.629   1.906   5.300 -0.7079 -0.1226  0.0635
 3491TIP3    H131888   3.678   1.982   5.331  0.5117 -0.6694 -0.4637
 3491TIP3    H231889   3.550   1.905   5.354 -0.0627  0.6862  1.0619
 3492TIP3   OH231890   4.783   2.933  13.955 -0.1345  0.6301  0.4537
 3492TIP3    H131891   4.708   2.942  13.896 -0.5928  1.7748  1.1755
 3492TIP3    H231892   4.846   2.999  13.923  1.6135 -1.8157 -1.5800
 3493TIP3   OH231893   4.139   5.435  16.692 -0.0231 -0.5307  0.2735
 3493TIP3    H131894   4.151   5.353  16.740 -1.1721 -0.6041  0.4467
 3493TIP3    H231895   4.047   5.436  16.668  0.0652  0.5368 -0.0694
 3494TIP3   OH231896   0.637   4.796   0.352  0.2590 -0.3989  0.0294
 3494TIP3    H131897   0.617   4.750   0.271 -0.4433 -1.6010  0.8577
 3494TIP3    H231898   0.687   4.733   0.404 -0.8534 -0.3022  1.2627
 3495TIP3   OH231899   0.828   3.157  15.678 -0.2900  0.0879 -0.3765
 3495TIP3    H131900   0.892   3.219  15.711 -0.1559 -0.0236 -0.4290
 3495TIP3    H231901   0.873   3.109  15.609 -0.5720  0.3221 -0.7264
 3496TIP3   OH231902   4.930   2.292  14.412  0.1911  0.1765  0.3368
 3496TIP3    H131903   4.941   2.254  14.325  1.4684 -0.0554  0.5728
 3496TIP3    H231904   4.836   2.301  14.423  0.0216  1.0855 -1.4361
 3497TIP3   OH231905   2.535   6.386   0.648  0.2505  0.2542  0.1607
 3497TIP3    H131906   2.471   6.392   0.577  0.9200  1.0394 -0.4028
 3497TIP3    H231907   2.484   6.356   0.724 -0.3650 -1.1900 -0.7729
 3498TIP3   OH231908   5.209   6.643  15.479 -0.0159 -0.4691 -0.5813
 3498TIP3    H131909   5.281   6.691  15.439  1.5470  0.1270  2.6150
 3498TIP3    H231910   5.130   6.682  15.442  1.2697  1.7495 -1.1648
 3499TIP3   OH231911   6.007   4.124  17.145  0.3982 -0.2140  0.0907
 3499TIP3    H131912   5.957   4.055  17.187 -0.7147  0.5026 -0.0120
 3499TIP3    H231913   6.085   4.133  17.199  0.0542 -0.8315  0.7103
 3500TIP3   OH231914   5.441   0.455   3.933  0.3898  0.1767 -0.0237
 3500TIP3    H131915   5.481   0.452   3.846  2.0332  0.7224  0.6754
 3500TIP3    H231916   5.458   0.543   3.965 -1.6099  0.5087  0.2505
 3501TIP3   OH231917   3.030   1.236   3.490  0.0166  0.0197  0.0619
 3501TIP3    H131918   3.055   1.289   3.414 -0.3133  1.0475  0.6496
 3501TIP3    H231919   3.011   1.150   3.454  2.7034 -0.3543 -0.6441
 3502TIP3   OH231920   2.184   2.262  16.185 -0.2897 -0.1062 -0.0810
 3502TIP3    H131921   2.227   2.251  16.271 -1.4796  0.6073  0.6275
 3502TIP3    H231922   2.243   2.319  16.136 -0.4163  0.8892  0.8895
 3503TIP3   OH231923   5.286   3.357   3.306  0.2844 -0.3101 -0.5853
 3503TIP3    H131924   5.327   3.356   3.393 -2.0116 -0.2013  0.5788
 3503TIP3    H231925   5.321   3.279   3.263  2.5868  0.4201 -0.1643
 3504TIP3   OH231926   0.035   0.071  11.137 -0.1989  0.2590 -0.4637
 3504TIP3    H131927   0.077   0.124  11.070  0.8679 -0.8473 -0.6965
 3504TIP3    H231928  -0.039   0.125  11.167  1.1130  2.0693 -0.3346
 3505TIP3   OH231929   0.766   3.278   5.301  0.0306  0.0457  0.2603
 3505TIP3    H131930   0.773   3.267   5.206  0.2547 -2.5353  0.5131
 3505TIP3    H231931   0.768   3.373   5.314  0.1838  0.4626 -2.2842
 3506TIP3   OH231932   5.522   4.719  12.380 -0.3004  0.4258 -0.4588
 3506TIP3    H131933   5.508   4.798  12.328  0.7841 -0.0028 -1.4372
 3506TIP3    H231934   5.599   4.738  12.433  0.4754 -0.2292 -1.2977
 3507TIP3   OH231935   4.493   6.020  15.230 -0.7032 -0.1744  0.0774
 3507TIP3    H131936   4.443   5.939  15.226 -1.9550  0.5194  1.1347
 3507TIP3    H231937   4.518   6.037  15.139 -0.9528 -1.4059 -0.2406
 3508TIP3   OH231938   3.144   1.339  12.042  0.1071  0.0153  0.5223
 3508TIP3    H131939   3.056   1.378  12.041 -0.0515 -0.0223  3.4164
 3508TIP3    H231940   3.129   1.245  12.029 -0.1329  0.1540 -0.2548
 3509TIP3   OH231941   5.730   6.593   0.083  0.0597 -0.0410  0.4078
 3509TIP3    H131942   5.696   6.580  -0.006  0.6033 -0.4978  0.2595
 3509TIP3    H231943   5.652   6.610   0.137 -0.3257 -0.3489 -0.0486
 3510TIP3   OH231944   6.691   3.872   2.702  0.4879 -0.0276  0.7170
 3510TIP3    H131945   6.641   3.792   2.713  0.5629 -0.4465 -1.5249
 3510TIP3    H231946   6.779   3.843   2.679  0.9868  0.7219  1.5670
 3511TIP3   OH231947   5.683   1.989  16.126  0.0335 -0.0843 -0.0561
 3511TIP3    H131948   5.720   1.960  16.209  0.8113  1.3129  0.1080
 3511TIP3    H231949   5.758   2.010  16.072 -0.4744  1.1941 -0.3073
 3512TIP3   OH231950   2.091   4.773  12.731  0.0511 -0.1646  0.5119
 3512TIP3    H131951   2.082   4.684  12.764 -0.8838 -0.3036 -0.0688
 3512TIP3    H231952   2.038   4.826  12.790 -1.0059 -0.3026 -0.2835
 3513TIP3   OH231953   6.515   5.466   6.073  0.0424 -0.0958 -0.2585
 3513TIP3    H131954   6.531   5.489   6.165 -2.1168  1.8185 -0.2714
 3513TIP3    H231955   6.566   5.530   6.024  0.1761 -0.3112 -0.4037
 3514TIP3   OH231956   5.829   4.670  13.729 -0.3427  0.5691  0.4152
 3514TIP3    H131957   5.877   4.605  13.781  0.4786 -1.2854 -2.4154
 3514TIP3    H231958   5.742   4.631  13.716 -1.0629  1.7132  1.5523
 3515TIP3   OH231959   3.329   0.497   3.164  0.3410  0.4997 -0.1298
 3515TIP3    H131960   3.337   0.574   3.219 -0.8929 -0.1107  0.9471
 3515TIP3    H231961   3.406   0.444   3.185  1.1583  1.3724 -0.8275
 3516TIP3   OH231962   1.483   6.392   5.610  0.3409 -0.1232 -0.3342
 3516TIP3    H131963   1.433   6.421   5.686  1.6032  1.1516  0.0551
 3516TIP3    H231964   1.470   6.461   5.545  2.2793  0.7276  0.1096
 3517TIP3   OH231965   6.106   0.063   1.213 -0.5450  0.0463 -0.3040
 3517TIP3    H131966   6.155   0.068   1.295 -1.5661 -0.4651  0.3638
 3517TIP3    H231967   6.139  -0.016   1.170 -0.2822  0.1006 -0.2038
 3518TIP3   OH231968   4.238   2.568  15.708  0.3021  0.1255 -0.5187
 3518TIP3    H131969   4.236   2.545  15.615  0.4334 -0.8691 -0.2886
 3518TIP3    H231970   4.309   2.631  15.715  0.8014 -0.3677 -0.9848
 3519TIP3   OH231971   2.174   3.107  13.735 -0.1141  0.4293  0.1568
 3519TIP3    H131972   2.143   3.187  13.778 -0.6181  0.9374 -1.1013
 3519TIP3    H231973   2.218   3.058  13.805 -0.0175  1.6802  1.0128
 3520TIP3   OH231974   1.146   2.383  14.273  0.7887 -0.3243  0.2954
 3520TIP3    H131975   1.156   2.442  14.197  0.1348 -2.7087 -1.7645
 3520TIP3    H231976   1.221   2.404  14.328  0.8830  2.0383 -0.6010
 3521TIP3   OH231977   1.350   0.373   1.300  0.4305  0.7201  0.7078
 3521TIP3    H131978   1.407   0.339   1.369 -0.5585 -2.2544  0.1927
 3521TIP3    H231979   1.368   0.318   1.224 -2.2834  0.3718  0.2029
 3522TIP3   OH231980   3.133   1.836   1.945  0.3392 -0.2172 -0.3587
 3522TIP3    H131981   3.051   1.788   1.945  1.0188 -1.4159  0.0745
 3522TIP3    H231982   3.113   1.918   1.991 -0.6805 -0.3538 -0.5490
 3523TIP3   OH231983   3.970   0.273  10.965  0.9896  0.3705  0.0657
 3523TIP3    H131984   3.909   0.327  11.016 -0.0036  1.0520 -1.7576
 3523TIP3    H231985   3.958   0.185  11.000  0.9168  0.9380  1.5221
 3524TIP3   OH231986   6.361   5.734   3.865 -0.0261 -0.6069 -0.1598
 3524TIP3    H131987   6.409   5.813   3.889  1.1415 -1.5574  0.7221
 3524TIP3    H231988   6.372   5.727   3.770 -0.5074  0.5032 -0.3152
 3525TIP3   OH231989   3.732   3.608   2.857 -0.0564  0.2136 -0.3752
 3525TIP3    H131990   3.704   3.568   2.940  1.1416 -1.8091 -0.8721
 3525TIP3    H231991   3.766   3.693   2.882  1.3713 -0.8120  1.4475
 3526TIP3   OH231992   4.602   1.357  16.011  0.7253  0.6147 -0.2952
 3526TIP3    H131993   4.669   1.426  16.007  0.6727  0.6636 -0.3415
 3526TIP3    H231994   4.520   1.405  16.029  0.6449  0.5901 -0.5965
 3527TIP3   OH231995   1.325   0.374  12.320  0.1073 -0.1211  0.5475
 3527TIP3    H131996   1.410   0.417  12.311 -0.4822  1.0945  0.5106
 3527TIP3    H231997   1.263   0.446  12.334 -1.2125 -0.8123 -1.3839
 3528TIP3   OH231998   2.721   5.496  14.294  0.1061  0.4028  0.1579
 3528TIP3    H131999   2.742   5.403  14.307  0.6758 -0.0631 -3.2773
 3528TIP3    H232000   2.795   5.543  14.334  0.0600 -0.5909  1.4891
 3529TIP3   OH232001   3.456   2.970  12.916  0.3740 -0.1567  0.1023
 3529TIP3    H132002   3.527   3.003  12.861 -0.3146 -0.5808 -1.0727
 3529TIP3    H232003   3.496   2.961  13.003  1.5390  0.3506 -0.3549
 3530TIP3   OH232004   5.449   2.332   0.616  0.1722  0.7672  0.3637
 3530TIP3    H132005   5.367   2.378   0.628  0.1667  1.0088 -0.5409
 3530TIP3    H232006   5.426   2.239   0.619 -0.1127  0.8360  0.2866
 3531TIP3   OH232007   6.130   2.482  14.344 -0.0903 -0.0879 -0.5643
 3531TIP3    H132008   6.210   2.453  14.302 -0.8585  0.1015 -2.2719
 3531TIP3    H232009   6.065   2.415  14.322 -0.2173 -0.7206  1.5757
 3532TIP3   OH232010   0.925   0.959  14.788  0.2102 -0.0625  0.0308
 3532TIP3    H132011   0.940   0.916  14.872 -1.3609 -2.5631 -0.8595
 3532TIP3    H232012   0.830   0.975  14.786  0.3993  1.0773 -0.7822
 3533TIP3   OH232013   0.692   2.394  13.417 -0.2003 -0.9314 -0.5731
 3533TIP3    H132014   0.710   2.306  13.386  0.1269 -1.0353 -0.0983
 3533TIP3    H232015   0.662   2.441  13.340 -4.6661 -2.5787 -0.1480
 3534TIP3   OH232016   0.171   1.090  14.068 -0.2966 -0.7405 -0.3784
 3534TIP3    H132017   0.099   1.048  14.021 -2.0119  1.4192  0.1873
 3534TIP3    H232018   0.149   1.183  14.068  3.0538  0.1880 -1.1134
 3535TIP3   OH232019   0.192   0.310   3.067  0.6005 -0.2193 -0.0969
 3535TIP3    H132020   0.106   0.298   3.108  0.3920 -2.9077 -1.0935
 3535TIP3    H232021   0.173   0.324   2.974  1.2060  1.1484 -0.0360
 3536TIP3   OH232022   5.734   4.167   0.958 -0.3257 -0.6535 -0.3863
 3536TIP3    H132023   5.768   4.104   0.894  1.8254 -1.8470  1.7843
 3536TIP3    H232024   5.807   4.225   0.977 -1.1387  0.1261  0.4778
 3537TIP3   OH232025   0.808   6.087   2.801 -0.0629 -0.1690 -0.5463
 3537TIP3    H132026   0.816   6.179   2.825  0.3981  0.1723 -1.9307
 3537TIP3    H232027   0.841   6.039   2.878 -0.7073  0.7823  0.3545
 3538TIP3   OH232028   2.764   2.207   1.667  0.6007 -0.0651 -0.4499
 3538TIP3    H132029   2.727   2.121   1.645 -0.3872  0.1760  0.1997
 3538TIP3    H232030   2.724   2.229   1.752  2.9348 -0.1899  0.7484
 3539TIP3   OH232031   3.934   6.586   5.281 -0.1857 -0.0909  0.4292
 3539TIP3    H132032   3.846   6.550   5.269 -0.5989  1.0074 -0.0039
 3539TIP3    H232033   3.933   6.667   5.231  0.9078  0.2085  0.8700
 3540TIP3   OH232034   6.274   4.906  11.823 -0.0075  0.5178 -0.7349
 3540TIP3    H132035   6.265   4.854  11.743  0.2087  0.9719 -1.0667
 3540TIP3    H232036   6.353   4.872  11.865  0.5698  1.0696 -1.3417
 3541TIP3   OH232037   5.191   2.289  15.833  0.4002  0.2474 -0.2459
 3541TIP3    H132038   5.259   2.341  15.876  0.3367  1.3727 -1.4410
 3541TIP3    H232039   5.207   2.199  15.863  2.2165  0.5243 -0.2514
 3542TIP3   OH232040   0.750   5.157  14.009  0.8456 -0.2873  0.3869
 3542TIP3    H132041   0.747   5.097  13.934  0.7405  0.5694 -0.3054
 3542TIP3    H232042   0.698   5.113  14.076 -1.0515 -0.0242 -0.8289
 3543TIP3   OH232043   6.124   2.581   2.754  0.0028 -0.0019  0.1832
 3543TIP3    H132044   6.196   2.583   2.692 -0.2321 -2.1966 -0.2129
 3543TIP3    H232045   6.095   2.490   2.756 -1.4885  0.4400  1.8068
 3544TIP3   OH232046   6.174   2.455   0.712  0.1482 -0.3895 -0.1141
 3544TIP3    H132047   6.134   2.451   0.799 -0.3969 -1.6520 -0.4017
 3544TIP3    H232048   6.150   2.541   0.678 -3.9017 -1.6322 -0.9712
 3545TIP3   OH232049   6.210   2.140   3.944 -0.3929  0.1690  0.2415
 3545TIP3    H132050   6.168   2.067   3.990  0.3621 -1.1179 -1.0338
 3545TIP3    H232051   6.285   2.162   3.999 -1.5466  1.1321  1.4859
 3546TIP3   OH232052   0.661   0.411   1.568 -0.2079 -0.0444  0.1639
 3546TIP3    H132053   0.575   0.440   1.601 -1.4353 -0.9326 -2.0285
 3546TIP3    H232054   0.648   0.401   1.474  1.6828 -2.3086  0.0483
 3547TIP3   OH232055   5.519   1.527  14.600  0.1573  0.0006  0.2988
 3547TIP3    H132056   5.514   1.530  14.695 -0.6513 -1.3918  0.3381
 3547TIP3    H232057   5.441   1.478  14.574  1.4792 -1.5748 -0.9227
 3548TIP3   OH232058   5.897   5.775   3.474 -0.3410 -0.3107 -0.6825
 3548TIP3    H132059   5.827   5.787   3.538  0.7020  0.4183  0.3666
 3548TIP3    H232060   5.922   5.864   3.449  0.6511 -0.5382 -0.5458
 3549TIP3   OH232061   4.596   4.567  11.483  0.3692 -0.4405 -0.2361
 3549TIP3    H132062   4.595   4.559  11.578 -2.0311 -1.8390 -0.2806
 3549TIP3    H232063   4.598   4.661  11.467 -1.0681 -0.1014  1.2894
 3550TIP3   OH232064   1.334   1.005  15.911 -0.3675  0.2074  0.0937
 3550TIP3    H132065   1.288   0.933  15.955 -3.4379  0.1896 -2.7852
 3550TIP3    H232066   1.372   0.965  15.833  2.1990  0.8554  0.9087
 3551TIP3   OH232067   5.485   0.699  16.274 -0.1593  0.3903 -0.3665
 3551TIP3    H132068   5.436   0.680  16.194 -1.0203  0.4692  0.1272
 3551TIP3    H232069   5.445   0.643  16.341 -0.0438  0.9639  0.1989
 3552TIP3   OH232070   2.629   2.854  12.347  0.1561  0.1200  0.1774
 3552TIP3    H132071   2.674   2.770  12.346  0.2319  0.1638 -0.4238
 3552TIP3    H232072   2.547   2.838  12.299  0.2367  0.4164 -0.0653
 3553TIP3   OH232073   3.661   4.678  13.597  0.6721  0.3754  0.5227
 3553TIP3    H132074   3.726   4.690  13.667  1.3391  2.5196 -0.3878
 3553TIP3    H232075   3.702   4.716  13.519  0.1903 -2.4170 -1.2583
 3554TIP3   OH232076   3.996   5.445   1.078  0.1273 -0.1323  0.0151
 3554TIP3    H132077   3.912   5.483   1.103  1.1018  0.8240  2.1082
 3554TIP3    H232078   4.032   5.507   1.014  1.1760  2.0232  2.5164
 3555TIP3   OH232079   4.677   4.412   4.599  0.1039  0.3752  0.0723
 3555TIP3    H132080   4.630   4.473   4.657 -0.4562  0.5970 -0.6084
 3555TIP3    H232081   4.682   4.457   4.515  1.8606  0.5029  0.2014
 3556TIP3   OH232082   0.399   5.471   5.989  0.4084  0.0408  0.2135
 3556TIP3    H132083   0.319   5.419   6.002  0.6256 -0.6823 -1.2006
 3556TIP3    H232084   0.384   5.550   6.040 -0.7301 -0.5812  0.8941
 3557TIP3   OH232085   4.566   6.746  13.168 -0.3177  0.3729 -0.3514
 3557TIP3    H132086   4.517   6.819  13.133 -0.0054  0.2648 -1.0305
 3557TIP3    H232087   4.564   6.758  13.263  2.2334  2.9327 -0.4983
 3558TIP3   OH232088   5.797   0.082  14.202 -0.3860  0.2918  0.2339
 3558TIP3    H132089   5.819  -0.005  14.168  2.9950  0.6590  1.1090
 3558TIP3    H232090   5.852   0.142  14.151 -1.6495  1.8124  0.5796
 3559TIP3   OH232091   5.479   4.376  10.684 -0.2379  0.0521  0.3787
 3559TIP3    H132092   5.566   4.395  10.720 -1.0871  0.7410  2.2092
 3559TIP3    H232093   5.484   4.403  10.593  1.5859 -0.3107  0.3348
 3560TIP3   OH232094   4.319   1.916  16.850 -0.3593 -0.3536  0.0285
 3560TIP3    H132095   4.384   1.847  16.866 -1.9042 -1.9034 -0.1649
 3560TIP3    H232096   4.340   1.949  16.763  1.0372  0.1926  0.5369
 3561TIP3   OH232097   0.858   4.312   5.342 -0.5853  0.0604  0.2837
 3561TIP3    H132098   0.873   4.221   5.368  2.1204  0.2405 -0.3559
 3561TIP3    H232099   0.920   4.363   5.395  0.2139  1.1540 -1.5884
 3562TIP3   OH232100   4.169   4.326  11.654  0.4945  0.2665  0.3205
 3562TIP3    H132101   4.150   4.348  11.746 -0.6401  0.3215  0.0970
 3562TIP3    H232102   4.086   4.291  11.621  0.5598  1.2663 -0.9765
 3563TIP3   OH232103   4.460   6.190  13.755  0.1595  0.0517  0.2006
 3563TIP3    H132104   4.397   6.121  13.776  1.1483 -1.2752 -1.0184
 3563TIP3    H232105   4.545   6.146  13.754  1.1369  1.7555  1.6090
 3564TIP3   OH232106   0.222   0.532  16.488 -0.0194  0.0696 -0.0454
 3564TIP3    H132107   0.160   0.598  16.520  1.1908  0.4013  1.7702
 3564TIP3    H232108   0.169   0.452  16.481 -0.9930  0.6876 -0.0488
 3565TIP3   OH232109   0.054   2.588   2.720  0.3058 -0.7172 -0.3214
 3565TIP3    H132110   0.117   2.660   2.719 -1.2632  0.6856 -1.2237
 3565TIP3    H232111   0.009   2.594   2.636 -1.5270 -1.2475  0.5821
 3566TIP3   OH232112   0.286   4.859   1.140  0.0831 -0.4546  0.1720
 3566TIP3    H132113   0.342   4.782   1.148  1.5908  0.4267 -1.1799
 3566TIP3    H232114   0.216   4.832   1.080  1.1545 -0.5355 -1.0947
 3567TIP3   OH232115   4.199   1.574   4.313  0.2616 -0.0764  0.7743
 3567TIP3    H132116   4.231   1.633   4.245  2.3215  0.2345  1.9355
 3567TIP3    H232117   4.146   1.629   4.370  0.5369  0.2209  0.7489
 3568TIP3   OH232118   5.959   5.929  11.779  0.2289  0.5149  0.4643
 3568TIP3    H132119   6.034   5.913  11.721  0.0115  0.0060  0.3154
 3568TIP3    H232120   5.890   5.961  11.721 -0.8169 -2.3177 -0.0639
 3569TIP3   OH232121   1.552   4.434   1.947 -0.6223 -0.6352  0.0172
 3569TIP3    H132122   1.518   4.466   1.863 -1.5928  1.6973  1.2260
 3569TIP3    H232123   1.477   4.389   1.987 -0.6767 -0.2374  0.3641
 3570TIP3   OH232124   2.019   0.288  10.922  0.2693 -0.0244 -0.5018
 3570TIP3    H132125   2.094   0.287  10.982 -0.2970 -1.4411  0.2384
 3570TIP3    H232126   1.964   0.359  10.954 -0.3619 -1.1874  1.1628
 3571TIP3   OH232127   0.004   5.524   2.716  0.1495 -0.0832 -0.5350
 3571TIP3    H132128  -0.087   5.553   2.705 -0.6463 -1.5559  1.5608
 3571TIP3    H232129   0.055   5.606   2.716 -1.4100  0.9388  0.1859
 3572TIP3   OH232130   3.325   0.653   4.950 -0.2731  0.1481  0.4119
 3572TIP3    H132131   3.307   0.651   4.856  0.4325 -1.8225  0.2864
 3572TIP3    H232132   3.238   0.655   4.990 -0.5810  1.6102 -0.2411
 3573TIP3   OH232133   3.548   2.355  13.877 -0.0609  0.2281  0.6754
 3573TIP3    H132134   3.556   2.447  13.901  0.4225  0.4875 -0.4513
 3573TIP3    H232135   3.501   2.355  13.794 -1.9691 -0.6799  1.6799
 3574TIP3   OH232136   2.726   1.532   0.109 -0.5021  0.1820  0.2857
 3574TIP3    H132137   2.745   1.603   0.170  0.9166  1.5117 -1.5685
 3574TIP3    H232138   2.806   1.524   0.056 -1.5362 -1.0971 -1.1784
 3575TIP3   OH232139   4.207   3.589   2.373 -0.2422  0.0965  0.0268
 3575TIP3    H132140   4.254   3.637   2.305  0.6856  0.6830  1.0529
 3575TIP3    H232141   4.269   3.521   2.401 -0.4150  0.1869  0.6388
 3576TIP3   OH232142   3.529   2.623  13.897 -0.0941 -0.0335  0.1039
 3576TIP3    H132143   3.594   2.690  13.918  0.5320 -0.7655  0.5446
 3576TIP3    H232144   3.463   2.669  13.846 -0.2115  1.1512  1.2781
 3577TIP3   OH232145   0.340   2.851  14.864  0.5244 -0.0760  0.1419
 3577TIP3    H132146   0.387   2.786  14.917  0.0973 -1.4099 -1.0770
 3577TIP3    H232147   0.261   2.806  14.835 -0.4125  1.4195  0.2991
 3578TIP3   OH232148   4.971   2.554   0.122 -0.0136 -0.1018  0.0756
 3578TIP3    H132149   4.914   2.630   0.121  1.0292  0.6984 -0.4323
 3578TIP3    H232150   5.017   2.557   0.038  1.3841 -0.2392  0.8076
 3579TIP3   OH232151   2.119   3.521   1.144 -0.1649 -0.2774 -0.0631
 3579TIP3    H132152   2.176   3.450   1.115 -1.2841 -1.5064  0.6522
 3579TIP3    H232153   2.046   3.477   1.187 -1.2663  1.2778 -0.2596
 3580TIP3   OH232154   2.037   2.730   3.445  0.6037 -0.3888  0.0506
 3580TIP3    H132155   2.070   2.641   3.436 -1.3183 -1.0264 -1.3647
 3580TIP3    H232156   2.008   2.754   3.357 -2.7210  0.0330  1.1260
 3581TIP3   OH232157   5.633   4.103   1.608 -0.2620  0.1474  0.5560
 3581TIP3    H132158   5.639   4.198   1.620  0.8269 -0.1387  2.8483
 3581TIP3    H232159   5.719   4.077   1.576 -1.1640  0.0946 -2.0424
 3582TIP3   OH232160   1.645   3.705   4.184 -0.0477  0.2955  0.2670
 3582TIP3    H132161   1.570   3.647   4.167  0.8342 -0.6538 -0.5361
 3582TIP3    H232162   1.701   3.655   4.243  1.4205 -0.3397 -1.5656
 3583TIP3   OH232163   4.097   3.313   0.649  0.6364 -0.2033 -0.1366
 3583TIP3    H132164   4.056   3.346   0.569 -0.7920  0.1475  0.7034
 3583TIP3    H232165   4.124   3.391   0.696 -0.6972 -0.2583  0.7998
 3584TIP3   OH232166   2.085   1.679  16.018  0.4501  0.1552  0.1568
 3584TIP3    H132167   2.073   1.701  16.110 -0.0902 -1.1760  0.4307
 3584TIP3    H232168   1.997   1.687  15.980  1.0257  3.0112 -0.8390
 3585TIP3   OH232169   4.817   5.470   6.171 -0.4635 -0.4090 -0.4293
 3585TIP3    H132170   4.779   5.494   6.256 -0.5128 -0.1562 -0.5228
 3585TIP3    H232171   4.813   5.374   6.170 -0.8047 -0.3978 -0.3037
 3586TIP3   OH232172   4.396   4.292   1.962  0.4966  0.2514 -0.1342
 3586TIP3    H132173   4.434   4.207   1.942 -0.5452  0.1708 -2.0086
 3586TIP3    H232174   4.456   4.356   1.924  1.0188  0.3686  0.8380
 3587TIP3   OH232175   4.761   0.460   4.159 -0.5228 -0.0294 -0.5186
 3587TIP3    H132176   4.806   0.540   4.188  1.0301 -0.5496 -1.3849
 3587TIP3    H232177   4.773   0.398   4.231 -0.2991  0.0056 -0.5246
 3588TIP3   OH232178   5.558   4.429   6.860  0.1822 -0.3432 -0.1391
 3588TIP3    H132179   5.526   4.397   6.944  0.0237 -2.0697 -0.8067
 3588TIP3    H232180   5.564   4.523   6.871  0.0840 -0.5125  1.7748
 3589TIP3   OH232181   5.498   4.935  11.236  0.2682  0.3076 -0.0946
 3589TIP3    H132182   5.593   4.945  11.239  0.1929  1.1382 -0.2842
 3589TIP3    H232183   5.464   5.023  11.252 -0.4492  0.3449 -1.6346
 3590TIP3   OH232184   5.387   4.699   1.155  0.2846 -0.2964  0.1450
 3590TIP3    H132185   5.396   4.737   1.242 -0.5806  1.7759 -0.5970
 3590TIP3    H232186   5.294   4.683   1.144  0.2168  0.5560 -0.7734
 3591TIP3   OH232187   1.626   0.483   0.634 -0.5291  0.1235  0.2001
 3591TIP3    H132188   1.652   0.395   0.662 -0.1001  0.0190 -0.4924
 3591TIP3    H232189   1.533   0.474   0.612 -0.5027 -0.1426  0.1915
 3592TIP3   OH232190   4.265   3.938  12.230  0.8366  0.1676  0.7165
 3592TIP3    H132191   4.237   3.851  12.258  2.2430 -0.5352  0.0404
 3592TIP3    H232192   4.254   3.936  12.134  0.1499  1.0185  0.7697
 3593TIP3   OH232193   1.859   3.253  16.314  0.4022  0.0216 -0.0363
 3593TIP3    H132194   1.945   3.294  16.325  1.4033 -1.7815 -0.8615
 3593TIP3    H232195   1.830   3.233  16.403  0.7261  0.7973  0.2558
 3594TIP3   OH232196   5.930   6.636  15.599 -0.0634  0.1194  0.0420
 3594TIP3    H132197   5.853   6.618  15.545 -0.5515  0.7102  0.5214
 3594TIP3    H232198   5.992   6.567  15.576 -1.2247 -1.1743  0.6083
 3595TIP3   OH232199   3.914   4.992   6.347 -0.3215 -0.0677  0.1755
 3595TIP3    H132200   3.864   4.924   6.302  0.6836 -0.0030 -1.1047
 3595TIP3    H232201   3.911   4.968   6.439 -1.5594 -0.7937 -0.0360
 3596TIP3   OH232202   4.719   3.731   2.784  0.7587  0.4102  0.6473
 3596TIP3    H132203   4.656   3.790   2.742  0.7685 -1.0162 -1.5370
 3596TIP3    H232204   4.714   3.753   2.877 -2.2123  1.0602  0.4313
 3597TIP3   OH232205   4.052   1.835  15.747  0.5040  0.0688  0.4887
 3597TIP3    H132206   4.027   1.879  15.665 -1.1937 -1.2283  0.2600
 3597TIP3    H232207   4.137   1.873  15.769  0.2841  1.5923 -1.0361
 3598TIP3   OH232208   4.866   3.033  15.231 -0.0946 -0.7647  0.0636
 3598TIP3    H132209   4.813   3.073  15.162  0.6638  0.0012 -0.0871
 3598TIP3    H232210   4.833   2.943  15.237  0.5254 -1.1882 -2.0245
 3599TIP3   OH232211   4.931   4.022  14.253 -0.4279  0.7079  0.5506
 3599TIP3    H132212   4.935   3.964  14.329  0.7814  0.1171  0.0579
 3599TIP3    H232213   4.947   4.110  14.288 -0.6493  0.5400  1.0767
 3600TIP3   OH232214   6.695   3.681  11.019 -0.7464 -0.2582 -0.4591
 3600TIP3    H132215   6.654   3.762  11.048 -0.3597 -0.3571  0.4035
 3600TIP3    H232216   6.765   3.709  10.960  0.4618  0.1677  1.1060
 3601TIP3   OH232217   0.273   3.048  10.604  0.3990  0.1035 -0.1140
 3601TIP3    H132218   0.187   3.088  10.612 -0.0922 -0.0791 -3.1643
 3601TIP3    H232219   0.255   2.954  10.601  0.6667  0.0673 -0.8084
 3602TIP3   OH232220   5.375   5.211  16.015  0.4132  0.3401  0.1717
 3602TIP3    H132221   5.340   5.248  16.095  0.6006  1.4222 -0.2277
 3602TIP3    H232222   5.440   5.147  16.044  0.0705  0.3033  0.8768
 3603TIP3   OH232223   6.733   3.964   4.485 -0.0709 -0.0561  0.1413
 3603TIP3    H132224   6.742   3.981   4.579  1.4409  0.1532 -0.0110
 3603TIP3    H232225   6.819   3.986   4.448  0.1934 -2.5266 -0.9349
 3604TIP3   OH232226   4.977   3.642  11.811 -0.2105  0.0698  0.4899
 3604TIP3    H132227   5.039   3.673  11.876 -1.7216  3.2080  0.6091
 3604TIP3    H232228   4.898   3.619  11.861 -0.6401  0.3752 -0.0346
 3605TIP3   OH232229   1.355   0.561   4.268  0.4100  0.4420  0.1416
 3605TIP3    H132230   1.295   0.589   4.338  1.1037 -0.1261  0.9752
 3605TIP3    H232231   1.319   0.602   4.189 -1.5059 -0.4630  0.4751
 3606TIP3   OH232232   4.779   4.347   6.784  0.5648 -0.0428  0.1070
 3606TIP3    H132233   4.776   4.371   6.877  0.5293 -3.4054  1.1046
 3606TIP3    H232234   4.858   4.293   6.776  1.3841  1.3520 -2.2277
 3607TIP3   OH232235   3.078   4.261   5.356 -0.0406  0.1094 -0.2729
 3607TIP3    H132236   3.049   4.304   5.437  1.0135 -0.7022  0.5526
 3607TIP3    H232237   3.023   4.301   5.288 -2.8161 -1.0255  1.1175
 3608TIP3   OH232238   4.419   1.260  14.585 -0.6999  0.2737 -0.2454
 3608TIP3    H132239   4.427   1.323  14.658  1.1090 -0.2555  0.0607
 3608TIP3    H232240   4.328   1.268  14.557 -1.2901  0.9258  1.6890
 3609TIP3   OH232241   6.341   2.310  17.070 -0.1554 -0.0314 -0.0816
 3609TIP3    H132242   6.374   2.400  17.066  0.2937 -0.1314  1.0214
 3609TIP3    H232243   6.271   2.313  17.135  0.3012 -0.5933  0.4589
 3610TIP3   OH232244   2.278   3.394   0.967  0.8871  0.4385 -0.5797
 3610TIP3    H132245   2.324   3.329   0.914  2.3469  1.2880 -0.4239
 3610TIP3    H232246   2.215   3.434   0.908 -0.4247 -1.4506 -0.5405
 3611TIP3   OH232247   5.687   1.884  16.408 -0.2642 -0.8572  0.0161
 3611TIP3    H132248   5.626   1.942  16.454  1.2503 -0.4550  1.6543
 3611TIP3    H232249   5.634   1.838  16.343 -1.8426  1.0590 -0.1067
 3612TIP3   OH232250   5.590   4.028  10.565  0.3059 -0.5167  0.1390
 3612TIP3    H132251   5.627   4.027  10.653 -1.6183 -0.4279  1.0110
 3612TIP3    H232252   5.498   4.052  10.578  0.0714 -0.0687 -1.9465
 3613TIP3   OH232253   1.716   3.237   1.820 -0.4316 -0.3822 -0.0330
 3613TIP3    H132254   1.666   3.159   1.842  0.6154 -0.4452  2.3414
 3613TIP3    H232255   1.808   3.210   1.825 -0.0723  0.7246 -0.2994
 3614TIP3   OH232256   6.326   3.101  13.041 -0.2859 -0.4674  0.1512
 3614TIP3    H132257   6.257   3.091  12.975  0.6833 -0.4196 -0.8849
 3614TIP3    H232258   6.399   3.049  13.008 -0.1476 -1.3608  1.7521
 3615TIP3   OH232259   3.661   2.336  13.393  0.0496  0.5001 -0.2512
 3615TIP3    H132260   3.578   2.289  13.389 -1.1430  2.4696  0.4830
 3615TIP3    H232261   3.673   2.357  13.486 -0.6234  3.5312 -0.7427
 3616TIP3   OH232262   4.608   1.976  13.831  0.1011 -0.4386 -0.1726
 3616TIP3    H132263   4.528   1.932  13.861 -0.4029  1.1524  0.9685
 3616TIP3    H232264   4.656   1.995  13.912  1.8851 -1.7615 -0.8699
 3617TIP3   OH232265   5.994   0.067   4.595 -0.3731  0.2774  0.0378
 3617TIP3    H132266   5.921   0.128   4.586 -0.2021  1.0720  2.8569
 3617TIP3    H232267   6.062   0.117   4.640  0.7062 -1.3040  0.2583
 3618TIP3   OH232268   2.968   6.020   4.061  0.4556 -0.2331  0.0371
 3618TIP3    H132269   3.037   5.954   4.052 -0.2294 -0.9338 -0.1867
 3618TIP3    H232270   2.931   6.005   4.148 -1.5949 -2.0724 -1.0464
 3619TIP3   OH232271   5.726   4.000   3.672 -0.0575 -0.4020 -0.5700
 3619TIP3    H132272   5.658   4.053   3.713  0.9564  0.2506  0.3082
 3619TIP3    H232273   5.772   3.960   3.745  1.6379  0.6040 -1.0490
 3620TIP3   OH232274   5.680   4.337  15.768  0.2717 -0.0923  0.4866
 3620TIP3    H132275   5.650   4.246  15.772 -0.0338 -0.0925 -1.1415
 3620TIP3    H232276   5.768   4.334  15.805  0.0866 -0.9718  0.8846
 3621TIP3   OH232277   5.736   0.874  16.088 -0.0185 -0.2966  0.0118
 3621TIP3    H132278   5.665   0.923  16.130  0.2467 -1.5358  2.0207
 3621TIP3    H232279   5.708   0.783  16.090  0.7240 -0.5680 -1.0980
 3622TIP3   OH232280   0.414   4.462  16.438  0.0163  0.6361  0.8360
 3622TIP3    H132281   0.441   4.455  16.346 -0.4250  0.1470  0.7338
 3622TIP3    H232282   0.493   4.439  16.488 -0.0240 -0.1715  0.5546
 3623TIP3   OH232283   6.140   3.918   3.725  0.7379  0.1953  0.3350
 3623TIP3    H132284   6.145   3.989   3.661  1.0239 -0.1446 -0.0216
 3623TIP3    H232285   6.222   3.870   3.715  0.0701 -0.8805 -0.2507
 3624TIP3   OH232286   6.738   3.412   3.447 -1.4107  0.1531  0.0725
 3624TIP3    H132287   6.672   3.346   3.466 -0.3252 -0.6860  1.0754
 3624TIP3    H232288   6.813   3.362   3.415 -0.9329  0.9977 -0.1642
 3625TIP3   OH232289   1.512   1.131   5.112 -0.2212 -0.2499  0.2804
 3625TIP3    H132290   1.466   1.123   5.196 -0.6038  1.1856  0.2341
 3625TIP3    H232291   1.561   1.213   5.120  0.6373 -0.6731 -0.4892
 3626TIP3   OH232292   6.416   1.196  12.469 -0.1931 -0.5963 -0.0069
 3626TIP3    H132293   6.379   1.238  12.391 -0.7820  0.1856  0.6740
 3626TIP3    H232294   6.493   1.150  12.437 -1.3581 -1.7171 -1.3626
 3627TIP3   OH232295   5.375   2.696  16.060  0.6137 -0.1664 -0.0004
 3627TIP3    H132296   5.442   2.650  16.110  1.5270  2.6632  1.6656
 3627TIP3    H232297   5.423   2.765  16.014 -1.0387  2.0139  1.3207
 3628TIP3   OH232298   4.975   4.213  16.142 -0.1126  0.2381  0.4282
 3628TIP3    H132299   4.902   4.183  16.195 -0.9704  1.1612 -0.2044
 3628TIP3    H232300   5.031   4.262  16.204 -1.0238  1.1775  0.5363
 3629TIP3   OH232301   5.325   6.442   1.998  0.4306  0.4100  0.4165
 3629TIP3    H132302   5.390   6.378   2.025 -1.0809 -1.0780  0.6569
 3629TIP3    H232303   5.334   6.447   1.903 -1.2115 -2.2500  0.0343
 3630TIP3   OH232304   0.333   5.008  16.907  0.2388  0.0316 -0.3107
 3630TIP3    H132305   0.255   4.963  16.874  0.4170 -0.3245 -0.2558
 3630TIP3    H232306   0.406   4.970  16.857  0.5465 -0.7289  0.6730
 3631TIP3   OH232307   2.278   5.118   2.696  0.0907 -0.0875  0.6020
 3631TIP3    H132308   2.306   5.055   2.763  1.7662 -0.5096 -0.4293
 3631TIP3    H232309   2.330   5.096   2.619 -0.6360  1.3987 -0.3697
 3632TIP3   OH232310   3.547   4.110  12.675  0.5382  0.4603 -0.3062
 3632TIP3    H132311   3.454   4.106  12.699  0.7757  1.0358  0.8196
 3632TIP3    H232312   3.590   4.143  12.754  1.7916 -0.4287 -0.5883
 3633TIP3   OH232313   2.199   1.557  14.544  0.3649 -0.0742  0.1935
 3633TIP3    H132314   2.187   1.609  14.624  0.5083 -0.7488  0.6576
 3633TIP3    H232315   2.259   1.610  14.491  1.1542 -0.1287  1.0020
 3634TIP3   OH232316   0.706   1.322   5.512  0.6372  0.1197 -0.4049
 3634TIP3    H132317   0.694   1.232   5.480  0.5878  0.0402 -0.1668
 3634TIP3    H232318   0.779   1.356   5.460  1.4269 -0.4579  0.3076
 3635TIP3   OH232319   1.141   5.608   1.239 -0.3370 -0.2592 -0.3379
 3635TIP3    H132320   1.220   5.555   1.250  0.0684  0.4552  0.3538
 3635TIP3    H232321   1.155   5.655   1.157  0.2502  0.3331  0.0927
 3636TIP3   OH232322   5.512   0.475  16.878  0.5067  0.0437  0.1088
 3636TIP3    H132323   5.495   0.437  16.965 -0.2120 -0.0480 -0.0624
 3636TIP3    H232324   5.525   0.568  16.894 -0.6151  0.1948  0.2141
 3637TIP3   OH232325   3.793   6.514  14.788 -0.2595  0.0831  0.5752
 3637TIP3    H132326   3.846   6.593  14.788 -1.2950  0.9239 -2.5026
 3637TIP3    H232327   3.835   6.457  14.723 -3.2851  1.0863 -2.5597
 3638TIP3   OH232328   5.566   4.972   4.732 -0.2941 -0.7175  0.5419
 3638TIP3    H132329   5.599   4.904   4.791  0.9715 -1.1202 -0.5596
 3638TIP3    H232330   5.603   4.948   4.647 -1.3151  0.3574 -0.2253
 3639TIP3   OH232331   0.231   3.308  12.686 -0.4082 -0.3654 -0.1960
 3639TIP3    H132332   0.212   3.372  12.754  1.3244 -0.3999  0.3906
 3639TIP3    H232333   0.316   3.335  12.651 -0.1911 -1.6665 -0.7457
 3640TIP3   OH232334   3.369   3.890  12.017 -0.2395  0.1563 -0.3406
 3640TIP3    H132335   3.294   3.887  11.959 -1.1782 -0.5428  0.8568
 3640TIP3    H232336   3.338   3.851  12.099  0.8273  1.6861  0.8626
 3641TIP3   OH232337   0.539   0.908   3.270 -0.0074 -0.1459  0.3088
 3641TIP3    H132338   0.496   0.966   3.207 -0.7767 -2.2590 -1.2173
 3641TIP3    H232339   0.584   0.844   3.216  1.4835 -0.5393  1.9431
 3642TIP3   OH232340   3.479   6.556  13.566  0.6549 -0.0217 -0.3336
 3642TIP3    H132341   3.432   6.528  13.487 -1.3903  1.2307  0.3564
 3642TIP3    H232342   3.473   6.481  13.625 -0.1957 -0.0097 -0.3927
 3643TIP3   OH232343   5.180   4.986  16.141 -0.3498 -0.4818  0.0652
 3643TIP3    H132344   5.208   4.901  16.107 -2.9272 -1.0586 -0.7928
 3643TIP3    H232345   5.243   5.048  16.104  1.2529 -1.9109  0.2753
 3644TIP3   OH232346   5.876   2.848   3.347 -0.2229 -0.1956  0.0364
 3644TIP3    H132347   5.813   2.904   3.302 -0.9936 -1.8460 -1.0039
 3644TIP3    H232348   5.892   2.893   3.430 -2.1729  0.6727 -0.0008
 3645TIP3   OH232349   3.653   6.311  11.589 -0.1153 -0.0113  0.3385
 3645TIP3    H132350   3.719   6.381  11.587  0.3348 -0.4410 -1.0017
 3645TIP3    H232351   3.660   6.270  11.503 -2.2535  0.0285  0.1123
 3646TIP3   OH232352   0.203   1.764   5.117 -0.3231  0.0247 -0.1215
 3646TIP3    H132353   0.113   1.736   5.136 -0.8919 -0.0539 -2.5978
 3646TIP3    H232354   0.194   1.851   5.078  0.5343 -0.4670 -1.5002
 3647TIP3   OH232355   0.610   0.000  11.850 -0.0998  0.3032  0.0587
 3647TIP3    H132356   0.603  -0.095  11.845  1.8821  0.0484  1.1473
 3647TIP3    H232357   0.622   0.028  11.760  2.1264 -0.8059 -0.0519
 3648TIP3   OH232358   2.121   4.324   5.225 -0.7506  0.0302  0.1593
 3648TIP3    H132359   2.131   4.233   5.253  1.8781  0.4762  0.9338
 3648TIP3    H232360   2.026   4.338   5.223 -1.2758 -3.0059 -1.0491
 3649TIP3   OH232361   1.403   3.555   1.894 -0.8000  0.4190  0.1091
 3649TIP3    H132362   1.355   3.610   1.833 -2.1096  0.4730  1.1451
 3649TIP3    H232363   1.412   3.608   1.973 -1.5356 -0.6017  0.9129
 3650TIP3   OH232364   2.797   6.035   4.773  0.5825 -0.2427  0.3642
 3650TIP3    H132365   2.879   6.084   4.777  0.1342  0.5463  0.0887
 3650TIP3    H232366   2.732   6.094   4.812 -0.0918 -0.3474 -0.5865
 3651TIP3   OH232367   1.740   5.572   5.694 -0.3553  0.0604 -0.0649
 3651TIP3    H132368   1.737   5.664   5.667 -0.5157  0.2885  0.6932
 3651TIP3    H232369   1.652   5.539   5.678 -0.2903  0.0284 -0.3623
 3652TIP3   OH232370   3.613   0.338  12.366  0.3034 -0.0835  0.4796
 3652TIP3    H132371   3.697   0.382  12.360  0.3546  0.2990  3.0170
 3652TIP3    H232372   3.633   0.251  12.400 -0.3292  0.0559  1.2283
 3653TIP3   OH232373   1.486   2.113   6.143  0.2234 -0.4239 -0.1282
 3653TIP3    H132374   1.392   2.099   6.145 -0.1182  1.5213 -0.6134
 3653TIP3    H232375   1.508   2.119   6.050  0.5524  0.6164 -0.0016
 3654TIP3   OH232376   6.488   0.054  14.079  0.0349 -0.3928  0.0458
 3654TIP3    H132377   6.419  -0.012  14.078  1.2688 -1.7432 -1.1588
 3654TIP3    H232378   6.522   0.052  14.169  0.8318 -2.3108 -0.2526
 3655TIP3   OH232379   6.687   0.312  13.949  0.2314 -0.1601  0.2399
 3655TIP3    H132380   6.685   0.229  13.901 -1.2719  0.2917 -0.5604
 3655TIP3    H232381   6.764   0.305  14.005 -0.1034 -2.2872  0.5448
 3656TIP3   OH232382   1.669   0.172  14.393  0.1456  0.1198  0.2633
 3656TIP3    H132383   1.670   0.262  14.424  0.0196  0.4245 -0.5914
 3656TIP3    H232384   1.607   0.172  14.320  0.5009 -0.5457 -0.0532
 3657TIP3   OH232385   1.888   5.536  11.979 -0.8749 -0.2145 -0.4714
 3657TIP3    H132386   1.968   5.485  11.982 -0.9652 -0.3263  0.1814
 3657TIP3    H232387   1.825   5.481  11.932 -0.0754  0.6012 -2.6089
 3658TIP3   OH232388   5.693   4.147   0.561 -0.3665 -0.7277 -0.8020
 3658TIP3    H132389   5.600   4.171   0.558  0.0920  1.1880 -0.7546
 3658TIP3    H232390   5.733   4.200   0.492  0.7685 -1.1747 -0.4946
 3659TIP3   OH232391   4.009   2.321  12.453 -0.1443 -0.4474  0.2297
 3659TIP3    H132392   4.061   2.291  12.378 -0.5866 -1.4402  0.3020
 3659TIP3    H232393   4.044   2.272  12.527 -0.2326 -0.0450  0.5415
 3660TIP3   OH232394   4.172   2.190   4.964  0.1179 -0.8586  0.1419
 3660TIP3    H132395   4.117   2.146   5.029  0.8420 -0.5644  0.9648
 3660TIP3    H232396   4.262   2.167   4.989  0.4363 -0.1341 -0.3189
 3661TIP3   OH232397   6.688   2.197  15.863  0.4643  0.5574  0.2472
 3661TIP3    H132398   6.677   2.254  15.939  0.5659 -1.5949  1.9924
 3661TIP3    H232399   6.776   2.160  15.874 -0.4780 -1.7438  0.5590
 3662TIP3   OH232400   5.552   1.648   5.120  0.5287  0.0083 -0.9009
 3662TIP3    H132401   5.563   1.553   5.115 -0.6529 -0.0789 -2.8742
 3662TIP3    H232402   5.598   1.682   5.043  0.4877  0.9952 -0.5117
 3663TIP3   OH232403   3.147   3.522  10.779 -0.2800  0.1542 -0.4555
 3663TIP3    H132404   3.057   3.519  10.746 -0.4175  2.5804 -0.4726
 3663TIP3    H232405   3.137   3.518  10.875 -0.5738  2.0124 -0.3755
 3664TIP3   OH232406   3.768   2.022   4.682  0.2099 -0.1234  0.1270
 3664TIP3    H132407   3.861   2.036   4.701 -0.1172  0.2641  1.6254
 3664TIP3    H232408   3.752   2.072   4.602  1.2193  0.0548  0.0205
 3665TIP3   OH232409   1.479   4.930   5.270 -0.3313  0.6199  0.2797
 3665TIP3    H132410   1.512   4.979   5.346  1.0467  0.7770 -0.3828
 3665TIP3    H232411   1.550   4.869   5.248 -1.1423 -0.1655 -0.2439
 3666TIP3   OH232412   3.492   5.279   2.059  0.3012  0.2839  0.3367
 3666TIP3    H132413   3.482   5.195   2.104  0.4554 -1.2292 -2.2548
 3666TIP3    H232414   3.418   5.331   2.090  0.4827 -0.5746  2.3917
 3667TIP3   OH232415   6.417   3.729   4.540  0.4800 -0.1268 -0.1978
 3667TIP3    H132416   6.446   3.672   4.611 -0.4876  0.2763  0.5536
 3667TIP3    H232417   6.418   3.817   4.577 -0.7232  0.0075 -0.4386
 3668TIP3   OH232418   2.845   0.639  11.167 -0.0565 -0.2997  0.2579
 3668TIP3    H132419   2.766   0.694  11.167 -0.5289 -0.9650  0.9004
 3668TIP3    H232420   2.813   0.552  11.142  0.2186 -0.9100  1.9427
 3669TIP3   OH232421   5.357   2.255   0.081  0.1619  0.3269 -0.5517
 3669TIP3    H132422   5.357   2.265  -0.014  0.8465 -3.0614 -1.0524
 3669TIP3    H232423   5.439   2.209   0.100 -1.2025 -1.5429  1.2745
 3670TIP3   OH232424   5.464   3.125   2.244  0.1258 -0.1090 -0.5764
 3670TIP3    H132425   5.422   3.194   2.295  2.5694 -0.1316  1.6740
 3670TIP3    H232426   5.398   3.057   2.237 -1.0570  0.8627  0.6170
 3671TIP3   OH232427   4.574   0.486   3.112 -0.3409 -0.6612 -0.2577
 3671TIP3    H132428   4.636   0.423   3.150  1.1458  1.4492  0.9994
 3671TIP3    H232429   4.602   0.496   3.021  2.3074  1.3926  0.6487
 3672TIP3   OH232430   3.391   1.052  12.336  0.4749  0.2831 -0.4622
 3672TIP3    H132431   3.445   1.010  12.403 -3.3987 -0.1311  2.7136
 3672TIP3    H232432   3.407   1.146  12.347  0.2844  0.1899  0.7016
 3673TIP3   OH232433   0.117   6.520   2.671  0.5274  0.0372 -0.3333
 3673TIP3    H132434   0.092   6.498   2.581  1.0442 -1.2023 -0.2046
 3673TIP3    H232435   0.213   6.521   2.669  0.5311  1.9542 -0.2158
 3674TIP3   OH232436   1.906   1.974   5.166  0.4222  0.9025  0.7075
 3674TIP3    H132437   1.893   1.945   5.257  0.0927  0.1077  0.4156
 3674TIP3    H232438   1.998   2.003   5.164  1.0116 -0.8146  0.8628
 3675TIP3   OH232439   5.139   6.446  13.653 -0.4608 -0.3325 -0.3426
 3675TIP3    H132440   5.226   6.430  13.689  0.7700  0.7014 -2.6746
 3675TIP3    H232441   5.082   6.384  13.699  1.4652 -1.0131  1.2627
 3676TIP3   OH232442   4.643   2.103  14.119 -0.8740 -0.2941  0.3021
 3676TIP3    H132443   4.668   2.163  14.049 -1.4382  1.2024  1.3390
 3676TIP3    H232444   4.724   2.058  14.143 -0.7628 -1.2000 -1.5941
 3677TIP3   OH232445   1.765   4.441  14.017 -0.3998 -0.2608  0.2244
 3677TIP3    H132446   1.847   4.491  14.024 -1.0400  0.8815 -0.2592
 3677TIP3    H232447   1.790   4.352  14.043  0.9347  0.1245  0.3646
 3678TIP3   OH232448   4.399   2.203  13.870  0.4017  0.1394  0.0049
 3678TIP3    H132449   4.306   2.210  13.849  0.5256  3.5358 -0.0343
 3678TIP3    H232450   4.444   2.218  13.787  0.8913  1.9438  0.5356
 3679TIP3   OH232451   5.950   4.779   1.091  0.7374  0.6589  0.4423
 3679TIP3    H132452   5.859   4.809   1.088  0.8509  0.9700 -1.4863
 3679TIP3    H232453   5.996   4.837   1.031  2.2431  0.5524  1.4454
 3680TIP3   OH232454   3.434   1.650  13.370  0.0797 -0.3144  0.8044
 3680TIP3    H132455   3.390   1.593  13.434  1.6107 -0.2135  2.0153
 3680TIP3    H232456   3.513   1.680  13.415  0.2718  1.2693 -0.4980
 3681TIP3   OH232457   5.508   5.046   1.626  0.1284  0.5014  0.0253
 3681TIP3    H132458   5.504   5.065   1.533 -1.9183  1.8423  0.3361
 3681TIP3    H232459   5.420   5.063   1.659 -0.3313 -3.5160  1.5699
 3682TIP3   OH232460   6.467   1.099  16.584 -0.0039 -0.1697 -0.3883
 3682TIP3    H132461   6.513   1.023  16.549  0.2179  0.0683 -0.6159
 3682TIP3    H232462   6.408   1.126  16.514  1.8324  1.4970 -1.3783
 3683TIP3   OH232463   4.831   0.027   2.561  0.7758  0.1669 -0.2376
 3683TIP3    H132464   4.916   0.025   2.517  1.0825 -1.4637  0.3633
 3683TIP3    H232465   4.778  -0.037   2.513  1.4192 -2.3987  2.2407
 3684TIP3   OH232466   0.836   0.464   3.118  0.2235 -0.3498 -0.0805
 3684TIP3    H132467   0.799   0.552   3.125 -0.6078 -0.7227  0.2807
 3684TIP3    H232468   0.930   0.479   3.110  0.0447  0.5986 -0.6075
 3685TIP3   OH232469   4.028   5.753  13.002  0.9990 -0.2812  0.5969
 3685TIP3    H132470   4.083   5.695  13.054  0.4264 -0.4744  0.9952
 3685TIP3    H232471   3.967   5.695  12.957  3.1148 -0.3839 -2.3954
 3686TIP3   OH232472   6.361   4.135   4.402  0.0813 -0.2975 -0.2101
 3686TIP3    H132473   6.362   4.059   4.459 -1.9659 -1.1563 -1.1983
 3686TIP3    H232474   6.299   4.195   4.443  1.6478  0.8774  0.5412
 3687TIP3   OH232475   2.660   5.541   2.339 -0.5113  0.3046  0.5059
 3687TIP3    H132476   2.754   5.526   2.335 -0.3368  1.5225 -1.7125
 3687TIP3    H232477   2.627   5.472   2.397  1.5356 -1.1959  0.0113
 3688TIP3   OH232478   4.310   5.266   1.004  0.5026  0.5083  0.3553
 3688TIP3    H132479   4.227   5.241   1.045  0.0935 -0.4392 -0.9915
 3688TIP3    H232480   4.348   5.183   0.975 -0.2761  1.2196 -3.1405
 3689TIP3   OH232481   4.980   2.934   1.444  0.7874 -0.0406 -0.3430
 3689TIP3    H132482   4.964   2.911   1.353 -1.7839 -0.3476  0.0989
 3689TIP3    H232483   4.948   3.024   1.452  0.7603 -0.1009  0.3024
 3690TIP3   OH232484   0.437   5.049   0.664 -0.1229  0.0820  0.1529
 3690TIP3    H132485   0.426   5.000   0.583 -2.5391 -1.8844  1.5167
 3690TIP3    H232486   0.441   5.141   0.637  2.4105 -0.6479 -2.3410
 3691TIP3   OH232487   0.941   2.391  11.430  0.1578 -0.1208 -0.4731
 3691TIP3    H132488   0.982   2.437  11.357  2.5974  2.5021  2.2499
 3691TIP3    H232489   1.003   2.321  11.452 -0.7231 -1.1048 -1.0764
 3692TIP3   OH232490   0.595   4.404   4.044 -0.1894  0.1239  0.5800
 3692TIP3    H132491   0.677   4.413   4.093 -1.0883 -0.5808  2.2928
 3692TIP3    H232492   0.528   4.442   4.101 -1.2635 -0.6237 -0.1308
 3693TIP3   OH232493   3.220   2.951   2.887 -0.6090 -0.2733  0.0467
 3693TIP3    H132494   3.297   2.985   2.840 -0.7429 -1.2522 -0.9258
 3693TIP3    H232495   3.256   2.892   2.953 -0.2967  2.5254  2.5547
 3694TIP3   OH232496   0.182   2.912   5.763 -0.9158 -0.4196 -0.5000
 3694TIP3    H132497   0.215   2.942   5.679 -0.4878  2.1241  0.4594
 3694TIP3    H232498   0.260   2.888   5.813 -0.8247  1.2397  0.2275
 3695TIP3   OH232499   0.351   6.561  17.240 -0.3048 -0.6867 -0.4475
 3695TIP3    H132500   0.431   6.615  17.242 -0.1620 -0.8270  2.8260
 3695TIP3    H232501   0.362   6.506  17.163  0.1408  2.9629 -3.2636
 3696TIP3   OH232502   2.428   2.940   6.150  0.2195 -0.3839  0.3101
 3696TIP3    H132503   2.484   3.015   6.170 -0.7822  0.2274  0.9264
 3696TIP3    H232504   2.340   2.967   6.179 -0.9591 -0.2997 -2.9728
 3697TIP3   OH232505   0.054   0.198  13.475  0.2771  0.1601  0.2612
 3697TIP3    H132506   0.053   0.114  13.520  0.1148  0.4392  0.7918
 3697TIP3    H232507   0.025   0.178  13.386  1.2617 -0.5056  0.0773
 3698TIP3   OH232508   2.529   6.596   4.122  0.0066  0.1975  0.1078
 3698TIP3    H132509   2.481   6.655   4.063  0.2220  1.3608  1.0642
 3698TIP3    H232510   2.470   6.585   4.197  0.3795 -0.0227  0.3694
 3699TIP3   OH232511   5.266   0.864   4.184  0.5435  0.1512  0.1595
 3699TIP3    H132512   5.300   0.787   4.230 -0.8202 -0.3758  0.3387
 3699TIP3    H232513   5.238   0.922   4.254 -1.3394 -0.5608  0.0490
 3700TIP3   OH232514   5.422   4.421  15.575 -0.3270  0.2386 -0.4726
 3700TIP3    H132515   5.492   4.410  15.640  2.1989  0.1004 -3.0199
 3700TIP3    H232516   5.357   4.356  15.600  0.4580  0.2356  1.9253
 3701TIP3   OH232517   3.154   3.191  10.778  0.1504 -0.2350 -0.1758
 3701TIP3    H132518   3.186   3.276  10.809 -0.5889 -0.0270  0.0413
 3701TIP3    H232519   3.100   3.212  10.702  0.2712 -0.5442 -0.3474
 3702TIP3   OH232520   1.979   3.899   0.476  0.0373  0.3083  0.0424
 3702TIP3    H132521   1.934   3.979   0.503 -1.6372  0.1877 -2.1014
 3702TIP3    H232522   1.969   3.839   0.549 -1.0841  1.1587  0.6123
 3703TIP3   OH232523   1.743   1.765   0.993  0.4098  0.5634  0.6264
 3703TIP3    H132524   1.743   1.680   0.948  2.3018  0.9761 -0.2698
 3703TIP3    H232525   1.730   1.743   1.085  0.2392 -0.6483  0.3337
 3704TIP3   OH232526   4.846   2.605   5.063 -0.1189 -0.1186 -0.6290
 3704TIP3    H132527   4.768   2.660   5.074 -0.1361 -0.2389 -0.1211
 3704TIP3    H232528   4.884   2.634   4.980  0.6683  1.6946  0.3071
 3705TIP3   OH232529   0.008   0.132   5.724  0.6070  0.2918 -0.1169
 3705TIP3    H132530   0.053   0.189   5.662 -0.5494  0.7969 -0.5167
 3705TIP3    H232531  -0.005   0.186   5.802  0.7902  0.1109  0.0411
 3706TIP3   OH232532   5.583   0.930   3.163 -0.1212  0.0863 -0.1594
 3706TIP3    H132533   5.494   0.955   3.141 -0.0249  3.0251  2.1324
 3706TIP3    H232534   5.639   0.989   3.113  0.4550 -0.2881  0.0211
 3707TIP3   OH232535   3.703   4.834  14.322 -0.3834  0.0031  0.4431
 3707TIP3    H132536   3.688   4.926  14.346 -0.7310 -0.8277  4.0522
 3707TIP3    H232537   3.615   4.795  14.325 -0.3541 -0.3543 -1.8903
 3708TIP3   OH232538   6.728   4.922   4.054 -0.0541  0.2827  0.0646
 3708TIP3    H132539   6.677   4.862   4.108  0.2461  2.0835  2.4861
 3708TIP3    H232540   6.785   4.969   4.115 -0.0961  2.8778 -1.7068
 3709TIP3   OH232541   5.938   4.104  15.280  0.8770 -0.0529 -0.2586
 3709TIP3    H132542   5.896   4.164  15.342 -1.5266  0.7068 -2.4648
 3709TIP3    H232543   5.898   4.019  15.297 -1.0424  0.4913 -1.7687
 3710TIP3   OH232544   3.925   0.826  14.765  0.5395 -0.2028  0.0042
 3710TIP3    H132545   3.999   0.857  14.713  0.0557 -0.2644 -0.7346
 3710TIP3    H232546   3.965   0.788  14.844  1.3590 -1.1034 -0.8167
 3711TIP3   OH232547   0.601   1.614  12.938 -0.0649 -0.3583 -0.3318
 3711TIP3    H132548   0.568   1.669  13.010  1.3122 -0.4364  0.3904
 3711TIP3    H232549   0.532   1.548  12.926 -1.3140  0.9338 -0.5786
 3712TIP3   OH232550   3.182   3.621  15.892  0.1941 -0.1412  0.2685
 3712TIP3    H132551   3.124   3.556  15.851  0.6010 -0.3134 -0.0398
 3712TIP3    H232552   3.122   3.687  15.926 -0.1827 -0.2401 -0.1813
 3713TIP3   OH232553   5.608   0.108  16.977  0.2541  0.4713  0.9209
 3713TIP3    H132554   5.607   0.129  16.884  0.3880  0.1671  0.8465
 3713TIP3    H232555   5.550   0.172  17.017  0.0387  0.4774  0.6013
 3714TIP3   OH232556   0.455   5.355  10.946  1.0954  0.8674 -0.3764
 3714TIP3    H132557   0.503   5.436  10.928 -1.5932  2.4540 -0.7836
 3714TIP3    H232558   0.369   5.383  10.976  0.0602 -1.8529 -0.5025
 3715TIP3   OH232559   4.420   4.753  16.085  0.3796  0.2836 -0.3690
 3715TIP3    H132560   4.472   4.673  16.090 -0.1722  0.0118  1.4206
 3715TIP3    H232561   4.440   4.800  16.166 -1.9661  0.2661  0.2874
 3716TIP3   OH232562   3.856   6.221   3.804 -1.0561  0.1759  0.5448
 3716TIP3    H132563   3.833   6.233   3.711  0.4898  1.5202  0.2928
 3716TIP3    H232564   3.951   6.229   3.806 -0.7866 -2.3466  1.9348
 3717TIP3   OH232565   0.228   1.939  13.802 -0.1514  1.1446 -0.9528
 3717TIP3    H132566   0.191   1.863  13.846 -0.7370  2.8869  1.7743
 3717TIP3    H232567   0.322   1.931  13.814 -0.1150  0.3399 -1.6544
 3718TIP3   OH232568   0.636   1.412  12.272 -0.1711  0.0221 -0.4770
 3718TIP3    H132569   0.625   1.358  12.351  0.8700 -1.2136 -1.1345
 3718TIP3    H232570   0.574   1.374  12.209 -0.2987  0.3715 -0.5622
 3719TIP3   OH232571   0.936   0.658  14.699  0.0911 -0.1536 -0.0711
 3719TIP3    H132572   0.928   0.752  14.710  0.5066 -0.2358  1.0453
 3719TIP3    H232573   1.027   0.639  14.723  0.1742 -0.7640 -0.8457
 3720TIP3   OH232574   3.800   5.830  15.795 -0.0395 -0.0330 -0.0797
 3720TIP3    H132575   3.857   5.781  15.735  0.6851 -0.4136  0.8827
 3720TIP3    H232576   3.843   5.915  15.804  0.0585 -0.1086  0.1799
 3721TIP3   OH232577   6.456   3.824  15.412 -0.3613  0.3540  0.1121
 3721TIP3    H132578   6.386   3.762  15.387  1.3330 -1.0988 -1.2766
 3721TIP3    H232579   6.533   3.793  15.365  0.4049  4.1407 -1.4234
 3722TIP3   OH232580   0.106   1.838   1.145 -0.4052 -0.2602  0.0458
 3722TIP3    H132581   0.122   1.927   1.115 -1.5332  0.2356  0.8460
 3722TIP3    H232582   0.137   1.782   1.074 -1.5914  0.8219 -1.3699
 3723TIP3   OH232583   1.421   1.121  14.631 -0.0360  0.0235  0.1646
 3723TIP3    H132584   1.348   1.159  14.681 -1.1322 -1.8551  0.0990
 3723TIP3    H232585   1.394   1.031  14.615  2.4680 -0.8381  0.3970
 3724TIP3   OH232586   4.360   3.936  12.803 -0.5244  0.5374 -0.2407
 3724TIP3    H132587   4.395   3.946  12.714  2.0135  1.2725  0.7621
 3724TIP3    H232588   4.337   4.025  12.829  0.8084  0.6597  0.5897
 3725TIP3   OH232589   5.933   1.073   1.978 -0.3194  0.3183  0.1943
 3725TIP3    H132590   5.882   0.992   1.974 -0.6770  0.4765  1.2815
 3725TIP3    H232591   6.020   1.045   2.005 -0.1661  0.1937 -0.4084
 3726TIP3   OH232592   4.368   6.766  15.761  0.1588 -0.2666 -0.2097
 3726TIP3    H132593   4.340   6.858  15.762  0.8568 -0.0376 -0.7433
 3726TIP3    H232594   4.463   6.770  15.771  0.3952 -0.8330 -2.0114
 3727TIP3   OH232595   4.459   3.646  14.717  0.1472  0.0670  0.6032
 3727TIP3    H132596   4.487   3.681  14.801 -2.1993 -1.0642  1.9382
 3727TIP3    H232597   4.468   3.551  14.726 -0.4543 -0.0912 -0.3075
 3728TIP3   OH232598   5.796   0.888   3.891  0.1667 -0.5070 -0.4123
 3728TIP3    H132599   5.728   0.839   3.845  0.7675 -2.2428  0.4655
 3728TIP3    H232600   5.748   0.952   3.942 -0.9288 -2.2305  0.8264
 3729TIP3   OH232601   5.600   3.798   5.627  0.4476 -0.5217  0.6740
 3729TIP3    H132602   5.558   3.823   5.709  0.9457  1.4954  0.3581
 3729TIP3    H232603   5.694   3.807   5.644  0.5500  0.0269 -0.1378
 3730TIP3   OH232604   1.031   1.408   5.044  0.5213  0.0160  0.4377
 3730TIP3    H132605   0.969   1.381   4.976  0.8633  1.4408 -0.4747
 3730TIP3    H232606   1.089   1.332   5.054  0.5531 -0.1786 -0.9590
 3731TIP3   OH232607   3.907   4.938  15.439 -0.5222  0.1075 -0.6244
 3731TIP3    H132608   3.944   5.024  15.460 -0.3620  0.0714 -0.7576
 3731TIP3    H232609   3.946   4.879  15.503 -1.8249  0.3960  0.4803
 3732TIP3   OH232610   0.239   1.409  14.167 -0.4082 -0.5013 -0.3317
 3732TIP3    H132611   0.293   1.451  14.234 -1.5848 -0.9466  0.9656
 3732TIP3    H232612   0.301   1.367  14.108  0.7241  1.2888 -0.4950
 3733TIP3   OH232613   5.251   6.150   2.456  0.2769 -0.4769 -0.0632
 3733TIP3    H132614   5.281   6.098   2.382 -0.1970  1.5531 -1.7771
 3733TIP3    H232615   5.308   6.227   2.457  1.7001 -1.4131  3.0890
 3734TIP3   OH232616   2.922   3.491  16.096 -0.4665 -0.1209  0.0923
 3734TIP3    H132617   2.904   3.432  16.023 -0.9008 -1.4681  1.2553
 3734TIP3    H232618   3.006   3.461  16.131 -1.2075 -0.7699  1.3622
 3735TIP3   OH232619   3.868   4.075   1.768 -0.8573  0.4351  0.4848
 3735TIP3    H132620   3.961   4.075   1.790 -0.9254  1.3006  0.8460
 3735TIP3    H232621   3.832   4.150   1.817 -1.4795  0.9364 -0.6820
 3736TIP3   OH232622   0.512   5.805   5.991  0.3144  0.3217  0.3229
 3736TIP3    H132623   0.535   5.898   6.000  1.1648  0.5952 -3.1957
 3736TIP3    H232624   0.419   5.806   5.970  0.6789  0.5726 -1.3939
 3737TIP3   OH232625   3.865   2.877  16.675 -0.2022  0.3550 -0.3277
 3737TIP3    H132626   3.949   2.853  16.713  0.8464  2.1936 -1.3505
 3737TIP3    H232627   3.843   2.961  16.715 -2.5539 -0.9303  1.3532
 3738TIP3   OH232628   4.975   6.676   3.160  0.1477 -0.2801  0.4798
 3738TIP3    H132629   5.003   6.594   3.199  0.3214 -0.8428 -0.7816
 3738TIP3    H232630   5.049   6.735   3.171  0.6360 -0.7905 -0.0345
 3739TIP3   OH232631   5.006   2.141  16.196 -0.2523 -0.0064  0.3052
 3739TIP3    H132632   5.089   2.095  16.205 -0.0020  0.6484  1.6617
 3739TIP3    H232633   5.026   2.217  16.141  0.1189  0.2731  0.8157
 3740TIP3   OH232634   5.689   4.884   1.056 -0.3540 -0.6669  0.4239
 3740TIP3    H132635   5.607   4.840   1.081  0.2010 -1.9136  0.1220
 3740TIP3    H232636   5.692   4.877   0.961 -0.2980  0.1285  0.3609
 3741TIP3   OH232637   3.509   3.332  14.213  0.0502  0.4940  0.0615
 3741TIP3    H132638   3.432   3.357  14.162 -1.9865 -2.4604  1.3846
 3741TIP3    H232639   3.492   3.365  14.302  0.7617  0.5657  0.1850
 3742TIP3   OH232640   1.811   6.598   1.931  0.2269  0.0386  0.0990
 3742TIP3    H132641   1.838   6.509   1.905  0.4896 -0.7052  2.6826
 3742TIP3    H232642   1.725   6.586   1.972  0.3531  0.9416  0.6525
 3743TIP3   OH232643   2.215   1.647   4.446  0.2697 -0.5999  0.0952
 3743TIP3    H132644   2.299   1.650   4.400 -0.2497 -1.5294 -0.9535
 3743TIP3    H232645   2.159   1.707   4.397 -0.2349 -1.4585 -0.4055
 3744TIP3   OH232646   1.680   0.735  13.334 -0.1991 -0.0342  0.5340
 3744TIP3    H132647   1.646   0.669  13.273  0.7731 -1.3654  1.3874
 3744TIP3    H232648   1.742   0.786  13.281 -1.1832  0.4258 -0.2130
 3745TIP3   OH232649   0.357   2.762  14.128  0.4710  0.5288 -0.3004
 3745TIP3    H132650   0.379   2.669  14.123 -0.4051  0.2871  0.1365
 3745TIP3    H232651   0.330   2.785  14.039  1.2566  0.5299 -0.5523
 3746TIP3   OH232652   2.366   2.865  14.257  0.2861 -0.0584  0.0498
 3746TIP3    H132653   2.311   2.795  14.292 -1.0366 -0.7300 -2.9790
 3746TIP3    H232654   2.455   2.829  14.260 -0.3811 -2.1419 -1.6758
 3747TIP3   OH232655   0.971   2.330   5.481 -0.0959  0.0333  0.9206
 3747TIP3    H132656   0.883   2.368   5.488  0.3377  0.9336  1.8014
 3747TIP3    H232657   0.977   2.267   5.553  0.5228  1.1802  1.9184
 3748TIP3   OH232658   6.030   2.451   1.878  0.1160 -0.0846 -0.1368
 3748TIP3    H132659   5.966   2.457   1.950  1.2135 -2.9047  1.2712
 3748TIP3    H232660   6.115   2.447   1.922  1.1627  1.5420 -1.8574
 3749TIP3   OH232661   3.838   3.554  15.649 -0.0865  0.0766  0.7724
 3749TIP3    H132662   3.857   3.600  15.731 -1.9367  0.8116  0.8300
 3749TIP3    H232663   3.841   3.461  15.672 -4.0418  0.2054  2.6878
 3750TIP3   OH232664   5.685   6.637  16.338  0.0072  0.4744  0.5887
 3750TIP3    H132665   5.703   6.709  16.398  0.1747  0.8936  0.0468
 3750TIP3    H232666   5.629   6.577  16.388 -0.0227  0.9124  1.0892
 3751TIP3   OH232667   1.761   0.055   3.882 -0.1699  0.9013  0.1212
 3751TIP3    H132668   1.839   0.105   3.860 -1.2223  1.5962 -2.4928
 3751TIP3    H232669   1.690   0.101   3.838 -1.9312 -0.2763  1.5563
 3752TIP3   OH232670   2.432   6.207   3.969  0.0606 -0.2184  0.2778
 3752TIP3    H132671   2.386   6.279   3.926  0.8902  0.0827 -0.1210
 3752TIP3    H232672   2.364   6.161   4.017 -0.4914  0.8069  0.5106
 3753TIP3   OH232673   0.413   2.566   4.831  0.2274 -0.3588 -0.2835
 3753TIP3    H132674   0.343   2.608   4.881  3.0517  0.3354  3.5849
 3753TIP3    H232675   0.403   2.472   4.850  0.2558 -0.2695  0.1949
 3754TIP3   OH232676   3.010   5.548  11.479 -0.8857  0.0444 -0.2334
 3754TIP3    H132677   3.073   5.528  11.548 -0.2492 -1.8125 -1.3018
 3754TIP3    H232678   2.966   5.465  11.461 -2.2190  0.8607 -0.9240
 3755TIP3   OH232679   4.197   6.624   0.797  0.0373  0.4095 -0.8917
 3755TIP3    H132680   4.248   6.692   0.840 -0.7941  0.5056 -0.0150
 3755TIP3    H232681   4.254   6.592   0.727  0.0601  2.6917 -2.0102
 3756TIP3   OH232682   1.949   1.630   2.773 -1.0451  0.3782 -0.2411
 3756TIP3    H132683   1.866   1.636   2.727 -1.1152  0.4495 -0.1025
 3756TIP3    H232684   1.968   1.719   2.802 -1.2134  0.2600  0.2452
 3757TIP3   OH232685   5.866   0.440   1.483  0.2509 -0.2394 -0.2420
 3757TIP3    H132686   5.885   0.370   1.420  1.3483  2.1502 -2.7849
 3757TIP3    H232687   5.949   0.454   1.529  0.2460 -0.0745 -0.2859
 3758TIP3   OH232688   3.569   3.260   3.161  0.4041 -0.5067  0.0544
 3758TIP3    H132689   3.556   3.195   3.093 -1.3432 -1.3897  1.1612
 3758TIP3    H232690   3.484   3.267   3.205  0.7522  1.9573  0.4876
 3759TIP3   OH232691   1.383   0.923   2.334 -0.6714 -0.2626  0.2885
 3759TIP3    H132692   1.449   0.900   2.269 -0.6895 -1.3999  0.6544
 3759TIP3    H232693   1.306   0.871   2.309 -1.6067  1.3723 -0.3945
 3760TIP3   OH232694   6.611   6.640  17.029  0.1160  0.3633  0.5707
 3760TIP3    H132695   6.517   6.651  17.022  0.3052  1.0181 -1.7439
 3760TIP3    H232696   6.622   6.564  17.087 -1.9221 -1.2401 -0.9783
 3761TIP3   OH232697   4.693   2.427  12.504  0.2021 -0.3395 -0.4925
 3761TIP3    H132698   4.600   2.414  12.485  0.4508 -0.8812 -1.4217
 3761TIP3    H232699   4.701   2.520  12.522 -0.5079 -0.2734 -0.4865
 3762TIP3   OH232700   3.593   2.021  16.687  0.2251  0.9460 -0.0151
 3762TIP3    H132701   3.535   1.945  16.678 -0.6175  1.6953 -1.2310
 3762TIP3    H232702   3.602   2.054  16.598 -1.2566  3.5893  0.7184
 3763TIP3   OH232703   5.209   6.328  15.428 -0.2364  0.2711  0.4715
 3763TIP3    H132704   5.115   6.310  15.433  0.1265 -1.5662  1.8514
 3763TIP3    H232705   5.220   6.374  15.345 -2.2000 -0.5731 -0.3192
 3764TIP3   OH232706   2.693   6.340   0.210  0.2144 -0.2204  0.0426
 3764TIP3    H132707   2.612   6.377   0.174  0.8553  0.9468 -0.2567
 3764TIP3    H232708   2.725   6.408   0.269  1.3153 -0.3854 -0.3504
 3765TIP3   OH232709   4.552   5.320   3.441 -0.0457 -0.2649 -0.0591
 3765TIP3    H132710   4.511   5.375   3.508 -0.6676 -0.9319  0.1235
 3765TIP3    H232711   4.613   5.264   3.490 -0.3964 -0.6531 -0.0546
 3766TIP3   OH232712   2.589   1.326  12.395  0.4867  0.3112  0.6870
 3766TIP3    H132713   2.540   1.245  12.380  0.1061  0.7022 -0.2630
 3766TIP3    H232714   2.680   1.303  12.373  0.1693  0.4764 -0.9916
 3767TIP3   OH232715   6.464   3.929   5.152 -0.5660 -0.7888  0.2458
 3767TIP3    H132716   6.413   3.856   5.189  0.4061 -1.1716  0.8575
 3767TIP3    H232717   6.437   4.005   5.204 -1.8801 -0.5972 -0.6509
 3768TIP3   OH232718   1.651   6.498   0.157 -0.3565 -0.2218  1.0894
 3768TIP3    H132719   1.627   6.543   0.238 -0.8133  0.4427  0.6040
 3768TIP3    H232720   1.689   6.567   0.102  1.5990 -1.0184  1.3832
 3769TIP3   OH232721   2.447   6.054  15.949  0.1980 -0.0840  0.0592
 3769TIP3    H132722   2.363   6.046  15.995  0.7707 -0.3210  1.1148
 3769TIP3    H232723   2.497   6.115  16.002  0.7421 -0.0601 -0.4805
 3770TIP3   OH232724   2.735   4.428   2.982 -0.0230  0.2171  0.2424
 3770TIP3    H132725   2.667   4.489   3.010 -1.8276 -1.6339  0.1677
 3770TIP3    H232726   2.774   4.397   3.063 -0.8016 -0.3361  0.4153
 3771TIP3   OH232727   3.326   1.005  13.608  0.1675 -0.5505  1.1894
 3771TIP3    H132728   3.326   0.996  13.703 -0.1682 -1.3192  1.1249
 3771TIP3    H232729   3.238   0.978  13.581 -0.4978  1.7690  0.8268
 3772TIP3   OH232730   3.333   0.901   3.813  0.1600  0.2092  0.2285
 3772TIP3    H132731   3.268   0.969   3.796 -0.7964 -0.4374  1.1862
 3772TIP3    H232732   3.300   0.823   3.769  2.0884  0.6803 -2.3191
 3773TIP3   OH232733   2.783   1.953   2.106  0.4286 -0.2448  0.3057
 3773TIP3    H132734   2.759   1.863   2.130  0.5204 -0.1576  0.7341
 3773TIP3    H232735   2.701   2.003   2.114  0.6020 -0.0779  1.1273
 3774TIP3   OH232736   1.884   1.147  15.636 -0.4156 -0.3407 -0.2933
 3774TIP3    H132737   1.874   1.053  15.622  0.4776 -0.4316 -0.3476
 3774TIP3    H232738   1.837   1.163  15.718  0.2540 -1.0051  0.2325
 3775TIP3   OH232739   0.633   1.701  11.296 -0.4822 -0.1939  0.9552
 3775TIP3    H132740   0.692   1.699  11.371 -0.2138 -1.6014  0.7202
 3775TIP3    H232741   0.667   1.773  11.242  1.8362 -1.7076  0.2267
 3776TIP3   OH232742   4.377   3.874   2.019 -0.0189 -0.0423  0.3121
 3776TIP3    H132743   4.447   3.937   2.002  1.7406 -1.3308  2.2183
 3776TIP3    H232744   4.361   3.832   1.935  1.7838  0.0477 -0.1219
 3777TIP3   OH232745   3.144   1.873  14.189  0.2824 -0.5029 -0.1692
 3777TIP3    H132746   3.208   1.941  14.210  1.4293 -1.1104 -1.5118
 3777TIP3    H232747   3.162   1.803  14.251 -0.5403  0.1736  0.8605
 3778TIP3   OH232748   5.880   2.366  15.170  0.0474 -0.2644  0.7216
 3778TIP3    H132749   5.797   2.331  15.137  0.3483 -0.4768  0.1865
 3778TIP3    H232750   5.945   2.300  15.146  0.6578  0.7469 -0.4796
 3779TIP3   OH232751   5.772   1.833  13.797  0.3240  0.1479  0.4808
 3779TIP3    H132752   5.742   1.744  13.778  0.8702  0.1040 -0.2181
 3779TIP3    H232753   5.742   1.850  13.886 -0.7079 -0.3403  0.2408
 3780TIP3   OH232754   1.222   4.746   4.861  0.8263  0.6959 -0.3822
 3780TIP3    H132755   1.227   4.655   4.888  0.0585  0.7756  0.0376
 3780TIP3    H232756   1.311   4.767   4.830  0.9101 -0.2928 -0.8283
 3781TIP3   OH232757   5.168   2.109  13.076  0.4741  0.3360  0.1625
 3781TIP3    H132758   5.158   2.055  12.998 -0.3331  1.2635 -0.3978
 3781TIP3    H232759   5.246   2.162  13.059 -0.0472  0.9746 -0.3026
 3782TIP3   OH232760   5.237   3.308   1.398  0.5391 -0.2623  0.2457
 3782TIP3    H132761   5.271   3.379   1.453 -0.4368  0.3235  0.1272
 3782TIP3    H232762   5.229   3.233   1.457 -1.6671  0.6865  1.2682
 3783TIP3   OH232763   4.755   0.155   3.643  0.1329 -0.2053 -0.1698
 3783TIP3    H132764   4.702   0.235   3.648 -0.8138 -0.8579  0.7083
 3783TIP3    H232765   4.750   0.129   3.551  1.4316  1.3569 -0.7351
 3784TIP3   OH232766   3.121   3.751  14.706 -0.0434 -0.4575  0.2616
 3784TIP3    H132767   3.078   3.669  14.730 -0.2948 -0.2441  0.5586
 3784TIP3    H232768   3.052   3.802  14.664  0.0172 -0.2604  0.4006
 3785TIP3   OH232769   5.675   5.413  15.886  0.0736 -0.0053 -0.0288
 3785TIP3    H132770   5.767   5.424  15.861  1.3029 -0.4015  3.7704
 3785TIP3    H232771   5.662   5.473  15.958 -2.3204 -0.8649  0.3512
 3786TIP3   OH232772   6.672   1.719  14.454 -0.3836  0.9481  0.4552
 3786TIP3    H132773   6.660   1.765  14.537  0.2619  0.0179  1.0694
 3786TIP3    H232774   6.766   1.726  14.436  0.0718 -1.6866  1.4954
 3787TIP3   OH232775   3.575   1.353  17.082 -0.2918  0.2300 -0.8811
 3787TIP3    H132776   3.633   1.349  17.006 -0.4790  1.8353 -1.1421
 3787TIP3    H232777   3.488   1.370  17.045 -0.4492  0.6372 -0.3318
 3788TIP3   OH232778   1.927   1.906  12.288  0.5074  0.2037  0.4784
 3788TIP3    H132779   1.913   1.811  12.292  0.3281  0.1169 -1.4295
 3788TIP3    H232780   1.993   1.922  12.355  1.2360 -1.4222  0.2182
 3789TIP3   OH232781   1.074   4.621   2.064 -0.6646 -0.0707 -0.3942
 3789TIP3    H132782   1.033   4.683   2.003 -1.7770  0.4396  0.8242
 3789TIP3    H232783   1.034   4.537   2.043 -1.5978  0.2368  0.1011
 3790TIP3   OH232784   2.552   3.959   6.136  0.0334 -0.0287 -0.2298
 3790TIP3    H132785   2.494   4.036   6.137 -1.6124 -1.2207 -0.4530
 3790TIP3    H232786   2.557   3.934   6.043 -0.4489 -0.9033 -0.0294
 3791TIP3   OH232787   4.502   0.711   5.538  0.2908  0.3762 -0.0779
 3791TIP3    H132788   4.537   0.800   5.539  0.0249  0.4915  1.3164
 3791TIP3    H232789   4.556   0.663   5.601 -2.2689  0.7085  2.6081
 3792TIP3   OH232790   1.111   4.260  11.037 -0.3671 -0.3898 -0.1119
 3792TIP3    H132791   1.020   4.251  11.068 -0.2254 -2.4063 -0.1748
 3792TIP3    H232792   1.163   4.214  11.102  0.9271  2.4094  1.0041
 3793TIP3   OH232793   0.747   6.427   6.504 -0.0406 -0.2453  0.1348
 3793TIP3    H132794   0.793   6.495   6.454 -0.9181  0.7839  0.6804
 3793TIP3    H232795   0.680   6.475   6.553 -0.8883 -1.5548  0.2948
 3794TIP3   OH232796   5.858   4.720  13.355 -0.0101 -0.5602  0.5028
 3794TIP3    H132797   5.947   4.684  13.348  0.5149  0.4534  1.6014
 3794TIP3    H232798   5.866   4.791  13.418 -1.1040  1.1403 -1.1556
 3795TIP3   OH232799   5.306   1.530  12.609 -0.8775  0.3718  0.5835
 3795TIP3    H132800   5.221   1.491  12.587 -0.5881  0.0743 -0.0383
 3795TIP3    H232801   5.339   1.476  12.681  0.2477 -1.6323 -1.2982
 3796TIP3   OH232802   0.837   3.313  16.573 -0.6384  0.4037  0.2909
 3796TIP3    H132803   0.866   3.224  16.592 -1.6844  0.4619  2.4036
 3796TIP3    H232804   0.742   3.305  16.559 -0.5394  1.0115 -0.9120
 3797TIP3   OH232805   5.385   3.558   3.783 -0.5359  0.2749  0.1362
 3797TIP3    H132806   5.390   3.638   3.730  2.1712  0.4937  0.6055
 3797TIP3    H232807   5.422   3.582   3.867 -0.4649 -1.2622  0.5711
 3798TIP3   OH232808   2.236   2.417   0.463 -0.0579 -0.2167 -0.1462
 3798TIP3    H132809   2.201   2.492   0.511  1.5426  0.0362  0.7003
 3798TIP3    H232810   2.182   2.343   0.490 -0.3178  0.2541  0.6507
 3799TIP3   OH232811   0.608   0.454   0.350  0.6034 -0.0863 -0.4571
 3799TIP3    H132812   0.548   0.415   0.285 -1.6102 -0.0391  1.4172
 3799TIP3    H232813   0.694   0.418   0.328 -0.0261 -0.0491 -3.3853
 3800TIP3   OH232814   3.400   3.865  13.305 -0.3684 -0.7842 -0.1034
 3800TIP3    H132815   3.475   3.819  13.343 -2.2915 -2.7824  1.5344
 3800TIP3    H232816   3.346   3.888  13.380 -2.5000 -1.4970 -1.3376
 3801TIP3   OH232817   0.371   5.011   2.070 -0.3583  0.0904  0.1600
 3801TIP3    H132818   0.439   5.023   2.004 -0.3316 -0.5374  0.0683
 3801TIP3    H232819   0.289   5.017   2.021 -0.4046  1.4932  0.3699
 3802TIP3   OH232820   6.401   4.083  12.440 -0.2047  0.1696 -0.0792
 3802TIP3    H132821   6.491   4.051  12.447 -0.1445  0.5474  1.1495
 3802TIP3    H232822   6.379   4.075  12.347  1.1822  0.2938 -0.4357
 3803TIP3   OH232823   3.653   2.351  15.074  0.6351 -0.1466 -0.1912
 3803TIP3    H132824   3.651   2.350  14.978  1.7206  1.2988 -0.2704
 3803TIP3    H232825   3.732   2.303  15.097  0.0356 -1.0473  0.0210
 3804TIP3   OH232826   3.437   3.264  12.645  0.2185 -0.0237 -0.3726
 3804TIP3    H132827   3.384   3.318  12.704 -0.7817  0.5823 -1.7563
 3804TIP3    H232828   3.511   3.319  12.622 -0.0878  0.2571 -0.7070
 3805TIP3   OH232829   6.011   2.220   1.288 -0.1577 -0.2225  0.6249
 3805TIP3    H132830   6.006   2.246   1.380 -1.3580 -1.1042  0.8322
 3805TIP3    H232831   6.041   2.128   1.291 -1.1309 -0.5621  0.1967
 3806TIP3   OH232832   5.009   6.184  12.587 -0.1780  0.6006 -0.1316
 3806TIP3    H132833   4.917   6.202  12.568  0.4028  3.7979 -0.3370
 3806TIP3    H232834   5.008   6.129  12.665 -2.2356 -0.6839 -0.9805
 3807TIP3   OH232835   1.341   3.713  12.765  0.0300 -0.0486 -0.4356
 3807TIP3    H132836   1.328   3.776  12.694 -0.6065 -0.6901 -0.9002
 3807TIP3    H232837   1.255   3.674  12.778  0.3133 -0.4779  0.1802
 3808TIP3   OH232838   0.094   3.077  13.526 -0.1583  0.0895  0.3390
 3808TIP3    H132839   0.013   3.104  13.570  0.2262  1.1140  0.4330
 3808TIP3    H232840   0.071   2.994  13.483 -1.7106  1.1091 -0.9043
 3809TIP3   OH232841   2.220   3.213   1.652  0.0152  0.1493 -0.4120
 3809TIP3    H132842   2.286   3.245   1.713 -0.1611  0.1143 -0.2037
 3809TIP3    H232843   2.143   3.195   1.706  0.2612 -1.0931 -0.4449
 3810TIP3   OH232844   5.445   6.473  14.415  0.0577 -0.3929  0.4277
 3810TIP3    H132845   5.461   6.544  14.477  0.7938 -0.1710 -0.0032
 3810TIP3    H232846   5.470   6.394  14.462 -2.1487 -0.5674  1.4448
 3811TIP3   OH232847   5.239   6.605   1.394  0.4824 -0.0206 -0.6543
 3811TIP3    H132848   5.300   6.634   1.462 -0.0269 -1.8394  0.6681
 3811TIP3    H232849   5.156   6.593   1.440 -0.3054  0.2203 -1.9527
 3812TIP3   OH232850   6.636   6.385  11.335  0.0106 -0.0791 -0.0658
 3812TIP3    H132851   6.667   6.377  11.425  1.7432  0.5108 -0.5521
 3812TIP3    H232852   6.709   6.350  11.282 -1.1392 -0.8023 -1.2247
 3813TIP3   OH232853   2.080   3.517   6.191 -0.5944 -0.3810  0.3961
 3813TIP3    H132854   2.032   3.590   6.229 -0.1641  0.8864 -1.3682
 3813TIP3    H232855   2.048   3.511   6.101  1.6810 -0.2176 -0.4974
 3814TIP3   OH232856   5.555   5.720  12.190 -0.5495 -0.0588 -0.0532
 3814TIP3    H132857   5.615   5.725  12.116  0.6532  0.1490  0.8977
 3814TIP3    H232858   5.570   5.634  12.228 -1.1081 -0.1382  0.0015
 3815TIP3   OH232859   2.898   5.275   3.240 -0.0312  1.0813  0.0213
 3815TIP3    H132860   2.816   5.321   3.221 -0.5487 -0.8978 -3.3704
 3815TIP3    H232861   2.872   5.185   3.257  1.3682  0.5793 -0.3527
 3816TIP3   OH232862   1.692   0.438  12.651  0.3534  0.5157 -0.7294
 3816TIP3    H132863   1.672   0.411  12.561  1.8382  1.1084 -1.2610
 3816TIP3    H232864   1.715   0.530  12.644  2.5339  0.0713 -0.0910
 3817TIP3   OH232865   1.460   4.952  16.885 -0.3472  0.3417  0.2049
 3817TIP3    H132866   1.437   4.969  16.977 -1.7539  1.3799 -0.3110
 3817TIP3    H232867   1.556   4.948  16.886 -0.3559 -0.3948  1.8264
 3818TIP3   OH232868   0.741   5.399  13.894  0.3333 -0.5042 -0.0096
 3818TIP3    H132869   0.743   5.321  13.950 -0.6833 -0.3850  0.2199
 3818TIP3    H232870   0.649   5.427  13.895  0.7129  0.8243  0.0841
 3819TIP3   OH232871   2.957   1.808  15.793  0.0738 -0.2607 -0.3043
 3819TIP3    H132872   2.925   1.764  15.872 -1.3617 -0.9588 -1.2443
 3819TIP3    H232873   2.942   1.901  15.810 -1.3304 -0.4856 -0.2027
 3820TIP3   OH232874   5.004   0.817  16.206  0.9401  0.5168  0.3316
 3820TIP3    H132875   4.977   0.757  16.275 -0.2507 -0.3800 -0.8480
 3820TIP3    H232876   4.927   0.872  16.191  0.6391 -0.2621 -1.2243
 3821TIP3   OH232877   2.075   6.450  16.184  0.3174 -0.1946 -0.2448
 3821TIP3    H132878   2.163   6.462  16.148  0.9213 -0.0696  1.1920
 3821TIP3    H232879   2.090   6.428  16.276 -1.1907  3.6257  1.1025
 3822TIP3   OH232880   3.795   2.757  14.125  0.4945  0.3731 -1.3709
 3822TIP3    H132881   3.748   2.805  14.057 -1.0249 -2.9232 -2.9052
 3822TIP3    H232882   3.834   2.682  14.078 -1.9718 -2.9756  1.4486
 3823TIP3   OH232883   1.924   4.168   3.443 -0.1024 -0.2552  0.8959
 3823TIP3    H132884   1.843   4.127   3.412  0.4381 -1.7047  1.3187
 3823TIP3    H232885   1.901   4.260   3.455 -1.1523 -0.2449 -0.8301
 3824TIP3   OH232886   2.310   4.751   3.590 -0.7331 -0.3811 -0.2129
 3824TIP3    H132887   2.322   4.762   3.496  2.5844 -0.3334  0.0820
 3824TIP3    H232888   2.297   4.657   3.602 -0.7910 -0.4356 -0.6920
 3825TIP3   OH232889   2.480   5.866  14.434  0.0277 -0.0781  0.3012
 3825TIP3    H132890   2.387   5.857  14.454  0.1635 -1.2754  0.4497
 3825TIP3    H232891   2.522   5.870  14.520  0.3132 -1.9658  0.2911
 3826TIP3   OH232892   0.130   5.666   1.879  0.2397 -0.6694 -0.5420
 3826TIP3    H132893   0.113   5.722   1.803 -1.4260  1.6128  1.3743
 3826TIP3    H232894   0.209   5.703   1.918 -0.7790  0.3484  0.6449
 3827TIP3   OH232895   4.452   5.015   2.038 -0.3508  0.3720 -0.4857
 3827TIP3    H132896   4.380   5.077   2.032 -0.7587  0.2300  1.8396
 3827TIP3    H232897   4.513   5.042   1.969 -1.7926  1.5820 -1.3503
 3828TIP3   OH232898   2.687   5.536   2.723  0.3830 -0.1856  0.3517
 3828TIP3    H132899   2.611   5.503   2.675  1.4588 -1.1283 -0.7770
 3828TIP3    H232900   2.703   5.471   2.791 -0.8734  0.9256  1.7575
 3829TIP3   OH232901   3.225   4.848   0.040  0.0052 -0.3092 -0.0399
 3829TIP3    H132902   3.233   4.896  -0.042  0.4808  0.3864  0.4030
 3829TIP3    H232903   3.134   4.862   0.068 -0.8214 -2.3247 -1.5023
 3830TIP3   OH232904   1.753   0.886   3.227  0.4862  0.2956  0.0240
 3830TIP3    H132905   1.796   0.965   3.195 -0.2394  0.9027  0.4962
 3830TIP3    H232906   1.727   0.908   3.317  0.6512 -0.6352  0.3084
 3831TIP3   OH232907   5.828   4.272  13.836 -0.0791 -0.0358  0.5534
 3831TIP3    H132908   5.883   4.194  13.829 -0.1544 -0.2499  1.9900
 3831TIP3    H232909   5.745   4.247  13.796  0.3663 -0.2071 -0.2849
 3832TIP3   OH232910   0.571   3.458  11.019 -0.7357 -0.4192 -0.6857
 3832TIP3    H132911   0.636   3.428  11.083 -0.2391 -0.0174 -0.9972
 3832TIP3    H232912   0.618   3.522  10.965 -2.2891  2.4170  1.1476
 3833TIP3   OH232913   1.132   1.021  13.093 -0.5978 -0.7909 -0.5842
 3833TIP3    H132914   1.210   1.001  13.145  0.8485  0.8224 -2.0340
 3833TIP3    H232915   1.086   0.937  13.086 -0.4901 -1.2434  2.5658
 3834TIP3   OH232916   3.055   3.265   5.466 -0.1074  0.0604 -0.1975
 3834TIP3    H132917   3.143   3.286   5.436 -0.2839 -0.9929 -1.5286
 3834TIP3    H232918   3.067   3.200   5.535  0.1048 -1.4230 -1.6036
 3835TIP3   OH232919   4.747   5.357  16.237 -0.2466  0.4511  0.1594
 3835TIP3    H132920   4.700   5.285  16.196  0.7265  0.3134 -0.7722
 3835TIP3    H232921   4.782   5.320  16.318  1.4675 -0.6125 -0.9976
 3836TIP3   OH232922   3.850   5.655  12.276 -0.0152 -0.6698 -0.3596
 3836TIP3    H132923   3.861   5.750  12.264  2.2949 -0.5220  1.8782
 3836TIP3    H232924   3.828   5.622  12.189  2.9406  1.5100 -2.1543
 3837TIP3   OH232925   5.576   1.264   3.625 -0.1494  0.0229 -0.0542
 3837TIP3    H132926   5.589   1.307   3.540  0.0829 -1.3628 -0.7490
 3837TIP3    H232927   5.509   1.316   3.668  0.4820  1.3672 -0.6487
 3838TIP3   OH232928   1.158   1.172  14.034 -0.1104 -0.1950 -0.1366
 3838TIP3    H132929   1.109   1.207  13.959  2.1813  1.4538 -1.0026
 3838TIP3    H232930   1.219   1.242  14.056  2.5660 -2.4611  0.1452
 3839TIP3   OH232931   4.811   0.684   4.997 -0.5297 -0.0103  1.1323
 3839TIP3    H132932   4.899   0.717   5.016  0.1604 -0.7175 -0.5835
 3839TIP3    H232933   4.760   0.763   4.977  0.5249  0.2530 -0.7608
 3840TIP3   OH232934   4.571   3.960  14.969 -0.5963 -0.0967  0.0953
 3840TIP3    H132935   4.614   4.043  14.990  0.2961 -0.3710 -0.5449
 3840TIP3    H232936   4.598   3.942  14.879  0.1209 -1.6140  0.5798
 3841TIP3   OH232937   6.161   1.666  11.301 -0.3364  0.7328  0.4592
 3841TIP3    H132938   6.214   1.594  11.267  0.8846  1.8161  0.0056
 3841TIP3    H232939   6.208   1.697  11.378 -1.5723  0.1901  1.4731
 3842TIP3   OH232940   4.457   2.042  15.193 -0.2069 -0.3639 -0.4348
 3842TIP3    H132941   4.545   2.078  15.195 -0.9612  1.6167  1.6701
 3842TIP3    H232942   4.433   2.031  15.285 -2.4712  0.0207 -0.9095
 3843TIP3   OH232943   4.592   0.183  14.798 -0.1911 -0.1895 -0.0820
 3843TIP3    H132944   4.609   0.125  14.723 -1.1440 -0.8108  0.1592
 3843TIP3    H232945   4.532   0.249  14.764  0.9679  0.7384 -0.3801
 3844TIP3   OH232946   5.675   0.455  14.470 -0.0472 -0.2826 -0.5177
 3844TIP3    H132947   5.744   0.435  14.407 -0.2691 -1.1263 -0.4988
 3844TIP3    H232948   5.705   0.535  14.514  0.9254 -0.6532 -0.4908
 3845TIP3   OH232949   3.835   2.883   4.734  0.0485  0.2757  0.4783
 3845TIP3    H132950   3.865   2.901   4.645 -1.1778  1.0352  0.1911
 3845TIP3    H232951   3.906   2.833   4.774  2.0063  2.5829  0.0738
 3846TIP3   OH232952   4.889   1.616  16.242 -0.2881  0.1384 -0.6025
 3846TIP3    H132953   4.815   1.648  16.294  1.1026  1.4307  0.6928
 3846TIP3    H232954   4.891   1.522  16.259  0.4820  0.5670  2.3390
 3847TIP3   OH232955   6.765   1.262   1.092 -0.1287 -0.2533  0.5809
 3847TIP3    H132956   6.720   1.182   1.120  0.6196 -0.3858  1.4595
 3847TIP3    H232957   6.850   1.259   1.137 -0.4325  1.4768  1.3441
 3848TIP3   OH232958   6.720   2.533   0.366 -0.2285 -0.5424 -0.3695
 3848TIP3    H132959   6.653   2.470   0.340  0.4018 -0.7991 -1.4146
 3848TIP3    H232960   6.691   2.616   0.328  0.6439 -0.8983 -1.8893
 3849TIP3   OH232961   2.734   3.536   5.625  0.1618 -0.2120 -0.6194
 3849TIP3    H132962   2.677   3.581   5.688  0.3624 -1.2398  0.3429
 3849TIP3    H232963   2.794   3.604   5.595  2.4528 -0.2932  3.0671
 3850TIP3   OH232964   1.808   6.208   5.708 -0.1775  0.3822 -0.2399
 3850TIP3    H132965   1.721   6.190   5.742 -0.3083 -0.1295 -0.8340
 3850TIP3    H232966   1.826   6.298   5.735 -0.6581  0.2971  0.3661
 3851TIP3   OH232967   5.770   3.124   2.080  0.1650  0.4842 -0.1967
 3851TIP3    H132968   5.677   3.112   2.061  0.4157 -2.0513 -0.2049
 3851TIP3    H232969   5.793   3.207   2.039 -1.9614  0.8630 -0.7121
 3852TIP3   OH232970   6.437   6.511  13.204  0.3872  0.4794 -0.1248
 3852TIP3    H132971   6.492   6.433  13.208 -0.7131 -0.3539 -0.5202
 3852TIP3    H232972   6.463   6.563  13.280  0.1180 -0.9916  1.0179
 3853TIP3   OH232973   6.442   1.727  14.906  0.5607 -0.1535 -0.1626
 3853TIP3    H132974   6.502   1.763  14.971  0.2387 -1.2114  0.7540
 3853TIP3    H232975   6.459   1.778  14.827  1.7639  0.4086  0.4311
 3854TIP3   OH232976   4.471   3.251   1.607 -0.1276 -0.4559 -0.1469
 3854TIP3    H132977   4.444   3.299   1.529  1.5840  0.9570  0.0546
 3854TIP3    H232978   4.477   3.160   1.579 -2.5179 -0.4805 -0.8031
 3855TIP3   OH232979   0.984   0.372   0.751 -0.5886  0.1334 -0.3526
 3855TIP3    H132980   0.993   0.382   0.656  0.3555  2.0447 -0.1176
 3855TIP3    H232981   1.039   0.442   0.787 -1.1155 -0.4112  1.6035
 3856TIP3   OH232982   2.309   6.772  14.571 -0.7136 -0.1066 -0.2741
 3856TIP3    H132983   2.398   6.804  14.550 -1.0859  0.2232 -1.4281
 3856TIP3    H232984   2.322   6.680  14.594  0.1342  0.3432  1.1975
 3857TIP3   OH232985   5.126   0.260  13.618  0.1527  0.5131 -0.3837
 3857TIP3    H132986   5.147   0.271  13.711 -0.1595 -0.0424 -0.2394
 3857TIP3    H232987   5.086   0.173  13.613  2.0431 -0.3496 -1.3567
 3858TIP3   OH232988   0.196   5.905   0.673 -0.3995 -0.3558  0.1675
 3858TIP3    H132989   0.215   5.934   0.762 -0.5168  1.4248 -0.3541
 3858TIP3    H232990   0.176   5.985   0.625  0.6111 -1.1600 -1.7132
 3859TIP3   OH232991   5.292   3.170  15.298 -0.5878 -0.1395  0.1797
 3859TIP3    H132992   5.320   3.175  15.389  2.5387 -2.1654 -0.5107
 3859TIP3    H232993   5.217   3.110  15.300  1.0567 -2.2996  1.2358
 3860TIP3   OH232994   2.311   5.549   2.514  0.4988  0.1291 -0.4704
 3860TIP3    H132995   2.369   5.570   2.440  2.3490  4.6109  1.8431
 3860TIP3    H232996   2.370   5.513   2.580 -0.3330  0.0293  0.2226
 3861TIP3   OH232997   3.481   5.983   2.728  0.0800  0.7510  0.4340
 3861TIP3    H132998   3.559   5.960   2.677  2.1112  1.7249  2.8953
 3861TIP3    H232999   3.445   5.899   2.756  0.4063  0.2950 -0.4702
 3862TIP3   OH233000   3.977   0.669   5.153 -0.0433  0.6544  0.1710
 3862TIP3    H133001   3.964   0.598   5.091 -0.6593  3.3695 -3.0686
 3862TIP3    H233002   4.005   0.626   5.234  1.4821 -3.0815 -2.1295
 3863TIP3   OH233003   2.965   2.088  15.778 -0.1961 -0.1989  0.6748
 3863TIP3    H133004   3.044   2.141  15.768 -0.7831  0.6467  0.4339
 3863TIP3    H233005   2.912   2.108  15.701 -0.6893 -0.6909  0.8779
 3864TIP3   OH233006   5.705   6.387   5.330 -0.0130  0.5210 -0.5612
 3864TIP3    H133007   5.737   6.415   5.244 -0.9322  0.1926 -1.0165
 3864TIP3    H233008   5.615   6.419   5.333 -0.6396 -1.1674 -0.5353
 3865TIP3   OH233009   3.843   0.868  12.019 -0.0700 -0.0161 -0.1710
 3865TIP3    H133010   3.939   0.868  12.017 -0.0567 -1.6749 -0.9207
 3865TIP3    H233011   3.819   0.959  12.000  1.3482  0.6372  0.9991
 3866TIP3   OH233012   0.405   4.004   5.842  0.4984  0.1147  0.4063
 3866TIP3    H133013   0.473   4.059   5.804  1.9300  0.4158  3.1757
 3866TIP3    H233014   0.332   4.065   5.857  0.2543  0.1779 -0.8913
 3867TIP3   OH233015   0.646   1.882   3.065 -0.4344 -0.1767  0.3721
 3867TIP3    H133016   0.614   1.800   3.027 -0.7934 -1.3229  2.9211
 3867TIP3    H233017   0.738   1.886   3.038 -0.4714 -1.2960  0.0000
 3868TIP3   OH233018   4.629   3.870  14.711 -0.5205  0.2375  0.2265
 3868TIP3    H133019   4.698   3.804  14.721  1.2597  1.4972 -2.4884
 3868TIP3    H233020   4.553   3.820  14.681  0.0673 -0.8732  0.5041
 3869TIP3   OH233021   2.675   1.453  16.617  0.3981 -0.1922 -0.1000
 3869TIP3    H133022   2.747   1.516  16.605  1.3952 -1.0875  0.9159
 3869TIP3    H233023   2.661   1.450  16.711 -0.4319 -0.6435 -0.2239
 3870TIP3   OH233024   6.164   4.293   4.499 -0.0035 -0.1483  0.2448
 3870TIP3    H133025   6.138   4.378   4.534  2.8178  0.1133  2.0330
 3870TIP3    H233026   6.108   4.230   4.545  0.0792  0.5704  1.3764
 3871TIP3   OH233027   4.560   5.663   5.009 -0.3515  0.0963  0.3193
 3871TIP3    H133028   4.585   5.723   5.080  0.9640  0.5832 -0.5100
 3871TIP3    H233029   4.633   5.602   5.002  0.3246  1.0345 -1.6309
 3872TIP3   OH233030   4.401   1.967   1.569  0.1918 -0.1432 -0.3718
 3872TIP3    H133031   4.440   2.038   1.518  0.2140  0.1284  0.0218
 3872TIP3    H233032   4.324   2.005   1.610 -0.0415 -0.4645 -0.5041
 3873TIP3   OH233033   3.109   5.927  14.038 -0.4363  0.0316 -0.3130
 3873TIP3    H133034   3.079   5.860  14.098  0.4573 -0.7388 -0.7074
 3873TIP3    H233035   3.083   6.010  14.080 -2.4706 -0.5353 -0.3105
 3874TIP3   OH233036   4.935   2.397   3.656  0.2861  0.1415  0.4877
 3874TIP3    H133037   4.940   2.305   3.685 -0.3467  0.1041  0.4992
 3874TIP3    H233038   5.007   2.406   3.593 -0.8622 -0.9430 -1.0799
 3875TIP3   OH233039   5.610   5.977  12.369  0.0614 -0.0005 -0.0782
 3875TIP3    H133040   5.691   5.959  12.416 -1.4606  0.0008  2.7927
 3875TIP3    H233041   5.594   5.898  12.318  1.6536 -0.1413 -0.4097
 3876TIP3   OH233042   5.511   2.373  13.545 -0.8142  0.2653  0.7115
 3876TIP3    H133043   5.601   2.401  13.566 -0.3996 -0.6257  0.1929
 3876TIP3    H233044   5.457   2.416  13.611  0.1100  0.0260  1.6631
 3877TIP3   OH233045   2.415   4.908  15.546 -0.2572 -0.4063  0.2288
 3877TIP3    H133046   2.357   4.948  15.610 -0.0682  0.2799 -0.0216
 3877TIP3    H233047   2.470   4.980  15.515  2.1764 -1.3715  1.9659
 3878TIP3   OH233048   1.888   3.532   2.306  0.0201 -0.5228  0.3087
 3878TIP3    H133049   1.935   3.615   2.303 -1.3826  0.3176  0.5267
 3878TIP3    H233050   1.795   3.556   2.302 -0.4220 -2.0915  0.1599
 3879TIP3   OH233051   4.511   1.362   4.168  0.8016  0.1206 -0.3782
 3879TIP3    H133052   4.541   1.320   4.088  2.0534  1.1870 -0.4864
 3879TIP3    H233053   4.560   1.319   4.238  1.4461  0.7951 -0.4097
 3880TIP3   OH233054   1.549   4.073  15.233 -0.5436 -0.7891 -0.5487
 3880TIP3    H133055   1.590   3.987  15.227  1.2371  0.0151 -0.5282
 3880TIP3    H233056   1.476   4.060  15.294 -1.1268 -2.5464 -1.5520
 3881TIP3   OH233057   2.039   3.592   0.229  0.5100  0.5835 -0.2361
 3881TIP3    H133058   2.132   3.571   0.218 -0.0837 -2.1196 -0.9054
 3881TIP3    H233059   2.015   3.550   0.311 -0.6573 -1.1852 -1.3989
 3882TIP3   OH233060   2.870   2.697  13.871 -0.0454 -0.2458  0.2250
 3882TIP3    H133061   2.890   2.605  13.888 -0.8235 -0.3604  0.5457
 3882TIP3    H233062   2.926   2.745  13.932  0.1007 -0.5217  0.3113
 3883TIP3   OH233063   6.634   0.905  15.466 -0.2553 -0.0798 -0.1225
 3883TIP3    H133064   6.661   0.924  15.376  0.8710 -1.6479 -0.1705
 3883TIP3    H233065   6.550   0.949  15.476 -0.4078  0.1279 -1.9532
 3884TIP3   OH233066   3.551   3.420  17.086 -0.2187  0.0884  0.2686
 3884TIP3    H133067   3.502   3.391  17.009 -1.8559  0.9882  0.9106
 3884TIP3    H233068   3.595   3.341  17.117  0.5076 -0.2909 -1.5692
 3885TIP3   OH233069   6.301   2.125  12.427 -0.0791  0.4094  0.2901
 3885TIP3    H133070   6.321   2.035  12.399  0.2706  0.3225  0.8155
 3885TIP3    H233071   6.224   2.117  12.483  0.3845  0.3433  0.9278
 3886TIP3   OH233072   2.723   3.065  13.795 -0.5746 -0.6247  0.0548
 3886TIP3    H133073   2.648   3.068  13.854  1.0620  1.7392  2.2481
 3886TIP3    H233074   2.787   3.123  13.836  1.4826 -0.5072 -3.0359
 3887TIP3   OH233075   4.378   1.723  17.178 -0.2223 -0.3706  0.3154
 3887TIP3    H133076   4.396   1.697  17.087 -1.3813  0.9544 -0.3312
 3887TIP3    H233077   4.296   1.678  17.200  0.9425 -2.0816  1.3539
 3888TIP3   OH233078   6.249   1.147  17.261 -0.1915  0.9425 -0.1843
 3888TIP3    H133079   6.264   1.137  17.167 -2.0295 -0.0465 -0.4125
 3888TIP3    H233080   6.322   1.100  17.302  0.3482  0.9531 -1.1061
 3889TIP3   OH233081   2.174   1.112  15.527  0.4640  0.2770 -0.4509
 3889TIP3    H133082   2.265   1.132  15.508  0.0985  0.1591 -2.5819
 3889TIP3    H233083   2.124   1.164  15.463 -1.1082  1.9121  1.9309
 3890TIP3   OH233084   1.798   2.829  16.168 -0.4627  0.1981 -0.3637
 3890TIP3    H133085   1.772   2.835  16.260 -2.9167  2.2989 -1.0806
 3890TIP3    H233086   1.863   2.899  16.157 -0.1788 -0.0447 -0.2329
 3891TIP3   OH233087   2.202   0.453   2.646 -0.6868  0.3815  0.2937
 3891TIP3    H133088   2.239   0.462   2.733  1.1732  0.9031 -0.5096
 3891TIP3    H233089   2.248   0.378   2.608 -1.2991  0.3185 -0.3508
 3892TIP3   OH233090   3.352   3.730  10.862  0.2780  0.6094 -0.1338
 3892TIP3    H133091   3.281   3.686  10.909 -1.6017  0.9753 -2.4475
 3892TIP3    H233092   3.413   3.659  10.840 -1.2755 -0.4463 -1.3249
 3893TIP3   OH233093   2.139   2.176  15.096 -0.2574  0.0725  0.5041
 3893TIP3    H133094   2.045   2.160  15.099 -0.2783 -0.0029 -0.2338
 3893TIP3    H233095   2.157   2.234  15.169 -0.9377  0.3658  0.4362
 3894TIP3   OH233096   3.674   6.773   4.393  0.1213 -0.6130  0.5326
 3894TIP3    H133097   3.736   6.779   4.320  0.5252 -1.5045  0.7819
 3894TIP3    H233098   3.678   6.681   4.419  1.8792  0.1160  3.3077
 3895TIP3   OH233099   3.692   4.096  16.890  0.0328 -0.3767 -0.1909
 3895TIP3    H133100   3.648   4.129  16.969 -0.5122 -0.7952 -0.3187
 3895TIP3    H233101   3.784   4.122  16.902  0.0458 -0.8190  0.7946
 3896TIP3   OH233102   0.012   6.240   5.437 -0.4704  0.0433 -0.2062
 3896TIP3    H133103   0.096   6.213   5.400 -0.6931 -0.1146 -0.6078
 3896TIP3    H233104  -0.050   6.229   5.365 -1.2497 -2.0047  0.6777
 3897TIP3   OH233105   4.369   1.766  13.192 -0.0139  0.0117 -0.3830
 3897TIP3    H133106   4.430   1.693  13.188 -0.8109 -0.7519  0.8560
 3897TIP3    H233107   4.416   1.834  13.240 -0.2042 -0.6823  0.8326
 3898TIP3   OH233108   5.969   4.470  16.529  0.0621  0.5757  0.3224
 3898TIP3    H133109   5.991   4.461  16.622 -0.7271 -0.2780  0.4443
 3898TIP3    H233110   5.986   4.562  16.509  2.0731  0.3567  0.8091
 3899TIP3   OH233111   3.816   1.305  14.044 -0.1572 -0.3724  0.8610
 3899TIP3    H133112   3.899   1.269  14.073  0.1252  0.0070  0.5419
 3899TIP3    H233113   3.750   1.245  14.078  0.1842 -0.1849  1.8856
 3900TIP3   OH233114   2.773   4.192  16.831 -0.4939 -0.2894  0.1116
 3900TIP3    H133115   2.819   4.124  16.781  0.4917  1.4466 -1.4539
 3900TIP3    H233116   2.810   4.185  16.919  0.6818 -0.8409 -0.3968
 3901TIP3   OH233117   2.236   4.068   4.160 -0.4145  0.2750 -0.3760
 3901TIP3    H133118   2.292   3.991   4.167 -1.2334 -0.4007 -0.9404
 3901TIP3    H233119   2.155   4.042   4.204 -0.0925  1.4466  0.9775
 3902TIP3   OH233120   5.582   2.190   5.025 -0.0219  0.1689  0.0817
 3902TIP3    H133121   5.627   2.125   5.079  0.1522 -0.6201 -0.9922
 3902TIP3    H233122   5.495   2.153   5.009  0.1429  0.0972 -0.6963
 3903TIP3   OH233123   3.945   5.699  15.597  0.2777 -0.1908  0.6658
 3903TIP3    H133124   3.919   5.723  15.508  0.0837 -2.9195 -0.0993
 3903TIP3    H233125   4.035   5.670  15.588  0.2528 -0.4878  1.3751
 3904TIP3   OH233126   0.425   0.522   1.667  0.0135 -0.5262 -0.0925
 3904TIP3    H133127   0.399   0.468   1.741 -0.5848  0.7310  0.6394
 3904TIP3    H233128   0.368   0.598   1.671  0.9749  0.2699 -0.9745
 3905TIP3   OH233129   6.205   6.667   4.489 -0.3737  0.5173 -0.6073
 3905TIP3    H133130   6.183   6.685   4.397 -2.4803  0.7908 -0.1063
 3905TIP3    H233131   6.120   6.667   4.534  0.5909  0.1162  1.3015
 3906TIP3   OH233132   1.025   3.790   1.948  0.6695  0.4977  0.0390
 3906TIP3    H133133   1.068   3.753   1.871  0.0615 -0.3994  0.1205
 3906TIP3    H233134   1.050   3.732   2.020 -2.1187 -1.1693 -0.2245
 3907TIP3   OH233135   4.317   2.461  13.956  0.0958 -0.2801  0.0462
 3907TIP3    H133136   4.243   2.404  13.935 -1.2422  1.8052 -1.3199
 3907TIP3    H233137   4.394   2.405  13.947 -1.2456 -2.3532  0.8252
 3908TIP3   OH233138   1.168   2.858   4.722  0.2934  0.1059 -0.3707
 3908TIP3    H133139   1.145   2.950   4.716 -1.7081 -0.3316 -0.3948
 3908TIP3    H233140   1.181   2.830   4.631 -0.5144  0.0746 -0.4873
 3909TIP3   OH233141   3.089   3.795   1.556  0.0570  0.3128  0.0752
 3909TIP3    H133142   3.035   3.764   1.628  1.4904  0.5319  1.2879
 3909TIP3    H233143   3.101   3.889   1.574  0.0661  0.4658 -0.6936
 3910TIP3   OH233144   6.330   1.461  11.201  0.4107 -0.4392 -0.0881
 3910TIP3    H133145   6.348   1.368  11.214 -0.6317 -0.7203 -0.5558
 3910TIP3    H233146   6.346   1.476  11.108  3.2475  0.5057  0.4331
 3911TIP3   OH233147   0.778   6.167   5.085  0.7495 -0.5284 -0.0534
 3911TIP3    H133148   0.741   6.119   5.011 -2.0825  0.9381  0.2504
 3911TIP3    H233149   0.735   6.129   5.162  0.1198  0.9726  0.3727
 3912TIP3   OH233150   2.312   6.649  15.594  0.3829  0.3246 -0.8247
 3912TIP3    H133151   2.366   6.715  15.551  1.2498  0.3033  0.1898
 3912TIP3    H233152   2.374   6.597  15.645 -0.3118 -1.1306 -1.4067
 3913TIP3   OH233153   5.022   3.050   4.599 -0.1547  0.0122 -0.1900
 3913TIP3    H133154   5.001   3.046   4.506 -1.1729  1.6997 -0.0835
 3913TIP3    H233155   4.939   3.075   4.640  0.9205  2.1762  0.8210
 3914TIP3   OH233156   1.366   2.475  14.398 -0.3438 -0.3811 -0.5810
 3914TIP3    H133157   1.448   2.486  14.446  0.0082  0.0770 -1.2720
 3914TIP3    H233158   1.324   2.560  14.401 -1.3740 -0.9018  0.7677
 3915TIP3   OH233159   3.803   4.446  17.202  0.3538 -0.3460  0.4999
 3915TIP3    H133160   3.719   4.493  17.204 -0.7740 -2.2316  0.4946
 3915TIP3    H233161   3.869   4.514  17.195 -1.1275  1.2782  1.5463
 3916TIP3   OH233162   6.316   5.567  11.333  0.1652 -0.5225 -0.0789
 3916TIP3    H133163   6.350   5.560  11.244 -3.8988 -1.5387 -1.8020
 3916TIP3    H233164   6.295   5.477  11.358 -1.1083  0.0029  0.8235
 3917TIP3   OH233165   2.028   2.429  13.669 -0.1352 -0.2243 -0.1584
 3917TIP3    H133166   1.998   2.375  13.596 -0.4428 -1.0048  0.5266
 3917TIP3    H233167   2.121   2.444  13.651 -0.5706  1.0468 -1.5834
 3918TIP3   OH233168   5.626   4.123  14.575  0.5373 -0.4645 -0.2834
 3918TIP3    H133169   5.618   4.028  14.585  1.0002 -0.7139 -1.9893
 3918TIP3    H233170   5.717   4.138  14.551  0.9695  0.6353  1.8143
 3919TIP3   OH233171   5.928   2.890  11.800  0.2085 -0.1728 -0.0965
 3919TIP3    H133172   5.921   2.933  11.716  0.3840  0.4920  0.2225
 3919TIP3    H233173   5.872   2.813  11.793  1.6044 -1.1332 -1.4316
 3920TIP3   OH233174   1.971   4.249   6.538  0.4581 -0.1122  0.1886
 3920TIP3    H133175   2.026   4.202   6.601  1.7696 -0.3811 -1.1125
 3920TIP3    H233176   1.992   4.342   6.552  0.0318 -0.1009  0.7821
 3921TIP3   OH233177   2.444   5.597   3.100  0.3745  1.0331 -0.2949
 3921TIP3    H133178   2.514   5.662   3.095  1.9825 -0.7097 -2.0769
 3921TIP3    H233179   2.478   5.521   3.054 -2.5738 -0.0617 -0.9116
 3922TIP3   OH233180   2.477   2.561  13.792 -0.1330 -0.0780  0.8925
 3922TIP3    H133181   2.454   2.468  13.802 -0.4212  0.0633  1.5875
 3922TIP3    H233182   2.451   2.601  13.875  2.0415  0.2322  1.4878
 3923TIP3   OH233183   6.722   5.492  11.880  0.8980  0.1005  0.1740
 3923TIP3    H133184   6.667   5.531  11.948 -2.7106 -2.1951 -1.1776
 3923TIP3    H233185   6.776   5.428  11.928  2.4004  2.1661  1.4663
 3924TIP3   OH233186   6.747   5.646  14.841 -0.1742  0.6591 -0.6279
 3924TIP3    H133187   6.779   5.683  14.759 -1.3289  0.9341 -0.9647
 3924TIP3    H233188   6.665   5.691  14.858 -0.7212 -0.4817 -0.1082
 3925TIP3   OH233189   5.452   0.707   1.006  0.5357  0.3261  0.7482
 3925TIP3    H133190   5.521   0.645   1.030  0.2205 -0.3863 -0.1350
 3925TIP3    H233191   5.496   0.793   1.008  1.5626 -0.1524 -0.2017
 3926TIP3   OH233192   2.257   0.502   4.839  0.1273 -0.6277 -0.0197
 3926TIP3    H133193   2.337   0.461   4.870 -0.6540 -3.0723 -0.9872
 3926TIP3    H233194   2.191   0.480   4.905  0.0239  0.6283  0.3324
 3927TIP3   OH233195   3.032   3.520  13.998  0.1888 -0.0137 -0.2122
 3927TIP3    H133196   2.938   3.510  14.010  0.0770  2.3248  1.8310
 3927TIP3    H233197   3.043   3.543  13.906 -0.9501 -2.2447 -0.9859
 3928TIP3   OH233198   4.612   4.153  15.351 -0.0428  0.4981 -0.1536
 3928TIP3    H133199   4.529   4.131  15.393  0.1774  0.8061  0.4468
 3928TIP3    H233200   4.608   4.247  15.338  1.4831  1.0862  2.7485
 3929TIP3   OH233201   6.700   4.453   6.331  0.4519 -0.0235  0.0587
 3929TIP3    H133202   6.672   4.365   6.305  2.0529 -0.3830 -0.5489
 3929TIP3    H233203   6.722   4.444   6.424  1.0691 -0.4045 -0.1150
 3930TIP3   OH233204   2.047   6.500   4.353  0.1769  0.4537 -0.2659
 3930TIP3    H133205   2.100   6.491   4.275  1.2146  1.8886  0.2190
 3930TIP3    H233206   1.985   6.571   4.333 -1.3196 -0.9116 -0.6736
 3931TIP3   OH233207   5.306   1.281   3.878 -0.2250 -0.4287 -0.0244
 3931TIP3    H133208   5.270   1.345   3.939 -0.9390 -0.7921 -0.0536
 3931TIP3    H233209   5.339   1.334   3.805  2.3536  0.1662  1.4663
 3932TIP3   OH233210   5.018   0.855  16.693  0.3130 -0.0789 -0.2128
 3932TIP3    H133211   5.050   0.915  16.626  0.4717  0.7511  0.5769
 3932TIP3    H233212   4.930   0.831  16.664  0.5368 -0.0511 -0.9171
 3933TIP3   OH233213   5.887   3.578   4.771  0.4681  0.4377 -0.1369
 3933TIP3    H133214   5.800   3.541   4.762  1.0848 -0.7898 -1.4880
 3933TIP3    H233215   5.900   3.586   4.865 -0.0038 -2.2062  0.2436
 3934TIP3   OH233216   1.403   5.225  16.453 -0.1582  0.2824  0.7150
 3934TIP3    H133217   1.309   5.231  16.470 -0.4963  0.0195 -0.9616
 3934TIP3    H233218   1.430   5.146  16.501 -1.2767 -1.0249 -0.7082
 3935TIP3   OH233219   0.109   4.696   6.303  0.4867  0.2006 -0.2062
 3935TIP3    H133220   0.017   4.670   6.303  0.7305 -0.8062 -1.6622
 3935TIP3    H233221   0.121   4.740   6.219  0.8482  2.3156  0.8864
 3936TIP3   OH233222   4.246   5.069   4.100  0.3839 -0.0548 -0.4576
 3936TIP3    H133223   4.168   5.025   4.133  0.1209  0.8015  0.0754
 3936TIP3    H233224   4.238   5.159   4.130  0.7838  0.4389 -1.7525
 3937TIP3   OH233225   0.873   3.203  12.535  0.6349  0.1988  0.1608
 3937TIP3    H133226   0.961   3.235  12.552  0.0040  1.2865  1.5916
 3937TIP3    H233227   0.852   3.147  12.609  0.3233 -0.5126 -0.4511
 3938TIP3   OH233228   2.442   3.328  13.643 -0.4059  0.2706  0.1267
 3938TIP3    H133229   2.382   3.397  13.671 -0.0206  0.7776 -0.2876
 3938TIP3    H233230   2.512   3.330  13.708  0.5646  1.5485 -0.9343
 3939TIP3   OH233231   6.711   2.586   6.201  1.1125  0.3153  0.4535
 3939TIP3    H133232   6.622   2.561   6.224  1.0927  1.3674  1.6940
 3939TIP3    H233233   6.766   2.524   6.249  1.1628 -2.5852 -2.9728
 3940TIP3   OH233234   3.766   2.720  11.298 -0.3041  0.4349 -0.1588
 3940TIP3    H133235   3.749   2.788  11.233  0.1831  2.6038  1.8191
 3940TIP3    H233236   3.729   2.754  11.379  1.2907 -0.9612  1.2528
 3941TIP3   OH233237   0.449   4.211   4.263 -0.2440  0.8346  0.0561
 3941TIP3    H133238   0.533   4.179   4.296 -0.2597 -1.4254 -1.8467
 3941TIP3    H233239   0.456   4.306   4.270  2.2035  0.7021  0.5500
 3942TIP3   OH233240   5.424   3.951   0.014 -0.5009 -0.2544 -0.0400
 3942TIP3    H133241   5.345   3.918  -0.030 -0.6475  0.9101 -0.7180
 3942TIP3    H233242   5.432   3.899   0.093 -0.8681 -1.6818 -0.9088
 3943TIP3   OH233243   1.481   6.145  16.781  0.0267 -0.0215  0.0154
 3943TIP3    H133244   1.416   6.082  16.813 -0.5917  0.8173  0.4419
 3943TIP3    H233245   1.500   6.116  16.692  1.9120 -2.4994  1.1234
 3944TIP3   OH233246   1.408   0.074  14.976  0.0136  0.3570  0.1535
 3944TIP3    H133247   1.408   0.169  14.983 -0.1930  0.4530 -0.9630
 3944TIP3    H233248   1.476   0.054  14.911 -0.8427 -0.1529 -0.6152
 3945TIP3   OH233249   4.170   3.401  11.676 -0.2948  0.4506  0.4391
 3945TIP3    H133250   4.119   3.439  11.605 -0.4060 -1.4449 -0.5392
 3945TIP3    H233251   4.247   3.458  11.684  0.2298  0.1339 -1.8923
 3946TIP3   OH233252   5.379   3.539   2.711  0.2034  0.2427 -0.0842
 3946TIP3    H133253   5.469   3.546   2.678 -0.1384  1.2260 -0.8572
 3946TIP3    H233254   5.335   3.618   2.678 -0.6028  0.4326  1.3917
 3947TIP3   OH233255   1.727   4.309   6.448  0.5555  0.9550  0.1113
 3947TIP3    H133256   1.804   4.254   6.465 -1.2990 -1.9642 -0.1186
 3947TIP3    H233257   1.755   4.369   6.379  2.6583  0.1603  0.1873
 3948TIP3   OH233258   5.599   1.509  16.199 -0.3043  0.2562  0.2189
 3948TIP3    H133259   5.577   1.574  16.132  0.0115 -1.1375 -1.2912
 3948TIP3    H233260   5.592   1.557  16.281 -0.4845  2.0921 -0.8058
 3949TIP3   OH233261   2.808   3.490   3.301  0.2834  0.4286 -0.4807
 3949TIP3    H133262   2.753   3.550   3.252 -1.4914 -1.1984 -0.6085
 3949TIP3    H233263   2.746   3.436   3.351  1.8077 -0.7976  0.1845
 3950TIP3   OH233264   6.207   3.138  11.420  0.1366 -0.0329  0.1230
 3950TIP3    H133265   6.236   3.204  11.356 -0.6867  0.2811  0.0556
 3950TIP3    H233266   6.199   3.186  11.502  0.2370 -0.2151  0.2404
 3951TIP3   OH233267   4.389   6.635   6.558 -0.1002 -0.0977 -0.3560
 3951TIP3    H133268   4.471   6.586   6.554  0.0512  0.1828 -0.6978
 3951TIP3    H233269   4.330   6.587   6.499  0.2085  0.4186 -1.1081
 3952TIP3   OH233270   2.224   1.609   5.671  0.0975  0.0415 -0.6351
 3952TIP3    H133271   2.249   1.590   5.761 -0.2256  1.7197 -0.1475
 3952TIP3    H233272   2.290   1.671   5.639 -0.1462 -0.0360 -1.3197
 3953TIP3   OH233273   0.648   2.650   1.208 -0.1674  0.3064  0.1935
 3953TIP3    H133274   0.632   2.654   1.302 -0.3562  2.6848  0.1258
 3953TIP3    H233275   0.581   2.592   1.174 -0.4430 -0.1407  1.4617
 3954TIP3   OH233276   6.224   0.258   2.560  0.7632  0.6535  0.6004
 3954TIP3    H133277   6.199   0.193   2.626  0.4671 -0.8223 -0.8876
 3954TIP3    H233278   6.165   0.331   2.575  0.4072  0.1661  1.6837
 3955TIP3   OH233279   1.614   0.263  16.715 -0.4658 -0.3830  0.3254
 3955TIP3    H133280   1.672   0.312  16.774 -0.5336 -1.4098  1.2645
 3955TIP3    H233281   1.670   0.193  16.680 -0.8069 -0.6190  0.2521
 3956TIP3   OH233282   3.775   6.170  14.719 -0.3309  0.2215 -0.3082
 3956TIP3    H133283   3.764   6.215  14.803 -0.0570  1.4573 -0.9240
 3956TIP3    H233284   3.801   6.238  14.657  2.0499 -1.0625 -0.8703
 3957TIP3   OH233285   2.138   6.431  15.531  1.0265  0.1150  0.2979
 3957TIP3    H133286   2.189   6.512  15.539 -0.1826  0.8093  1.4882
 3957TIP3    H233287   2.113   6.428  15.439  1.1346  1.0954  0.2258
 3958TIP3   OH233288   1.384   3.980  17.203 -0.3309  0.6221 -0.0512
 3958TIP3    H133289   1.472   3.966  17.166 -0.0316 -0.3398  0.9479
 3958TIP3    H233290   1.332   3.908  17.169 -0.1538 -0.0458  1.0533
 3959TIP3   OH233291   5.369   0.560   1.481  0.4857 -0.4520  0.0921
 3959TIP3    H133292   5.417   0.477   1.472  0.2624 -0.8657  2.1585
 3959TIP3    H233293   5.295   0.551   1.421  0.4667 -1.7523  0.2798
 3960TIP3   OH233294   6.105   2.752   2.305  0.2061  0.2712 -0.0568
 3960TIP3    H133295   6.058   2.781   2.227 -2.3412 -0.5070  1.0987
 3960TIP3    H233296   6.139   2.833   2.343 -1.1082  1.0030 -0.3847
 3961TIP3   OH233297   1.421   4.429   3.600 -0.4806 -0.5330  0.1666
 3961TIP3    H133298   1.402   4.361   3.534 -0.1014 -1.5547  1.0718
 3961TIP3    H233299   1.396   4.511   3.558 -0.1122 -1.1379 -1.3112
 3962TIP3   OH233300   1.827   3.811   3.498  0.4437 -0.2043  0.3021
 3962TIP3    H133301   1.860   3.797   3.409  0.3961  0.3452  0.1969
 3962TIP3    H233302   1.891   3.870   3.537 -0.1941  0.5425  0.2321
 3963TIP3   OH233303   2.367   1.019   3.674  0.1032 -0.2874 -0.7185
 3963TIP3    H133304   2.359   0.998   3.581 -0.1468  1.0610 -1.0202
 3963TIP3    H233305   2.376   0.934   3.717 -0.6038 -0.9886 -1.8935
 3964TIP3   OH233306   3.097   5.942   2.924  0.5508 -0.2870  0.5914
 3964TIP3    H133307   3.075   5.870   2.982 -0.5416 -0.4046  0.0568
 3964TIP3    H233308   3.178   5.978   2.959 -0.7451  0.4867  2.9562
 3965TIP3   OH233309   6.208   5.820   4.160 -0.1939 -0.0847 -0.4602
 3965TIP3    H133310   6.288   5.869   4.181  0.1961 -1.0358  0.3091
 3965TIP3    H233311   6.206   5.818   4.064  0.7458 -0.1154 -0.4897
 3966TIP3   OH233312   3.860   2.868   1.943  0.2802 -0.0487 -0.2270
 3966TIP3    H133313   3.795   2.811   1.902  1.7365 -2.0080  0.0482
 3966TIP3    H233314   3.858   2.949   1.891 -0.5514 -1.0389 -1.7990
 3967TIP3   OH233315   4.741   5.757  13.599 -0.4114  0.3110 -0.0838
 3967TIP3    H133316   4.705   5.668  13.590  0.3767  0.1090 -1.4758
 3967TIP3    H233317   4.835   5.743  13.611 -0.3796  0.9509  0.4839
 3968TIP3   OH233318   5.103   3.296  15.986 -0.6174 -0.0753 -0.7208
 3968TIP3    H133319   5.039   3.313  15.917 -1.9544  0.7808  0.6740
 3968TIP3    H233320   5.063   3.228  16.040 -0.3577  0.4536  0.1578
 3969TIP3   OH233321   6.250   6.312   5.703  0.1525 -0.0226  0.0862
 3969TIP3    H133322   6.198   6.295   5.625  0.1298  0.9459 -0.1236
 3969TIP3    H233323   6.189   6.351   5.766  0.6928  1.5460 -0.3260
 3970TIP3   OH233324   1.858   2.878   5.131 -0.4200  0.3046 -0.5375
 3970TIP3    H133325   1.861   2.894   5.036  0.7846 -0.0767 -0.5834
 3970TIP3    H233326   1.800   2.946   5.165 -0.7295  0.5538 -1.5270
 3971TIP3   OH233327   3.575   1.762  12.213  0.0818  0.4330 -0.2247
 3971TIP3    H133328   3.634   1.800  12.148  2.0236 -2.3605 -0.2362
 3971TIP3    H233329   3.567   1.670  12.189 -0.6552 -0.2898  2.3938
 3972TIP3   OH233330   6.503   2.114   1.106  0.9274 -0.0397 -0.4633
 3972TIP3    H133331   6.430   2.140   1.162  1.8592 -1.2763  1.4446
 3972TIP3    H233332   6.554   2.194   1.095  0.5728  0.2931  0.2427
 3973TIP3   OH233333   1.457   3.909  16.219  0.3715 -0.3928  0.6863
 3973TIP3    H133334   1.425   3.854  16.147  1.4769 -0.3286  0.1400
 3973TIP3    H233335   1.402   3.884  16.293  0.2174 -1.5484  0.2053
 3974TIP3   OH233336   1.191   1.783  13.862  0.2342 -0.4685  0.8183
 3974TIP3    H133337   1.263   1.742  13.910 -0.1357  0.5425  2.2767
 3974TIP3    H233338   1.136   1.824  13.929 -2.5431 -2.3994 -0.0602
 3975TIP3   OH233339   5.217   6.695   2.319  0.5172 -0.0930 -0.5464
 3975TIP3    H133340   5.268   6.753   2.375 -0.7027  1.8087 -1.3015
 3975TIP3    H233341   5.158   6.650   2.379 -0.2988  1.4074 -0.1672
 3976TIP3   OH233342   4.098   4.783  13.093  1.0133  0.2353  0.5920
 3976TIP3    H133343   4.110   4.878  13.086  0.1075  0.3687  0.7603
 3976TIP3    H233344   4.096   4.752  13.002 -0.0607  0.5630  0.4963
 3977TIP3   OH233345   6.657   3.736   0.169 -0.0547 -0.1626 -0.5631
 3977TIP3    H133346   6.626   3.723   0.259 -0.5962  1.9249 -0.4071
 3977TIP3    H233347   6.582   3.714   0.114  0.6458 -2.6877 -0.6557
 3978TIP3   OH233348   1.084   6.041   4.573  0.3506 -0.3867  0.1955
 3978TIP3    H133349   1.025   6.115   4.580 -0.8902 -1.1952 -1.1571
 3978TIP3    H233350   1.086   6.003   4.661 -0.2959  0.2891  0.5057
 3979TIP3   OH233351   4.711   5.091   2.582  0.1058  0.1234 -0.4122
 3979TIP3    H133352   4.780   5.043   2.628  0.9281  1.2816 -0.3958
 3979TIP3    H233353   4.664   5.137   2.652  0.5590  0.8698 -0.5796
 3980TIP3   OH233354   1.969   2.657  14.606 -0.0019 -0.0640 -0.3426
 3980TIP3    H133355   1.950   2.651  14.699  0.0627 -1.7871 -0.4141
 3980TIP3    H233356   1.883   2.659  14.564 -0.0405 -0.5528 -0.2960
 3981TIP3   OH233357   2.177   5.230   1.419  0.0889  0.0785 -0.4454
 3981TIP3    H133358   2.158   5.144   1.383 -0.7587  0.0304  0.1069
 3981TIP3    H233359   2.215   5.212   1.505 -0.6945  0.2621 -0.0526
 3982TIP3   OH233360   2.425   0.037   0.591  0.2412  0.3220 -0.3303
 3982TIP3    H133361   2.490   0.073   0.651 -0.1978 -0.3381  0.5570
 3982TIP3    H233362   2.449   0.073   0.505  0.6241  1.6246  0.2911
 3983TIP3   OH233363   1.858   4.212   1.082  0.5302  0.5974 -0.1704
 3983TIP3    H133364   1.790   4.155   1.118 -1.5319  1.6441 -2.1581
 3983TIP3    H233365   1.934   4.154   1.073 -0.3019 -0.8398  1.3357
 3984TIP3   OH233366   5.521   6.452  16.994  0.2237 -0.2478 -0.3034
 3984TIP3    H133367   5.546   6.362  16.973 -1.9941 -0.8911 -0.5219
 3984TIP3    H233368   5.429   6.445  17.020 -0.0809  2.0057 -0.5868
 3985TIP3   OH233369   5.515   0.695   4.087 -0.6028  0.6493  0.3995
 3985TIP3    H133370   5.579   0.731   4.148  1.6864 -1.1690 -0.7824
 3985TIP3    H233371   5.511   0.759   4.016  1.4311 -0.0658 -0.4261
 3986TIP3   OH233372   6.758   2.904  16.652 -0.2224 -0.1091  0.3774
 3986TIP3    H133373   6.852   2.905  16.635 -0.3789 -1.3035 -0.6624
 3986TIP3    H233374   6.743   2.980  16.708  1.4055 -0.0830  0.8224
 3987TIP3   OH233375   0.054   3.615   2.926  0.0666  0.2489 -0.5002
 3987TIP3    H133376   0.052   3.539   2.868 -1.4278  0.0308 -0.2058
 3987TIP3    H233377  -0.038   3.641   2.935  0.4475  1.4264  0.2728
 3988TIP3   OH233378   0.552   3.936  11.907 -0.1943 -0.2747 -0.1607
 3988TIP3    H133379   0.473   3.941  11.961  0.8099  1.7693  1.2915
 3988TIP3    H233380   0.526   3.971  11.822 -0.7165  1.2159  0.5646
 3989TIP3   OH233381   1.775   1.113   2.794 -0.7860  1.0800 -0.0271
 3989TIP3    H133382   1.722   1.191   2.812  2.6994  3.5901  0.2962
 3989TIP3    H233383   1.787   1.072   2.880 -0.9617  1.3668  0.1375
 3990TIP3   OH233384   4.532   3.977   4.137 -0.7847 -0.0620  0.0927
 3990TIP3    H133385   4.461   3.974   4.073 -1.9421 -1.9707  1.3579
 3990TIP3    H233386   4.521   4.063   4.180 -0.1170  1.1567 -2.0189
 3991TIP3   OH233387   3.738   5.902   4.267 -0.0321 -0.7272  0.0818
 3991TIP3    H133388   3.657   5.951   4.255  0.2871 -0.2644 -0.2035
 3991TIP3    H233389   3.808   5.967   4.254  0.4034 -1.3173 -0.6179
 3992TIP3   OH233390   0.753   3.972  12.960 -1.0736  0.6232 -0.1593
 3992TIP3    H133391   0.734   4.063  12.938 -0.3694  0.9713  0.6062
 3992TIP3    H233392   0.748   3.970  13.056  0.3719  0.2036 -0.0779
 3993TIP3   OH233393   0.764   5.601   4.506 -0.4575  0.5099 -0.3502
 3993TIP3    H133394   0.723   5.550   4.436 -2.6479  0.2724  1.0090
 3993TIP3    H233395   0.782   5.686   4.467  2.2369 -0.8313 -2.3413
 3994TIP3   OH233396   4.037   2.611   0.573 -0.5806 -0.3454 -0.6022
 3994TIP3    H133397   4.052   2.684   0.633  0.2542 -1.4383  0.5700
 3994TIP3    H233398   3.961   2.637   0.521 -0.3609  1.2969 -0.1406
 3995TIP3   OH233399   1.901   1.682   4.389 -0.0778 -0.1276  0.9983
 3995TIP3    H133400   1.841   1.755   4.389 -1.2508 -0.9768 -1.5922
 3995TIP3    H233401   1.960   1.698   4.315  1.5070 -0.4306  2.1196
 3996TIP3   OH233402   5.936   1.839  12.740 -0.7229 -0.1601  0.5081
 3996TIP3    H133403   5.866   1.904  12.726 -0.8090 -0.4828 -0.7397
 3996TIP3    H233404   5.900   1.779  12.806 -0.6907  0.9741  1.5834
 3997TIP3   OH233405   2.367   2.906   2.991 -0.0485 -0.4326 -0.3276
 3997TIP3    H133406   2.286   2.952   2.968 -0.8840 -1.3819  0.6281
 3997TIP3    H233407   2.340   2.815   3.005  1.0615 -0.6337  0.6466
 3998TIP3   OH233408   0.486   2.037   4.418 -0.0149 -0.1630 -0.1556
 3998TIP3    H133409   0.392   2.023   4.408 -0.6501  2.4708  1.2728
 3998TIP3    H233410   0.516   2.060   4.330 -1.3470  1.8837 -0.1483
 3999TIP3   OH233411   3.093   1.868   2.281  0.0483 -0.5801 -0.3370
 3999TIP3    H133412   3.075   1.791   2.227 -0.3463 -0.2163 -0.7325
 3999TIP3    H233413   3.060   1.844   2.368 -0.6472 -0.6286 -0.6045
 4000TIP3   OH233414   2.619   2.418  14.530  0.1018 -0.1483  0.0428
 4000TIP3    H133415   2.560   2.429  14.604 -0.6520 -0.5083 -0.4872
 4000TIP3    H233416   2.707   2.425  14.568 -0.2544  1.9236  0.6139
 4001TIP3   OH233417   0.388   1.380  10.329  0.2028 -0.5800 -0.1465
 4001TIP3    H133418   0.406   1.391  10.236  2.3551 -0.4117  0.2313
 4001TIP3    H233419   0.305   1.425  10.343 -0.0586 -0.4297 -1.9281
 4002TIP3   OH233420   0.932   2.932   6.804 -0.8550 -0.0943 -0.5609
 4002TIP3    H133421   0.865   2.879   6.847 -1.0930  0.0677 -0.7295
 4002TIP3    H233422   0.919   2.916   6.710 -0.2162 -0.5941 -0.5684
 4003TIP3   OH233423   2.599   4.256  11.677 -0.1057  0.1730 -0.0799
 4003TIP3    H133424   2.627   4.339  11.715 -2.2413  1.4379 -1.0867
 4003TIP3    H233425   2.572   4.203  11.753 -2.3144  1.8670  0.4274
 4004TIP3   OH233426   3.278   6.066   1.376 -0.2576  0.4109  0.2229
 4004TIP3    H133427   3.219   6.030   1.310  1.3168 -3.2008  0.5226
 4004TIP3    H233428   3.365   6.059   1.336  0.2812  3.0385  0.8049
 4005TIP3   OH233429   4.052   4.054  17.237 -0.0735 -0.3920 -0.6730
 4005TIP3    H133430   4.134   4.041  17.284 -0.5359  1.7207  0.8708
 4005TIP3    H233431   3.986   4.012  17.292 -0.5950  1.9323  0.5977
 4006TIP3   OH233432   1.320   6.459  14.255 -0.5461  0.0268  0.1165
 4006TIP3    H133433   1.326   6.443  14.161  1.3537 -1.1874  0.3800
 4006TIP3    H233434   1.296   6.551  14.262  2.7845  1.2160 -1.6363
 4007TIP3   OH233435   6.255   2.985   2.352  0.0511  0.2151  0.3520
 4007TIP3    H133436   6.292   3.016   2.269  2.3644 -0.5529  1.0109
 4007TIP3    H233437   6.263   3.060   2.411  1.0043 -0.0582  0.5945
 4008TIP3   OH233438   4.597   5.694  14.410 -0.4430  0.2875  0.3142
 4008TIP3    H133439   4.585   5.742  14.491  0.1404  0.9532  0.0201
 4008TIP3    H233440   4.534   5.732  14.349 -1.4096 -0.7141  0.6407
 4009TIP3   OH233441   0.046   2.100  10.374  0.1516 -0.5200 -0.6642
 4009TIP3    H133442   0.042   2.007  10.351 -0.7905 -1.0319  1.3384
 4009TIP3    H233443   0.092   2.103  10.458  2.1498  1.0919 -1.7290
 4010TIP3   OH233444   2.642   4.034  15.126  0.3699  0.3288 -0.3126
 4010TIP3    H133445   2.672   3.969  15.189  1.4353 -1.0951 -2.2152
 4010TIP3    H233446   2.548   4.045  15.146  0.6206 -0.2546  1.3139
 4011TIP3   OH233447   1.746   3.256   5.899  0.2316  0.2771  0.4391
 4011TIP3    H133448   1.738   3.332   5.955  0.2014  2.1074 -1.8934
 4011TIP3    H233449   1.792   3.287   5.821 -2.8202 -1.0841 -2.1938
 4012TIP3   OH233450   1.941   3.054  13.985  0.1270 -0.7709 -0.1226
 4012TIP3    H133451   1.987   3.010  13.914 -1.0154 -2.8370  0.3519
 4012TIP3    H233452   1.959   3.000  14.062 -1.4434 -0.5103  0.4529
 4013TIP3   OH233453   5.348   5.857   5.469  0.1792  0.0862 -0.0767
 4013TIP3    H133454   5.256   5.866   5.493  0.6854  1.2737  1.6131
 4013TIP3    H233455   5.372   5.944   5.435  0.6045 -0.3055 -0.7969
 4014TIP3   OH233456   3.055   4.300   3.472 -0.1483  0.1665  0.3060
 4014TIP3    H133457   3.052   4.221   3.416 -1.6423 -0.8260  1.6822
 4014TIP3    H233458   3.111   4.361   3.424 -0.5907 -0.9785 -1.8198
 4015TIP3   OH233459   5.145   2.306   2.835 -0.1396 -0.2894 -0.1267
 4015TIP3    H133460   5.130   2.329   2.927 -0.0463 -0.1189 -0.1542
 4015TIP3    H233461   5.058   2.311   2.795 -0.0610  0.4091 -0.2208
 4016TIP3   OH233462   1.833   1.881   4.042 -0.1884 -0.2008  0.2511
 4016TIP3    H133463   1.818   1.949   3.976  0.7320 -0.7036 -0.4959
 4016TIP3    H233464   1.918   1.903   4.081  0.5013 -1.3456 -0.5526
 4017TIP3   OH233465   5.331   2.943  14.647 -0.0565  0.1448 -0.0912
 4017TIP3    H133466   5.390   3.012  14.617  0.3175  0.8654  2.0733
 4017TIP3    H233467   5.263   2.990  14.697 -0.1381 -0.9840  0.9069
 4018TIP3   OH233468   6.409   5.030   2.694 -0.1118 -0.2356 -0.3371
 4018TIP3    H133469   6.448   4.945   2.716  0.3455  0.0047 -0.2168
 4018TIP3    H233470   6.415   5.081   2.775 -3.3260 -1.1444  0.6502
 4019TIP3   OH233471   0.055   1.029   2.520  0.0388  0.1446  0.3306
 4019TIP3    H133472   0.135   1.082   2.524 -0.5572  1.1595 -0.5593
 4019TIP3    H233473   0.027   1.021   2.610  1.0149 -0.0312  0.6375
 4020TIP3   OH233474   1.939   3.076  12.703  0.0078 -0.5366  0.3154
 4020TIP3    H133475   1.976   3.033  12.780 -0.4336 -3.0930 -0.7984
 4020TIP3    H233476   2.003   3.062  12.634 -0.6564 -0.3530 -0.3578
 4021TIP3   OH233477   4.502   0.605  17.006 -0.0789  0.2213  0.0804
 4021TIP3    H133478   4.537   0.686  17.044 -1.8455  1.2563 -0.4285
 4021TIP3    H233479   4.570   0.577  16.944  1.2474  0.4350  1.3769
 4022TIP3   OH233480   5.285   4.085   4.808  0.3510  0.2452  0.2151
 4022TIP3    H133481   5.244   4.077   4.894  0.0927 -0.0679  0.0632
 4022TIP3    H233482   5.297   3.995   4.778 -0.1098  0.3616 -0.3404
 4023TIP3   OH233483   5.195   1.056   0.470  0.6003 -0.6752  0.8214
 4023TIP3    H133484   5.160   1.126   0.525  1.6803 -1.3307  2.4565
 4023TIP3    H233485   5.222   1.099   0.389  0.0832  0.5601  1.2797
 4024TIP3   OH233486   1.351   3.168   3.831  0.0906  0.3548 -0.1311
 4024TIP3    H133487   1.387   3.251   3.801 -0.1614  0.8400  0.8726
 4024TIP3    H233488   1.381   3.104   3.767 -1.7999  1.5707 -2.3596
 4025TIP3   OH233489   1.287   2.601   5.056  0.0376  0.4404  0.5246
 4025TIP3    H133490   1.379   2.590   5.079 -0.9137 -0.7372  4.5691
 4025TIP3    H233491   1.261   2.517   5.018  0.7175  1.0858 -1.5354
 4026TIP3   OH233492   3.784   0.237   4.306  0.2976 -0.2462  0.0186
 4026TIP3    H133493   3.698   0.196   4.295  0.2928 -0.3322  0.3706
 4026TIP3    H233494   3.799   0.236   4.401 -0.5934  2.3126  0.2837
 4027TIP3   OH233495   5.265   2.038  15.889 -0.6260  0.2215 -0.3176
 4027TIP3    H133496   5.241   1.951  15.859 -2.2905  0.5587 -0.0593
 4027TIP3    H233497   5.314   2.024  15.970  1.8645 -0.5831 -1.8309
 4028TIP3   OH233498   1.583   0.530   2.861  0.4809 -0.0045  0.0316
 4028TIP3    H133499   1.670   0.569   2.872  0.1857  0.5787  0.3752
 4028TIP3    H233500   1.554   0.560   2.775  0.9985 -0.9700 -0.4889
 4029TIP3   OH233501   5.039   5.039  14.230 -0.3444  0.1055 -0.7637
 4029TIP3    H133502   5.130   5.060  14.210 -0.6587  0.0521 -2.3697
 4029TIP3    H233503   5.043   4.994  14.315  1.1025  0.1608 -0.7769
 4030TIP3   OH233504   5.492   0.326  17.118 -0.2385  0.0329  0.6864
 4030TIP3    H133505   5.402   0.294  17.120  0.3490 -2.2759 -2.3090
 4030TIP3    H233506   5.536   0.280  17.189 -1.1339  0.3229  1.4528
 4031TIP3   OH233507   5.026   6.037  15.932  0.2436 -0.1123 -0.4150
 4031TIP3    H133508   4.938   6.075  15.936  0.3834  0.4606 -2.0447
 4031TIP3    H233509   5.082   6.110  15.905  1.2009 -0.5294  0.3550
 4032TIP3   OH233510   2.552   0.930   5.150  0.7861  0.2932  0.0963
 4032TIP3    H133511   2.515   1.016   5.172 -0.1972 -0.4243  1.3666
 4032TIP3    H233512   2.476   0.875   5.134  1.2690 -1.0526  2.0912
 4033TIP3   OH233513   4.410   6.218   4.853 -0.3403 -0.7246  0.3248
 4033TIP3    H133514   4.406   6.124   4.871 -0.5355 -1.0197 -1.0825
 4033TIP3    H233515   4.467   6.224   4.776 -0.6744  0.2740  0.1467
 4034TIP3   OH233516   6.606   3.832   0.656 -0.0060 -0.0598  0.1389
 4034TIP3    H133517   6.518   3.854   0.688 -0.7156 -1.8545 -0.4821
 4034TIP3    H233518   6.661   3.902   0.690 -1.8212  1.6517 -0.2453
 4035TIP3   OH233519   0.202   4.659  15.607 -0.5264  0.3624  0.6014
 4035TIP3    H133520   0.151   4.582  15.634 -0.5311 -0.2645 -1.0667
 4035TIP3    H233521   0.174   4.676  15.517  2.0134  0.1078 -0.3231
 4036TIP3   OH233522   5.273   5.282   5.932 -0.1912  0.2660 -0.3182
 4036TIP3    H133523   5.240   5.370   5.949  2.0080  0.8839  1.2381
 4036TIP3    H233524   5.228   5.227   5.995 -0.4877  0.5315 -0.2947
 4037TIP3   OH233525   0.968   0.066  11.179  0.1173 -0.1445 -0.9108
 4037TIP3    H133526   0.935  -0.023  11.195  1.6520 -0.7451 -0.9245
 4037TIP3    H233527   0.918   0.096  11.103 -1.1346 -0.5914 -0.2937
 4038TIP3   OH233528   0.606   6.441  16.623 -0.4843  0.1821  0.4146
 4038TIP3    H133529   0.685   6.424  16.674  1.3720  3.9370 -0.8178
 4038TIP3    H233530   0.539   6.459  16.688  1.0283  1.8594  1.6221
 4039TIP3   OH233531   1.674   4.089  13.465 -0.1306  0.0905 -0.4656
 4039TIP3    H133532   1.592   4.053  13.434 -0.7390  0.9218  0.1231
 4039TIP3    H233533   1.653   4.127  13.550  0.4976  1.6475 -0.9641
 4040TIP3   OH233534   3.997   3.075  14.713  0.2742 -0.2121  0.2518
 4040TIP3    H133535   4.009   3.056  14.620  3.3489 -0.3884  0.5863
 4040TIP3    H233536   4.022   2.994  14.757  0.2704  0.3374  1.2791
 4041TIP3   OH233537   4.192   3.137  14.208 -0.6988  0.3373 -0.0579
 4041TIP3    H133538   4.234   3.223  14.198  0.3808 -0.2790 -1.1635
 4041TIP3    H233539   4.241   3.094  14.278 -0.0380 -0.0249 -0.7154
 4042TIP3   OH233540   4.097   6.406   2.981  0.4383 -0.0356  0.7063
 4042TIP3    H133541   4.146   6.375   2.905 -0.8509  2.5541 -1.3572
 4042TIP3    H233542   4.140   6.365   3.056  3.0845 -1.1093 -1.2403
 4043TIP3   OH233543   2.719   5.844  11.210  0.8299  0.1917 -0.0772
 4043TIP3    H133544   2.789   5.780  11.199 -0.5831 -1.0908 -2.3946
 4043TIP3    H233545   2.656   5.824  11.141 -0.5773  2.9604  0.2222
 4044TIP3   OH233546   1.258   2.542   5.925  0.2496 -0.0825  0.3441
 4044TIP3    H133547   1.179   2.563   5.875  0.7695  0.7265 -0.1617
 4044TIP3    H233548   1.322   2.517   5.859  1.6227  3.0852  0.3059
 4045TIP3   OH233549   2.727   0.110   2.267 -0.3173 -0.4704  0.2357
 4045TIP3    H133550   2.787   0.071   2.331 -0.0286 -2.0414 -0.9380
 4045TIP3    H233551   2.785   0.148   2.201 -0.6113 -1.1326 -0.4047
 4046TIP3   OH233552   3.536   5.757  15.895  0.4209 -0.1588 -0.4453
 4046TIP3    H133553   3.610   5.818  15.895  0.2830  0.0804  1.6097
 4046TIP3    H233554   3.460   5.811  15.875  0.6068 -0.1432 -1.1419
 4047TIP3   OH233555   3.503   1.177  11.471  0.1028  0.4849 -0.5360
 4047TIP3    H133556   3.520   1.269  11.453  1.2838 -0.0193 -2.1581
 4047TIP3    H233557   3.462   1.143  11.392  1.3566 -0.7880 -0.6907
 4048TIP3   OH233558   4.850   2.270   4.541  0.3511 -1.0394  0.2830
 4048TIP3    H133559   4.755   2.274   4.554  0.3601 -0.3220  0.1511
 4048TIP3    H233560   4.877   2.361   4.531  1.3020 -1.0730  2.0956
 4049TIP3   OH233561   3.890   6.482  10.830 -0.5635  0.1914 -0.3267
 4049TIP3    H133562   3.816   6.484  10.891 -0.0190 -2.5701  0.5765
 4049TIP3    H233563   3.902   6.389  10.811  1.3546  0.7455 -2.1298
 4050TIP3   OH233564   1.803   3.690   2.848 -0.0837  0.0952 -0.0820
 4050TIP3    H133565   1.732   3.753   2.861  0.3559  0.5971 -0.0853
 4050TIP3    H233566   1.782   3.649   2.765  0.3325  1.1993 -0.7580
 4051TIP3   OH233567   3.891   0.473  15.765 -0.0483 -0.0729 -0.1926
 4051TIP3    H133568   3.977   0.514  15.771  0.1117 -0.5189  0.6196
 4051TIP3    H233569   3.907   0.379  15.775 -0.8916  0.0111  3.2127
 4052TIP3   OH233570   6.410   4.837   5.139  0.8112  0.2738 -0.5907
 4052TIP3    H133571   6.466   4.760   5.127 -1.8978 -1.6379 -2.0756
 4052TIP3    H233572   6.401   4.846   5.234  2.8789  0.1515 -0.3352
 4053TIP3   OH233573   6.570   1.622  17.214 -0.0747  0.3618 -0.2862
 4053TIP3    H133574   6.617   1.546  17.249  0.7979  0.3333 -1.4154
 4053TIP3    H233575   6.577   1.688  17.282 -0.8048 -0.5461  0.6992
 4054TIP3   OH233576   5.544   5.523   5.776 -0.5289 -0.1684 -0.3426
 4054TIP3    H133577   5.467   5.577   5.757  1.0130  1.4306 -2.5984
 4054TIP3    H233578   5.614   5.562   5.724  1.4693 -2.4958  0.4050
 4055TIP3   OH233579   0.238   1.692   0.941 -0.2586  0.3552  0.5363
 4055TIP3    H133580   0.296   1.768   0.945  0.0599  0.1771 -0.4229
 4055TIP3    H233581   0.202   1.694   0.853 -0.5131 -0.4208  0.6155
 4056TIP3   OH233582   1.971   2.702   2.000  0.4712  0.0724 -1.1873
 4056TIP3    H133583   1.913   2.775   1.980 -0.8357 -0.7642 -0.5796
 4056TIP3    H233584   1.977   2.700   2.095  0.6416 -0.4943 -1.2044
 4057TIP3   OH233585   5.877   6.618  14.087  0.0860  0.0635  0.2310
 4057TIP3    H133586   5.959   6.569  14.095  2.3769  3.6023  0.7867
 4057TIP3    H233587   5.848   6.601  13.998  2.2512 -0.2312 -0.4893
 4058TIP3   OH233588   6.543   0.312  12.724 -0.0660 -0.1693 -0.4469
 4058TIP3    H133589   6.593   0.393  12.717 -0.0677 -0.2935 -2.8227
 4058TIP3    H233590   6.602   0.244  12.693 -0.7079 -0.7739 -0.3733
 4059TIP3   OH233591   6.209   3.075   3.514 -0.3201 -0.0455 -0.4973
 4059TIP3    H133592   6.144   3.143   3.494 -0.3617  0.1591  0.2917
 4059TIP3    H233593   6.190   3.050   3.604 -0.6982 -1.5584 -0.9734
 4060TIP3   OH233594   2.130   6.420  16.946 -0.0638  0.0943  0.1090
 4060TIP3    H133595   2.052   6.365  16.950  0.1455 -0.2306 -0.1572
 4060TIP3    H233596   2.149   6.428  16.853 -0.3353  0.9698  0.1274
 4061TIP3   OH233597   1.050   3.020   3.129  0.3324 -0.0107  0.3992
 4061TIP3    H133598   1.036   2.928   3.154  3.2755 -0.9984 -1.1507
 4061TIP3    H233599   0.999   3.031   3.049  0.9818 -0.7200 -0.1248
 4062TIP3   OH233600   0.756   0.813   2.507 -0.2909  0.1695 -0.2201
 4062TIP3    H133601   0.813   0.888   2.491  0.6186 -0.5681 -0.5480
 4062TIP3    H233602   0.816   0.744   2.538 -1.2293 -0.1395  0.9923
 4063TIP3   OH233603   6.038   2.929  15.898  0.0507 -0.1725  0.4280
 4063TIP3    H133604   5.989   2.875  15.835 -0.5598  0.2246  0.5554
 4063TIP3    H233605   6.045   3.014  15.855 -0.5886  0.1765  0.9901
 4064TIP3   OH233606   6.019   2.183   3.701  0.2798 -0.1303  0.2091
 4064TIP3    H133607   5.969   2.105   3.726  0.8283 -0.1653  1.2565
 4064TIP3    H233608   5.953   2.247   3.675 -0.2230 -0.6524  0.1945
 4065TIP3   OH233609   1.844   4.312  14.638  0.6629 -1.0295  0.2358
 4065TIP3    H133610   1.758   4.351  14.625  0.4076 -0.6594  2.5075
 4065TIP3    H233611   1.900   4.386  14.662  0.7384 -1.6540  2.2099
 4066TIP3   OH233612   3.391   6.122   4.872  0.2807  0.5881 -0.3137
 4066TIP3    H133613   3.312   6.116   4.817 -0.0369  1.5784  0.0064
 4066TIP3    H233614   3.437   6.199   4.839  0.2221  1.0412  0.6303
 4067TIP3   OH233615   4.387   5.029  16.016  0.4500  0.0282  0.4104
 4067TIP3    H133616   4.400   4.945  16.060 -0.1046 -0.5844 -0.5487
 4067TIP3    H233617   4.313   5.068  16.062 -0.1525 -0.6244  0.0165
 4068TIP3   OH233618   1.430   1.387  16.709 -0.2813 -0.0526 -0.3745
 4068TIP3    H133619   1.416   1.478  16.736  0.7860  0.3520 -1.1321
 4068TIP3    H233620   1.358   1.339  16.750 -0.9378  1.1473 -0.0654
 4069TIP3   OH233621   1.396   3.066  16.793 -0.4225 -0.1554 -0.7899
 4069TIP3    H133622   1.414   3.086  16.701  0.4474 -0.3457 -0.6704
 4069TIP3    H233623   1.406   2.971  16.799  0.1935 -0.0699 -0.3658
 4070TIP3   OH233624   3.099   0.348  12.387  0.3426  0.2234  0.0591
 4070TIP3    H133625   3.191   0.323  12.390  0.5558  0.7762 -1.1770
 4070TIP3    H233626   3.101   0.444  12.381 -0.2286  0.1592 -1.8096
 4071TIP3   OH233627   1.681   4.535  15.585 -0.2167 -0.2702 -0.4941
 4071TIP3    H133628   1.722   4.596  15.645  0.0122 -1.6768  0.8487
 4071TIP3    H233629   1.587   4.552  15.593 -0.2484 -0.9811  0.9213
 4072TIP3   OH233630   1.342   2.793  13.125  0.5649  0.3677 -0.8269
 4072TIP3    H133631   1.371   2.833  13.042  0.5806  0.4344 -0.7897
 4072TIP3    H233632   1.324   2.702  13.102 -1.2987  0.8192 -1.3554
 4073TIP3   OH233633   4.920   4.302  14.313 -0.7546  0.0825  0.0170
 4073TIP3    H133634   4.959   4.386  14.335 -1.4172  0.9383 -1.8572
 4073TIP3    H233635   4.832   4.323  14.283 -1.3369 -1.4172  0.5221
 4074TIP3   OH233636   5.140   5.404  14.224 -0.1124  0.2002  0.1340
 4074TIP3    H133637   5.187   5.320  14.225 -0.4627  0.0088  0.6546
 4074TIP3    H233638   5.060   5.386  14.175  0.8847  0.8305 -1.8385
 4075TIP3   OH233639   3.327   1.924  13.415 -0.3205 -0.1526  0.2593
 4075TIP3    H133640   3.253   1.892  13.466  0.0485 -0.3089  0.7067
 4075TIP3    H233641   3.357   1.848  13.365  0.4630 -0.4780  1.2088
 4076TIP3   OH233642   0.720   0.757  11.673 -0.1326 -0.0171  0.1194
 4076TIP3    H133643   0.700   0.674  11.631 -0.5617  0.6264 -0.9997
 4076TIP3    H233644   0.682   0.823  11.615 -1.7502  0.8844  2.0963
 4077TIP3   OH233645   4.210   3.769   1.594 -0.1716 -0.6022 -0.3033
 4077TIP3    H133646   4.220   3.733   1.682 -3.6899 -1.7354 -0.2063
 4077TIP3    H233647   4.178   3.858   1.608 -1.4793 -1.0401 -0.3620
 4078TIP3   OH233648   4.433   2.519   0.395  0.0905  0.1902  0.0222
 4078TIP3    H133649   4.369   2.467   0.444 -2.2047  1.9794 -0.9059
 4078TIP3    H233650   4.463   2.585   0.458  0.9663 -0.5339  0.4002
 4079TIP3   OH233651   6.232   5.146   1.197  0.0424 -0.4509  0.3608
 4079TIP3    H133652   6.253   5.077   1.260 -0.1063 -1.3327 -0.5324
 4079TIP3    H233653   6.223   5.225   1.250  0.5814 -1.0422  1.3629
 4080TIP3   OH233654   4.506   2.127   3.507  0.0826  0.1654 -0.4269
 4080TIP3    H133655   4.555   2.194   3.461  0.2361  0.3159 -0.0515
 4080TIP3    H233656   4.536   2.134   3.598  2.1088 -2.1879 -0.8155
 4081TIP3   OH233657   3.107   3.782   0.779  0.1711  0.5644 -0.0181
 4081TIP3    H133658   3.105   3.688   0.796  2.8428  0.5794  0.8197
 4081TIP3    H233659   3.109   3.823   0.865 -2.2838  1.5459 -0.3288
 4082TIP3   OH233660   1.036   4.747   0.329 -0.5125 -0.2570  0.4607
 4082TIP3    H133661   1.088   4.810   0.378  0.0665 -1.6653  1.7401
 4082TIP3    H233662   1.099   4.679   0.304 -1.0379 -0.1686 -1.2307
 4083TIP3   OH233663   5.823   1.427  16.076  0.1341 -0.4841 -0.6791
 4083TIP3    H133664   5.741   1.440  16.124 -1.0674  0.1851 -2.7476
 4083TIP3    H233665   5.892   1.439  16.142 -1.4085 -1.3462  1.1907
 4084TIP3   OH233666   4.152   5.713   5.642 -0.1576 -0.3801 -0.0334
 4084TIP3    H133667   4.226   5.657   5.667  0.0422 -0.1626 -0.1430
 4084TIP3    H233668   4.089   5.702   5.714 -0.3076 -1.0883 -0.2619
 4085TIP3   OH233669   0.770   2.120   0.567  0.4560  0.0742 -0.2913
 4085TIP3    H133670   0.717   2.198   0.553  1.1281  0.4603 -0.7430
 4085TIP3    H233671   0.818   2.109   0.486  0.4308 -0.7713 -0.2023
 4086TIP3   OH233672   0.814   2.170   4.558  0.2572 -0.0401  0.1921
 4086TIP3    H133673   0.741   2.124   4.599 -0.2880  0.8132  0.1955
 4086TIP3    H233674   0.892   2.120   4.583 -0.3808 -1.3794 -0.3943
 4087TIP3   OH233675   4.028   2.026   0.342  0.1851 -0.1170  0.2720
 4087TIP3    H133676   3.998   2.067   0.261  3.2181  2.1445  0.0890
 4087TIP3    H233677   4.058   1.939   0.316 -1.1440 -0.3833 -0.4737
 4088TIP3   OH233678   2.236   6.178  10.761 -0.0680  0.0828  0.3453
 4088TIP3    H133679   2.155   6.129  10.749  0.1793 -0.0252 -1.1284
 4088TIP3    H233680   2.269   6.150  10.846 -1.7518  0.4196  1.1480
 4089TIP3   OH233681   6.192   3.628  11.345  0.2507 -0.0285 -0.4202
 4089TIP3    H133682   6.127   3.561  11.366 -0.2685  1.0606  1.7923
 4089TIP3    H233683   6.214   3.666  11.430  2.7657  0.5867 -1.2815
 4090TIP3   OH233684   2.528   3.447  16.792 -0.0546  0.1273  0.6911
 4090TIP3    H133685   2.464   3.518  16.804  1.7402  1.9174  0.1695
 4090TIP3    H233686   2.546   3.446  16.698  1.5353  0.4821  0.9665
 4091TIP3   OH233687   0.278   6.078   0.868 -0.1304 -0.0662  0.0288
 4091TIP3    H133688   0.361   6.044   0.834  0.0106 -0.8830  1.1168
 4091TIP3    H233689   0.304   6.148   0.928 -0.2179 -0.4464  0.5115
 4092TIP3   OH233690   5.698   3.830  12.137  0.6253  0.2352  0.1732
 4092TIP3    H133691   5.692   3.738  12.165  0.2008  0.4181  0.6985
 4092TIP3    H233692   5.718   3.878  12.217 -1.6272  0.8904  0.3906
 4093TIP3   OH233693   0.431   0.020  16.869  0.0557  0.6676 -0.6393
 4093TIP3    H133694   0.401   0.026  16.960  0.7643 -0.4439 -0.3180
 4093TIP3    H233695   0.498   0.088  16.861  1.0140 -0.1632  0.1013
 4094TIP3   OH233696   4.980   0.985   2.726 -0.1149  0.6553 -0.4107
 4094TIP3    H133697   5.059   1.000   2.674 -0.6869  0.5548 -1.3353
 4094TIP3    H233698   4.910   0.974   2.661 -0.5967 -0.9964  0.3324
 4095TIP3   OH233699   3.742   3.259   6.458 -0.2183  0.2485  0.6575
 4095TIP3    H133700   3.829   3.298   6.448 -0.4217  0.4353 -0.4787
 4095TIP3    H233701   3.695   3.282   6.378 -0.1005 -2.9464 -0.5016
 4096TIP3   OH233702   1.223   3.767  17.125 -0.1343  0.2247 -0.1199
 4096TIP3    H133703   1.305   3.720  17.115 -1.5714 -2.4513 -0.4194
 4096TIP3    H233704   1.168   3.709  17.178 -2.3041  1.2071 -1.1402
 4097TIP3   OH233705   2.666   5.188   1.580  0.3348 -0.0231  0.5278
 4097TIP3    H133706   2.752   5.225   1.561 -0.2387  1.3210  0.4049
 4097TIP3    H233707   2.681   5.094   1.592  1.4991 -0.1785 -1.6456
 4098TIP3   OH233708   6.023   4.882  12.688  0.3762 -0.3864 -0.0407
 4098TIP3    H133709   6.095   4.935  12.722  1.1890 -1.9429  0.7903
 4098TIP3    H233710   5.998   4.825  12.761 -0.2979 -1.2993 -0.9445
 4099TIP3   OH233711   1.319   5.092  14.138  1.1297  0.0223 -0.8269
 4099TIP3    H133712   1.298   5.094  14.231  3.3131  1.7579 -0.2881
 4099TIP3    H233713   1.234   5.099  14.094  0.1128 -0.0993  1.0234
 4100TIP3   OH233714   5.341   4.958   2.453 -0.5015 -0.0197  0.2931
 4100TIP3    H133715   5.328   4.865   2.473 -1.3553  0.4380  2.0532
 4100TIP3    H233716   5.400   4.990   2.521 -1.1109  0.9586  0.3929
 4101TIP3   OH233717   0.589   3.282  15.049 -0.2874  0.4589  0.3233
 4101TIP3    H133718   0.525   3.223  15.089  2.4033 -1.1867  2.6103
 4101TIP3    H233719   0.650   3.224  15.003  0.9234  1.7205  0.2607
 4102TIP3   OH233720   0.714   5.342   1.633 -0.0322 -0.1457 -0.3008
 4102TIP3    H133721   0.785   5.287   1.668 -0.8861 -0.9136  0.2802
 4102TIP3    H233722   0.698   5.307   1.545  1.0123  0.7283 -0.8667
 4103TIP3   OH233723   4.339   5.573  15.871  0.5932  0.3073  0.1110
 4103TIP3    H133724   4.432   5.568  15.849  0.4666  1.0310 -0.6307
 4103TIP3    H233725   4.294   5.541  15.793  0.1888  0.9866  0.0615
 4104TIP3   OH233726   6.620   3.351  11.577  0.4142  0.1946  0.4443
 4104TIP3    H133727   6.585   3.265  11.554 -0.9201 -0.5851  4.5722
 4104TIP3    H233728   6.546   3.410  11.564  1.1059  0.6700 -1.6531
 4105TIP3   OH233729   3.185   5.666  13.251  0.0575  0.4501  0.8373
 4105TIP3    H133730   3.162   5.577  13.278  1.2733 -0.2305 -0.2274
 4105TIP3    H233731   3.252   5.694  13.313 -1.6057  1.3708  2.2846
 4106TIP3   OH233732   1.553   1.137  12.615  0.3611 -0.3538  0.0051
 4106TIP3    H133733   1.534   1.231  12.617  2.2417  0.0558  0.6142
 4106TIP3    H233734   1.516   1.107  12.532 -0.2525  0.9284 -0.2113
 4107TIP3   OH233735   3.076   5.497  12.724 -0.2603 -0.0654 -0.2515
 4107TIP3    H133736   3.051   5.405  12.714 -1.4236  0.2326 -0.2766
 4107TIP3    H233737   3.003   5.545  12.684 -1.3965  0.9590  2.8316
 4108TIP3   OH233738   1.424   3.704   5.958  0.1556 -0.2180  0.0855
 4108TIP3    H133739   1.386   3.626   5.916 -1.7438  1.2208 -1.0642
 4108TIP3    H233740   1.505   3.673   5.997 -0.0360 -2.5672 -1.1716
 4109TIP3   OH233741   3.120   1.949  12.333  0.2507  0.0659 -0.1202
 4109TIP3    H133742   3.141   1.855  12.327  0.9047  0.2830 -1.7567
 4109TIP3    H233743   3.204   1.993  12.320 -0.4306  0.8880 -2.2518
 4110TIP3   OH233744   2.453   2.187   1.508  0.0128  0.2575 -0.4502
 4110TIP3    H133745   2.506   2.107   1.515  0.4198  0.6446  1.3793
 4110TIP3    H233746   2.484   2.229   1.428 -0.5785 -1.6311 -1.7680
 4111TIP3   OH233747   1.577   5.059   5.692 -0.8107  0.1540 -0.5884
 4111TIP3    H133748   1.557   4.970   5.663 -0.0857 -0.2590  0.1098
 4111TIP3    H233749   1.650   5.086   5.638  0.6340 -0.6702  0.8571
 4112TIP3   OH233750   5.688   3.969  11.112 -0.0877  0.2299  0.2166
 4112TIP3    H133751   5.745   4.029  11.161  1.6602  1.1341 -2.7183
 4112TIP3    H233752   5.681   3.892  11.169  2.6695  0.7928  1.4959
 4113TIP3   OH233753   4.467   3.150   5.629 -0.6054  0.6035 -0.2958
 4113TIP3    H133754   4.555   3.116   5.643 -0.7404 -0.3884 -1.6138
 4113TIP3    H233755   4.410   3.083   5.668 -0.8053  0.9028 -0.0676
 4114TIP3   OH233756   2.220   6.339   0.258 -0.0601 -0.0096 -0.3501
 4114TIP3    H133757   2.139   6.288   0.258  0.5178 -1.0491  2.1220
 4114TIP3    H233758   2.268   6.309   0.335  1.6347  2.2435 -0.4096
 4115TIP3   OH233759   5.044   2.000   2.851  0.5068  0.3185  0.2071
 4115TIP3    H133760   5.019   2.034   2.937 -0.8062  0.2467 -0.1285
 4115TIP3    H233761   5.136   2.027   2.841  0.6428  0.4473  1.5571
 4116TIP3   OH233762   0.079   4.899  15.118 -0.3056 -0.0265 -0.4156
 4116TIP3    H133763   0.063   4.819  15.069  0.4522 -0.1525 -0.4723
 4116TIP3    H233764   0.036   4.968  15.067  0.6227 -0.1259 -1.3875
 4117TIP3   OH233765   5.124   6.065   6.807  0.3711 -0.1520  0.1451
 4117TIP3    H133766   5.092   6.138   6.755  0.5969 -0.4224 -0.3864
 4117TIP3    H233767   5.178   6.014   6.746 -0.2625 -1.0894  0.3414
 4118TIP3   OH233768   0.777   4.216  13.739  0.0199 -0.7272 -0.4134
 4118TIP3    H133769   0.802   4.300  13.703  0.8088 -1.6990 -2.2213
 4118TIP3    H233770   0.808   4.218  13.830  0.1254  0.8521 -0.4690
 4119TIP3   OH233771   0.657   6.062   1.056 -0.5676  0.0351 -0.2958
 4119TIP3    H133772   0.616   5.980   1.026 -0.3659 -0.0701 -0.2853
 4119TIP3    H233773   0.670   6.049   1.150 -0.1367 -0.0963 -0.3694
 4120TIP3   OH233774   6.134   3.614   3.798  0.5316 -0.0846  0.0513
 4120TIP3    H133775   6.203   3.672   3.764  1.0153 -0.3540  0.5652
 4120TIP3    H233776   6.173   3.574   3.876 -0.5946  0.6116  1.0015
 4121TIP3   OH233777   1.017   2.635   2.179 -0.0471  0.4907  0.0758
 4121TIP3    H133778   0.942   2.669   2.229  0.7539  0.8691  1.0682
 4121TIP3    H233779   1.061   2.714   2.146  1.6122  0.5082  2.0778
 4122TIP3   OH233780   5.876   0.929  12.271  0.3206 -0.3698 -0.9283
 4122TIP3    H133781   5.830   0.980  12.204 -0.2769 -0.9520 -0.9648
 4122TIP3    H233782   5.810   0.869  12.305  0.3407  0.5181  0.8242
 4123TIP3   OH233783   4.365   0.543   2.553  0.3199  0.0769  0.1699
 4123TIP3    H133784   4.442   0.597   2.571  0.8269  0.4215 -2.5290
 4123TIP3    H233785   4.315   0.594   2.488 -0.7465 -1.3675 -0.2017
 4124TIP3   OH233786   4.682   0.550  11.648  0.1521  0.4255 -0.7252
 4124TIP3    H133787   4.596   0.578  11.679  1.0036 -0.3186  2.8330
 4124TIP3    H233788   4.744   0.606  11.695  1.6817 -2.7791  1.4827
 4125TIP3   OH233789   5.086   3.521   1.750  0.3625 -0.6515  0.0984
 4125TIP3    H133790   5.097   3.441   1.697  0.0797  0.8369 -2.3641
 4125TIP3    H233791   5.008   3.504   1.803 -0.7628 -1.3943 -1.6851
 4126TIP3   OH233792   5.693   1.125  15.942  0.3265 -0.1907 -0.1508
 4126TIP3    H133793   5.685   1.102  16.034  0.1198 -0.5060 -0.2463
 4126TIP3    H233794   5.623   1.188  15.926  0.5904  0.1458 -0.0085
 4127TIP3   OH233795   1.512   3.828   2.018  0.0493 -0.1023  0.0552
 4127TIP3    H133796   1.521   3.923   2.011 -1.0173 -0.0632 -1.1220
 4127TIP3    H233797   1.600   3.794   2.003  0.9236  0.7418  2.6902
 4128TIP3   OH233798   4.033   2.662   1.642  0.1756 -0.2537  0.4099
 4128TIP3    H133799   3.995   2.609   1.572  1.0894 -0.1621 -0.1639
 4128TIP3    H233800   4.111   2.614   1.670  0.8398  0.6118  0.0961
 4129TIP3   OH233801   5.095   1.656   4.917 -0.4101 -0.4049  0.3838
 4129TIP3    H133802   5.176   1.686   4.877 -0.4159 -1.9068 -0.8651
 4129TIP3    H233803   5.123   1.604   4.992 -0.4136  2.9552  2.9197
 4130TIP3   OH233804   2.813   5.643  10.373  0.9365 -0.0991  0.5881
 4130TIP3    H133805   2.871   5.567  10.382  0.7385 -0.2112  0.9273
 4130TIP3    H233806   2.739   5.624  10.430  0.3928 -0.1147 -0.1046
 4131TIP3   OH233807   1.019   6.114  15.519 -0.4946 -0.3751 -0.6381
 4131TIP3    H133808   0.951   6.180  15.506 -1.1232 -0.7341  0.6269
 4131TIP3    H233809   0.979   6.032  15.489  0.5028 -0.1205 -2.7866
 4132TIP3   OH233810   2.322   1.887   4.634 -0.1487  0.0943 -0.1167
 4132TIP3    H133811   2.235   1.883   4.595 -1.2853 -0.9656  2.3348
 4132TIP3    H233812   2.361   1.966   4.597 -1.8589  0.2353 -1.7982
 4133TIP3   OH233813   6.459   0.165  16.226 -0.1401 -0.5542  0.6125
 4133TIP3    H133814   6.418   0.091  16.181 -0.9750 -1.1742  2.3339
 4133TIP3    H233815   6.547   0.135  16.246  0.0107 -0.5259  0.0121
 4134TIP3   OH233816   4.793   3.259  11.520  0.1956 -0.2098 -0.2892
 4134TIP3    H133817   4.850   3.336  11.517 -1.2806  0.9017 -1.2608
 4134TIP3    H233818   4.761   3.249  11.430 -0.0220 -1.6894 -0.0779
 4135TIP3   OH233819   6.728   3.943  16.309 -0.6148  0.0817  0.1008
 4135TIP3    H133820   6.683   3.879  16.254 -0.5486  0.6284 -0.5969
 4135TIP3    H233821   6.686   4.027  16.289 -0.9287  0.2255  1.2519
 4136TIP3   OH233822   3.751   3.266   2.247 -0.3667  0.1265 -0.3765
 4136TIP3    H133823   3.838   3.305   2.241  0.9691 -2.3744  0.8728
 4136TIP3    H233824   3.710   3.308   2.322  0.3191  0.3660 -0.1336
 4137TIP3   OH233825   2.361   5.908  16.703 -0.1810 -0.6147 -0.2374
 4137TIP3    H133826   2.326   5.878  16.787  0.1212  0.4195  0.2794
 4137TIP3    H233827   2.419   5.838  16.675 -0.0033 -0.8188  0.6083
 4138TIP3   OH233828   2.138   4.155   2.138 -0.0560 -0.4335 -0.5444
 4138TIP3    H133829   2.206   4.138   2.203  0.3268  0.0270 -0.8226
 4138TIP3    H233830   2.068   4.093   2.160 -0.0263 -0.1368  0.4397
 4139TIP3   OH233831   0.844   0.758   5.662 -0.5810 -0.3978 -0.2612
 4139TIP3    H133832   0.880   0.670   5.658  1.1539  0.2692 -0.4718
 4139TIP3    H233833   0.756   0.751   5.625 -0.5830 -2.0643 -0.0036
 4140TIP3   OH233834   2.541   4.618  14.693  0.1881 -0.0715 -0.7132
 4140TIP3    H133835   2.491   4.677  14.636  0.7192  1.7338  0.6015
 4140TIP3    H233836   2.476   4.583  14.754  0.1847  0.8431 -0.1673
 4141TIP3   OH233837   0.504   6.285   6.061  0.7096  0.5884 -0.3664
 4141TIP3    H133838   0.536   6.360   6.111 -0.6950  1.7383 -1.1169
 4141TIP3    H233839   0.500   6.316   5.970 -0.7800 -0.0662 -0.5541
 4142TIP3   OH233840   2.415   5.535  12.040 -0.0144  0.0106 -0.2177
 4142TIP3    H133841   2.464   5.571  11.967 -0.7843 -1.0252 -1.2724
 4142TIP3    H233842   2.339   5.593  12.049 -0.4905 -0.4900 -0.9619
 4143TIP3   OH233843   1.702   5.845   3.606  0.5212 -0.0274  0.6985
 4143TIP3    H133844   1.769   5.878   3.666  2.5535 -1.0042 -0.9182
 4143TIP3    H233845   1.726   5.754   3.590 -1.8292 -0.7466  0.8337
 4144TIP3   OH233846   3.045   1.899  11.013 -0.3906 -0.2528 -0.3823
 4144TIP3    H133847   3.070   1.986  10.981  0.9224 -0.7554 -0.7756
 4144TIP3    H233848   3.021   1.850  10.934 -0.8788 -0.3461 -0.1860
 4145TIP3   OH233849   4.943   1.378   5.346 -0.4102 -0.0506  0.3436
 4145TIP3    H133850   4.860   1.397   5.390  0.4935  0.5648  1.8454
 4145TIP3    H233851   4.999   1.453   5.367  0.7288 -0.7457 -0.1371
 4146TIP3   OH233852   3.201   4.753   2.266 -0.0399 -0.0396 -0.0568
 4146TIP3    H133853   3.149   4.709   2.334 -1.0222  1.7963  0.4294
 4146TIP3    H233854   3.212   4.686   2.198 -1.2318 -1.1311  0.7669
 4147TIP3   OH233855   4.061   4.006   3.064 -0.5365  0.4064  0.0927
 4147TIP3    H133856   4.092   4.027   3.152  0.3491  1.6289 -0.4790
 4147TIP3    H233857   4.137   4.021   3.008 -0.8940 -1.0234 -0.8075
 4148TIP3   OH233858   5.007   4.189   5.136 -0.2858 -0.2955 -0.0891
 4148TIP3    H133859   5.081   4.130   5.148 -1.3489 -1.4674  0.9784
 4148TIP3    H233860   5.015   4.253   5.207 -0.9762 -1.2023  0.8425
 4149TIP3   OH233861   1.858   2.043   1.867  0.2421  0.0031 -0.2198
 4149TIP3    H133862   1.881   2.050   1.775  2.3939  0.6163  0.3228
 4149TIP3    H233863   1.890   2.124   1.907  0.8969 -0.9749  1.3437
 4150TIP3   OH233864   4.196   5.891  15.243  0.1741  0.5427  0.1245
 4150TIP3    H133865   4.164   5.959  15.303 -0.3617 -0.1645  0.6650
 4150TIP3    H233866   4.179   5.926  15.156 -1.2960  0.5776  0.3993
 4151TIP3   OH233867   5.682   3.679   1.138 -0.6233 -0.0259  0.4274
 4151TIP3    H133868   5.654   3.769   1.121  1.4418  0.2475 -2.4715
 4151TIP3    H233869   5.637   3.627   1.072  1.4956 -0.3358 -0.8804
 4152TIP3   OH233870   4.096   3.177  17.135  0.0009 -0.1121 -0.5658
 4152TIP3    H133871   4.157   3.250  17.143 -0.2093  0.1327 -1.1648
 4152TIP3    H233872   4.010   3.218  17.128 -0.1725 -0.4355 -0.3842
 4153TIP3   OH233873   2.975   3.722  13.010  0.4788  0.4912  0.2668
 4153TIP3    H133874   2.886   3.741  13.040  0.5542  2.0092 -0.3977
 4153TIP3    H233875   3.014   3.808  12.992  1.5777 -0.1983 -0.8732
 4154TIP3   OH233876   0.978   1.075   5.260  0.1094 -0.1283  0.4739
 4154TIP3    H133877   0.972   1.000   5.200 -1.8291  0.3097  0.0668
 4154TIP3    H233878   0.977   1.036   5.347 -2.9536 -0.5884  0.3421
 4155TIP3   OH233879   1.409   0.255   4.073  0.2793 -0.6129 -0.1286
 4155TIP3    H133880   1.321   0.290   4.060 -0.0448 -1.5178 -0.4201
 4155TIP3    H233881   1.408   0.220   4.162  0.0290 -1.5254 -0.4881
 4156TIP3   OH233882   0.715   0.579   2.694 -0.1302 -0.2727  0.1739
 4156TIP3    H133883   0.693   0.497   2.739 -0.9457 -0.7467 -1.0518
 4156TIP3    H233884   0.631   0.617   2.671  0.2507 -0.3134 -1.4055
 4157TIP3   OH233885   0.085   6.347   5.886  0.1678 -0.4887 -0.7254
 4157TIP3    H133886   0.009   6.295   5.913 -0.2141  0.2827 -0.2630
 4157TIP3    H233887   0.125   6.296   5.816 -1.4555 -0.3869 -1.7975
 4158TIP3   OH233888   1.187   4.842   5.199 -0.6115 -0.7166  0.1232
 4158TIP3    H133889   1.278   4.864   5.176 -0.9139 -0.4172 -0.8717
 4158TIP3    H233890   1.164   4.906   5.266 -0.8251  0.7891 -1.3149
 4159TIP3   OH233891   1.469   0.779   4.105  0.4606 -0.2169  0.1661
 4159TIP3    H133892   1.555   0.821   4.118  0.3649 -0.0362  0.2186
 4159TIP3    H233893   1.472   0.702   4.161  1.6135 -1.7169 -1.8313
 4160TIP3   OH233894   2.069   2.260  16.461 -0.5121 -0.0182 -0.0927
 4160TIP3    H133895   2.128   2.331  16.487 -0.6287  0.2514 -0.5635
 4160TIP3    H233896   2.119   2.180  16.480  0.0510  0.2096 -0.5859
 4161TIP3   OH233897   1.875   1.433   1.878  0.5355  0.5139 -0.6319
 4161TIP3    H133898   1.939   1.485   1.926 -0.9732  1.3935  0.5191
 4161TIP3    H233899   1.795   1.486   1.878 -1.1772 -1.8241  0.8200
 4162TIP3   OH233900   1.132   3.535  14.128  0.3441  0.7676  0.2231
 4162TIP3    H133901   1.155   3.548  14.220  1.7106  0.2937 -0.0251
 4162TIP3    H233902   1.127   3.624  14.092  0.9762  0.9193  0.4933
 4163TIP3   OH233903   5.622   5.740  14.076 -0.0481 -0.7939 -0.1881
 4163TIP3    H133904   5.634   5.814  14.016 -1.6285 -0.4775 -0.1757
 4163TIP3    H233905   5.604   5.666  14.018  0.1767 -0.8647 -0.1653
 4164TIP3   OH233906   4.801   3.984   4.787  0.2120  0.0321  0.2531
 4164TIP3    H133907   4.730   4.046   4.796 -0.2655 -0.4085 -0.3889
 4164TIP3    H233908   4.758   3.899   4.778  0.7282 -0.0627 -1.7969
 4165TIP3   OH233909   3.636   1.452   6.391  0.9225  0.3074  0.7071
 4165TIP3    H133910   3.675   1.538   6.406  0.6196  0.7383 -0.7452
 4165TIP3    H233911   3.707   1.399   6.354  0.7433  0.4041  0.2039
 4166TIP3   OH233912   6.422   4.744   4.867  0.0636 -0.8919 -0.1331
 4166TIP3    H133913   6.338   4.711   4.837  0.1994 -0.5080 -0.9483
 4166TIP3    H233914   6.415   4.743   4.963 -1.1475 -0.1704 -0.1882
 4167TIP3   OH233915   2.651   6.227  12.301 -0.4664  0.8420  0.1279
 4167TIP3    H133916   2.575   6.244  12.357  0.3146  2.0035  0.8884
 4167TIP3    H233917   2.688   6.314  12.286  0.9574  0.2466  0.1298
 4168TIP3   OH233918   4.601   2.735   5.053  0.2444 -0.2457  0.0102
 4168TIP3    H133919   4.577   2.787   4.976 -1.2542  0.6034  0.9957
 4168TIP3    H233920   4.520   2.692   5.079  0.8149 -0.8071  0.9134
 4169TIP3   OH233921   0.353   0.477   0.836  0.0663 -0.3283  0.1284
 4169TIP3    H133922   0.407   0.538   0.886 -1.0906  0.9787 -0.1418
 4169TIP3    H233923   0.268   0.479   0.881 -0.6578  0.0247 -1.2213
 4170TIP3   OH233924   0.578   6.194  11.480  0.1747  0.5442 -0.0009
 4170TIP3    H133925   0.619   6.121  11.432  0.1503  0.5136  0.0242
 4170TIP3    H233926   0.535   6.245  11.412 -1.5418 -0.5780  0.1748
 4171TIP3   OH233927   2.625   4.476   1.667  0.1629 -0.0118  0.0906
 4171TIP3    H133928   2.577   4.479   1.750  0.0040 -3.4956  0.2392
 4171TIP3    H233929   2.717   4.472   1.693  0.1886  0.0956  0.0198
 4172TIP3   OH233930   4.619   4.184   4.866  0.6016 -0.7059  0.4162
 4172TIP3    H133931   4.559   4.115   4.893 -0.7660  0.3533  0.2105
 4172TIP3    H233932   4.609   4.252   4.932  1.2618 -0.3233  0.1342
 4173TIP3   OH233933   1.508   2.408  15.918  0.4569  0.7981  0.1130
 4173TIP3    H133934   1.537   2.453  15.839  2.2276 -1.8647 -0.9122
 4173TIP3    H233935   1.589   2.389  15.966 -0.3588  0.2266  1.3396
 4174TIP3   OH233936   4.998   5.944   0.625  0.2596  0.5623  0.6900
 4174TIP3    H133937   4.997   5.908   0.537 -1.4103  0.9336  0.5099
 4174TIP3    H233938   4.933   5.891   0.673 -1.1812  2.3241  0.8052
 4175TIP3   OH233939   5.100   2.747  16.010 -0.0849  0.6175 -0.5715
 4175TIP3    H133940   5.049   2.671  16.038 -0.8147  1.9622  2.0449
 4175TIP3    H233941   5.190   2.726  16.035 -0.2215  0.4789 -0.1977
 4176TIP3   OH233942   3.054   6.355   2.806  0.3463 -0.0938 -0.2310
 4176TIP3    H133943   3.059   6.428   2.868 -1.3374 -0.1012 -0.0398
 4176TIP3    H233944   3.001   6.289   2.851 -1.2813  0.0631 -1.8004
 4177TIP3   OH233945   2.833   4.679  12.165  0.2923  0.0504 -0.5255
 4177TIP3    H133946   2.874   4.598  12.194 -1.5704 -0.5079  0.7769
 4177TIP3    H233947   2.745   4.652  12.137 -0.5371  1.6664  0.3825
 4178TIP3   OH233948   5.863   4.625   3.355  0.0442 -0.0721 -0.2399
 4178TIP3    H133949   5.773   4.632   3.321 -0.1323  0.5605  0.3198
 4178TIP3    H233950   5.892   4.716   3.362  0.3180 -0.2225  0.6548
 4179TIP3   OH233951   5.413   4.422  16.386 -0.0236  0.0230  0.5451
 4179TIP3    H133952   5.371   4.505  16.363 -0.0821 -0.1132  0.1531
 4179TIP3    H233953   5.436   4.431  16.479 -0.4414  0.3013  0.6217
 4180TIP3   OH233954   1.093   0.849   0.134 -0.2130 -0.1995 -0.3242
 4180TIP3    H133955   1.029   0.870   0.066  0.8562  0.3408 -1.1793
 4180TIP3    H233956   1.093   0.926   0.191  1.1056  0.6682 -1.4513
 4181TIP3   OH233957   4.211   4.130  11.400  0.0951 -0.1660  0.0595
 4181TIP3    H133958   4.247   4.087  11.477 -1.8041 -0.5662  0.7970
 4181TIP3    H233959   4.222   4.224  11.417  1.1823 -0.2848  0.0323
 4182TIP3   OH233960   5.101   2.852   5.961 -1.0615 -0.0537 -0.7609
 4182TIP3    H133961   5.179   2.804   5.987 -0.0276  0.8461 -2.0462
 4182TIP3    H233962   5.123   2.944   5.975 -1.9388  0.2106 -1.0294
 4183TIP3   OH233963   1.903   4.073  12.798  0.2205  0.3475  0.2717
 4183TIP3    H133964   1.936   4.112  12.717  0.3812  0.3716  0.3476
 4183TIP3    H233965   1.978   4.026  12.834  0.3904  1.0333  0.8368
 4184TIP3   OH233966   6.182   4.801  12.918 -0.0316 -0.2836  0.2041
 4184TIP3    H133967   6.092   4.811  12.951 -0.0028 -1.2032  0.5860
 4184TIP3    H233968   6.232   4.868  12.966 -0.7569  1.3001 -1.1239
 4185TIP3   OH233969   4.439   2.596  11.860  0.3327  0.1391  0.6909
 4185TIP3    H133970   4.451   2.507  11.892  1.9620  0.6397  1.5861
 4185TIP3    H233971   4.348   2.617  11.880  0.3307 -0.8300  1.7826
 4186TIP3   OH233972   4.136   1.856  13.347 -0.0879  0.7100  0.6055
 4186TIP3    H133973   4.219   1.808  13.350  0.6993  1.9297 -0.6221
 4186TIP3    H233974   4.140   1.906  13.265 -1.3641  1.9624  1.2654
 4187TIP3   OH233975   0.731   3.378   3.050 -0.1327 -0.3486  0.9196
 4187TIP3    H133976   0.743   3.469   3.079  0.4433 -0.5156  1.2119
 4187TIP3    H233977   0.773   3.325   3.117 -0.0793 -0.8149  0.5258
 4188TIP3   OH233978   5.577   1.076   1.553  0.2253  0.4164  0.1813
 4188TIP3    H133979   5.503   1.072   1.493  0.4661  0.7892 -0.1401
 4188TIP3    H233980   5.550   1.021   1.627 -1.0121  1.7379  0.7750
 4189TIP3   OH233981   2.658   5.288  16.829 -0.2035  0.8753  0.5263
 4189TIP3    H133982   2.712   5.347  16.777 -0.9639  1.3698  0.2801
 4189TIP3    H233983   2.588   5.344  16.864 -1.4838 -0.0331 -0.4757
 4190TIP3   OH233984   3.742   0.031   2.050 -0.1819  0.0385  0.7600
 4190TIP3    H133985   3.681  -0.042   2.054  1.1505 -1.1332  0.3092
 4190TIP3    H233986   3.828  -0.008   2.065  0.5007  1.6112  1.1512
 4191TIP3   OH233987   1.788   4.503  12.923 -0.6612  0.2649  0.5038
 4191TIP3    H133988   1.847   4.485  12.851 -0.1379  0.9762  0.7502
 4191TIP3    H233989   1.802   4.430  12.984 -0.6151  0.0233  0.2066
 4192TIP3   OH233990   2.205   0.333  11.795  0.1582  0.2214 -0.0742
 4192TIP3    H133991   2.173   0.247  11.767  0.4810  0.2258 -0.4617
 4192TIP3    H233992   2.220   0.381  11.714 -0.2357  0.7289  0.1444
 4193TIP3   OH233993   0.242   1.252  13.143  0.3301 -0.2995  0.6373
 4193TIP3    H133994   0.330   1.220  13.120  0.7098  0.7659  0.5442
 4193TIP3    H233995   0.245   1.345  13.121 -0.1604  0.1859  2.5349
 4194TIP3   OH233996   6.201   3.057  14.881 -0.1096 -0.1979  0.0136
 4194TIP3    H133997   6.227   3.086  14.794  0.5135  0.8422  0.5223
 4194TIP3    H233998   6.108   3.079  14.888 -0.5505 -1.6257 -0.8995
 4195TIP3   OH233999   3.287   0.729   0.840  0.4079  0.5432 -0.0940
 4195TIP3    H134000   3.243   0.703   0.921 -0.1310 -0.3129 -0.6517
 4195TIP3    H234001   3.240   0.682   0.771  2.3203 -0.5671 -0.6947
 4196TIP3   OH234002   5.279   2.793  14.420  0.5018  0.0038  0.5303
 4196TIP3    H134003   5.314   2.830  14.501  1.6730 -1.0280  0.5217
 4196TIP3    H234004   5.184   2.795  14.432  0.3665  3.9525  0.0957
 4197TIP3   OH234005   2.495   0.070  14.254 -0.2701 -0.3128  0.0387
 4197TIP3    H134006   2.460   0.157  14.231 -0.3241  0.2619  2.0860
 4197TIP3    H234007   2.496   0.070  14.350 -0.5366 -2.7028  0.0841
 4198TIP3   OH234008   4.822   5.946   5.130 -0.4351 -0.0948 -0.3118
 4198TIP3    H134009   4.801   5.925   5.039 -0.4504  0.9494 -0.5593
 4198TIP3    H234010   4.818   6.041   5.135 -2.2367 -0.1936  1.2330
 4199TIP3   OH234011   0.724   1.526  11.613 -0.4886 -0.1668 -0.0422
 4199TIP3    H134012   0.732   1.609  11.659 -1.2971  0.0799 -0.3220
 4199TIP3    H234013   0.776   1.464  11.665  1.8186  0.9126 -0.9334
 4200TIP3   OH234014   5.277   6.362  17.031  0.1068 -0.3032 -0.5505
 4200TIP3    H134015   5.217   6.437  17.033  0.7184  0.1858  0.0868
 4200TIP3    H234016   5.233   6.294  17.083  0.3675  0.2673  0.4420
 4201TIP3   OH234017   5.885   3.681  14.545 -0.0257 -0.6728 -0.7095
 4201TIP3    H134018   5.955   3.734  14.507  0.1007  0.3897  0.8716
 4201TIP3    H234019   5.826   3.663  14.472  1.6220 -1.1867 -1.9768
 4202TIP3   OH234020   0.225   6.551   2.187 -0.0136  0.4856 -0.2668
 4202TIP3    H134021   0.316   6.582   2.181 -0.0675  0.9654  1.0991
 4202TIP3    H234022   0.222   6.475   2.128  1.3796  0.2111 -0.0172
 4203TIP3   OH234023   3.887   5.489  13.602 -0.2793  0.1926  0.1462
 4203TIP3    H134024   3.950   5.442  13.547  0.5685 -0.1781  1.4175
 4203TIP3    H234025   3.819   5.424  13.620  0.5717 -0.3908  1.3722
 4204TIP3   OH234026   3.846   0.637   4.373 -0.1670  0.0346 -0.6177
 4204TIP3    H134027   3.896   0.604   4.448 -2.1255 -0.7456  0.4234
 4204TIP3    H234028   3.858   0.570   4.306 -0.0273 -0.2691 -0.2982
 4205TIP3   OH234029   5.803   3.071  16.537 -0.4811 -0.0949 -0.0939
 4205TIP3    H134030   5.897   3.089  16.540 -0.4993 -0.0973  0.6495
 4205TIP3    H234031   5.775   3.074  16.628 -0.7615 -2.3874 -0.0374
 4206TIP3   OH234032   4.807   6.592  13.657  0.1693  0.1600 -0.7211
 4206TIP3    H134033   4.715   6.613  13.670 -0.0136 -1.5027  1.1329
 4206TIP3    H234034   4.807   6.502  13.625  1.1457  0.3953 -1.4240
 4207TIP3   OH234035   3.034   2.218  13.268 -0.2029  0.3308  0.1839
 4207TIP3    H134036   3.088   2.237  13.344 -0.9417 -0.2757  0.8707
 4207TIP3    H234037   2.966   2.285  13.269 -1.1572 -0.6342  0.9924
 4208TIP3   OH234038   6.101   1.949   1.274  0.4186  0.1418 -0.4188
 4208TIP3    H134039   6.169   1.904   1.225  0.3918  0.7825 -1.0586
 4208TIP3    H234040   6.072   1.885   1.339 -0.4348 -1.2003 -2.0490
 4209TIP3   OH234041   4.409   4.146   1.518  0.5050  0.2771 -0.4666
 4209TIP3    H134042   4.497   4.184   1.515  0.4992  0.2346 -1.8404
 4209TIP3    H234043   4.355   4.213   1.559  1.0430  0.5772 -0.2412
 4210TIP3   OH234044   4.950   6.283  15.330  0.1782  0.2554 -0.4526
 4210TIP3    H134045   5.009   6.245  15.265  1.6788  0.8874  0.4837
 4210TIP3    H234046   4.869   6.232  15.321  2.1241 -3.4675  0.8988
 4211TIP3   OH234047   6.315   6.197   1.809 -0.0380 -0.0508  0.0027
 4211TIP3    H134048   6.366   6.224   1.732 -0.3045  0.2391 -0.0771
 4211TIP3    H234049   6.257   6.129   1.776 -1.0959  1.0074 -0.3732
 4212TIP3   OH234050   1.321   5.561  16.689  0.5331  0.0718  0.5086
 4212TIP3    H134051   1.241   5.600  16.723 -0.5336 -0.5374 -1.1752
 4212TIP3    H234052   1.293   5.514  16.610  3.0137  2.6627 -2.1621
 4213TIP3   OH234053   1.875   1.483   5.866  0.0383 -0.3599  0.2898
 4213TIP3    H134054   1.831   1.552   5.916 -0.3398  0.8806 -1.6619
 4213TIP3    H234055   1.810   1.452   5.804  1.2565  0.0569 -1.2537
 4214TIP3   OH234056   5.910   0.007   0.391 -0.3133 -0.2230 -0.3344
 4214TIP3    H134057   5.985   0.060   0.421 -0.7544  1.1525 -1.5646
 4214TIP3    H234058   5.930  -0.081   0.421  1.0967  0.3879  0.6441
 4215TIP3   OH234059   0.175   4.439  13.311 -0.5497 -0.2017  0.0869
 4215TIP3    H134060   0.207   4.411  13.397  0.2412  0.6392  0.0733
 4215TIP3    H234061   0.175   4.359  13.258 -0.5155 -0.6163  0.7020
 4216TIP3   OH234062   5.545   0.034  15.920  0.1385  0.7224  0.2512
 4216TIP3    H134063   5.598   0.105  15.956  1.9679 -1.0974  1.3514
 4216TIP3    H234064   5.590  -0.046  15.946 -2.8343 -0.9607  0.6901
 4217TIP3   OH234065   3.309   2.728   0.759 -0.0956  0.6506  0.5393
 4217TIP3    H134066   3.369   2.769   0.696  1.1403  1.6952  2.2940
 4217TIP3    H234067   3.363   2.665   0.806 -0.7095  0.6650  1.2811
 4218TIP3   OH234068   3.106   2.616  14.493 -0.3158 -0.3137  0.1719
 4218TIP3    H134069   3.033   2.557  14.509 -0.9337  0.2603 -0.4796
 4218TIP3    H234070   3.164   2.568  14.434 -0.1843 -0.7473  0.6481
 4219TIP3   OH234071   2.746   6.748   2.658 -0.4582  0.5241 -0.2354
 4219TIP3    H134072   2.739   6.838   2.690 -0.2805  0.6317 -0.4901
 4219TIP3    H234073   2.815   6.752   2.591  1.4135 -0.3050  1.5477
 4220TIP3   OH234074   6.466   3.787   2.181  0.3040  0.1784 -0.6162
 4220TIP3    H134075   6.561   3.779   2.178  0.1595 -3.0600  0.1665
 4220TIP3    H234076   6.433   3.697   2.177 -2.5746  0.8814  2.3495
 4221TIP3   OH234077   6.323   1.943  13.714 -0.1892 -0.3881 -0.1669
 4221TIP3    H134078   6.229   1.929  13.730 -0.0595 -0.4059  0.6612
 4221TIP3    H234079   6.362   1.856  13.720 -0.3606 -0.6727 -2.4848
 4222TIP3   OH234080   4.586   0.781   1.750  0.2698 -0.0259  0.0585
 4222TIP3    H134081   4.495   0.755   1.764  0.1757  0.6034  0.6564
 4222TIP3    H234082   4.633   0.698   1.736 -0.0745 -0.5150  1.5861
 4223TIP3   OH234083   4.165   0.862   5.643  0.0235  0.3497  0.0721
 4223TIP3    H134084   4.127   0.945   5.615 -0.2568  0.4884  0.8493
 4223TIP3    H234085   4.097   0.822   5.698 -1.8062 -2.4834 -3.7138
 4224TIP3   OH234086   0.855   2.781   6.562 -0.6850 -0.4293  0.5301
 4224TIP3    H134087   0.822   2.809   6.476  2.3760  0.1052 -0.5961
 4224TIP3    H234088   0.848   2.686   6.560 -1.0923 -0.3967 -0.1202
 4225TIP3   OH234089   6.414   0.954   2.749  0.0786 -0.3041 -0.2085
 4225TIP3    H134090   6.461   0.883   2.793 -1.5401 -1.2963  0.0330
 4225TIP3    H234091   6.426   0.937   2.656 -3.1987 -3.1744 -0.3174
 4226TIP3   OH234092   2.866   3.127  15.990  0.4177  0.3181  0.4270
 4226TIP3    H134093   2.870   3.033  16.005  0.4175 -0.1384 -1.9622
 4226TIP3    H234094   2.782   3.141  15.947 -0.5390  1.7717  2.6367
 4227TIP3   OH234095   5.799   3.201  15.946 -0.2858  0.2393 -0.6446
 4227TIP3    H134096   5.710   3.165  15.949  0.5384 -1.9646  0.9717
 4227TIP3    H234097   5.822   3.214  16.039  1.3968 -0.1782 -0.9693
 4228TIP3   OH234098   1.204   4.424  15.421 -0.7017  0.5699  0.2623
 4228TIP3    H134099   1.287   4.415  15.374 -1.0831  1.3001 -0.5749
 4228TIP3    H234100   1.214   4.367  15.498  0.0736 -0.3678 -0.5039
 4229TIP3   OH234101   2.411   2.600  10.143 -0.2027 -0.6292  0.3897
 4229TIP3    H134102   2.448   2.597  10.055  1.6988  0.3284  1.0955
 4229TIP3    H234103   2.425   2.513  10.178  0.8115 -0.4746  0.3966
 4230TIP3   OH234104   2.646   5.455  10.713  0.0706  0.2783 -0.0468
 4230TIP3    H134105   2.552   5.472  10.706  0.0879 -0.0161 -1.3735
 4230TIP3    H234106   2.678   5.519  10.775 -0.9074  0.8200 -0.0897
 4231TIP3   OH234107   1.746   4.972  15.178 -0.1181  0.4250 -0.1179
 4231TIP3    H134108   1.785   5.007  15.098 -1.0220 -0.0069 -0.7637
 4231TIP3    H234109   1.763   5.040  15.244  0.6529  0.7775 -0.6634
 4232TIP3   OH234110   2.205   5.233  12.747 -0.9901  0.6825  0.2152
 4232TIP3    H134111   2.189   5.163  12.685 -1.3585  0.1888  0.8508
 4232TIP3    H234112   2.297   5.223  12.771 -1.1950  0.0330  0.7551
 4233TIP3   OH234113   3.320   2.784   3.091 -0.0983  0.1471 -0.7480
 4233TIP3    H134114   3.244   2.728   3.073 -0.7657  0.5292  0.7104
 4233TIP3    H234115   3.392   2.745   3.041 -1.2354 -0.2334 -2.1503
 4234TIP3   OH234116   5.750   4.674   3.645 -0.1892  0.1618 -0.5296
 4234TIP3    H134117   5.699   4.612   3.697  0.3773  0.4782  0.4358
 4234TIP3    H234118   5.709   4.758   3.661  0.8144  0.4822  0.5617
 4235TIP3   OH234119   1.384   5.654  11.544 -0.6829 -0.2765 -0.3835
 4235TIP3    H134120   1.417   5.736  11.509 -0.3305 -0.6122 -0.8564
 4235TIP3    H234121   1.463   5.600  11.557 -0.9042 -0.5251 -0.0404
 4236TIP3   OH234122   1.175   2.310   2.702  0.1733 -0.2505  0.4436
 4236TIP3    H134123   1.132   2.295   2.618  2.6221 -1.2005 -0.7222
 4236TIP3    H234124   1.205   2.223   2.729 -0.0755  0.1335  2.0611
 4237TIP3   OH234125   6.132   0.808  14.675 -0.0288 -0.1082 -0.1728
 4237TIP3    H134126   6.152   0.756  14.753 -1.4993  0.9507  0.9638
 4237TIP3    H234127   6.169   0.757  14.603  0.9720 -1.3553  1.1495
 4238TIP3   OH234128   2.199   4.680  14.328 -0.6470  0.5826  0.5997
 4238TIP3    H134129   2.290   4.695  14.355  0.3507 -0.1696 -2.0360
 4238TIP3    H234130   2.166   4.767  14.305  0.6758  0.5374 -1.8325
 4239TIP3   OH234131   0.912   6.585   3.018 -0.1510 -0.1161  0.9245
 4239TIP3    H134132   0.935   6.670   2.979  0.9361 -0.4918  0.7013
 4239TIP3    H234133   0.988   6.563   3.072 -0.0101 -1.3777  0.2475
 4240TIP3   OH234134   1.559   6.473   2.999 -0.4304 -0.1549  0.1808
 4240TIP3    H134135   1.585   6.564   3.003 -0.6981  0.0451 -1.5526
 4240TIP3    H234136   1.638   6.424   3.020 -0.2455  0.4603  0.9624
 4241TIP3   OH234137   2.584   0.035  14.539  0.0987  0.2938  0.2818
 4241TIP3    H134138   2.593  -0.053  14.575  0.1282  0.4882  0.7508
 4241TIP3    H234139   2.666   0.079  14.561  1.2781 -0.3760 -2.2992
 4242TIP3   OH234140   5.491   3.122   1.294  0.3915 -0.7859  0.2159
 4242TIP3    H134141   5.494   3.196   1.354 -0.1542 -2.1866  2.0636
 4242TIP3    H234142   5.582   3.104   1.273  0.4892  1.5799 -1.8944
 4243TIP3   OH234143   4.096   2.620  13.415 -0.2639 -0.2815  0.1661
 4243TIP3    H134144   4.060   2.613  13.327 -0.1855  0.1939  0.0942
 4243TIP3    H234145   4.144   2.539  13.428  0.3623 -0.0298 -0.5129
 4244TIP3   OH234146   0.564   4.288  11.521  0.3495 -0.0044  0.0603
 4244TIP3    H134147   0.630   4.343  11.480 -0.5185  0.0336 -1.3561
 4244TIP3    H234148   0.579   4.298  11.615  1.5955  0.9077 -0.2127
 4245TIP3   OH234149   3.983   5.954   0.695 -0.5505 -0.7092 -1.3101
 4245TIP3    H134150   3.942   5.868   0.688 -1.2524 -0.4086 -0.9709
 4245TIP3    H234151   3.980   5.989   0.606 -0.9161 -0.7476 -1.3164
 4246TIP3   OH234152   3.922   0.836   0.695 -0.0423  0.3052  0.2932
 4246TIP3    H134153   3.834   0.813   0.724 -0.7612  1.5977 -0.7871
 4246TIP3    H234154   3.947   0.767   0.635 -1.0867  0.8733 -0.8296
 4247TIP3   OH234155   3.458   2.220   2.472 -0.9837  0.8612 -0.6189
 4247TIP3    H134156   3.379   2.230   2.525 -1.6256 -0.5128 -1.2689
 4247TIP3    H234157   3.450   2.133   2.434  1.1915  0.4048 -0.1518
 4248TIP3   OH234158   0.251   1.583  13.761 -0.3502 -0.1279 -0.0044
 4248TIP3    H134159   0.211   1.563  13.677 -1.4712 -1.1195  0.7411
 4248TIP3    H234160   0.248   1.501  13.810  0.8001  0.2872  0.8084
 4249TIP3   OH234161   4.396   2.229  10.634 -0.6726  0.6170  0.3538
 4249TIP3    H134162   4.372   2.184  10.553 -1.1863  1.0128  0.2803
 4249TIP3    H234163   4.318   2.278  10.659  0.0510  1.9379  0.1256
 4250TIP3   OH234164   1.752   5.334   5.217 -0.1515  0.0255  0.0575
 4250TIP3    H134165   1.675   5.385   5.192  0.4356  0.9508  0.0994
 4250TIP3    H234166   1.787   5.302   5.134  1.4106  2.5380 -0.3533
 4251TIP3   OH234167   3.877   1.084   3.915  0.2721 -0.1586 -0.0869
 4251TIP3    H134168   3.855   1.169   3.878  1.6425  0.0465 -0.4786
 4251TIP3    H234169   3.793   1.038   3.922 -0.8340  1.9285  2.0057
 4252TIP3   OH234170   4.304   1.646   3.503 -0.3413  0.4723  1.1936
 4252TIP3    H134171   4.319   1.740   3.514 -0.5123  0.5708  0.5938
 4252TIP3    H234172   4.216   1.640   3.465 -0.8888  0.0098  2.4728
 4253TIP3   OH234173   0.018   3.337   0.688  0.3225 -0.5226  0.1378
 4253TIP3    H134174   0.070   3.414   0.711  0.3951 -0.5904  0.2013
 4253TIP3    H234175   0.050   3.312   0.601 -1.4595  1.0534 -1.0604
 4254TIP3   OH234176   6.710   6.668   1.014 -0.0200  1.0319  0.9293
 4254TIP3    H134177   6.700   6.574   0.999 -0.5895  1.2481 -0.1454
 4254TIP3    H234178   6.801   6.687   0.991 -0.2065  0.9182  0.0299
 4255TIP3   OH234179   6.196   6.479  16.766  0.2220 -0.7236  0.4273
 4255TIP3    H134180   6.160   6.487  16.678 -0.1979 -0.3341  0.6294
 4255TIP3    H234181   6.120   6.490  16.824  0.3526 -1.7893  0.8223
 4256TIP3   OH234182   1.261   4.073  13.627 -0.7195  0.3376  0.4239
 4256TIP3    H134183   1.236   3.988  13.591 -0.0044 -0.3479  1.5080
 4256TIP3    H234184   1.193   4.133  13.595 -1.2310 -0.6275 -0.3513
 4257TIP3   OH234185   4.716   0.637  12.879  0.2314  0.3060 -0.0090
 4257TIP3    H134186   4.658   0.599  12.945  0.2032 -1.7754 -1.1478
 4257TIP3    H234187   4.703   0.583  12.801 -0.4911  3.2441 -2.1062
 4258TIP3   OH234188   0.102   3.399  16.315  0.4204 -0.0666 -0.5258
 4258TIP3    H134189   0.145   3.412  16.231 -0.2256 -1.5340 -1.1217
 4258TIP3    H234190   0.150   3.327  16.357 -0.8949 -1.1772 -0.8535
 4259TIP3   OH234191   2.634   3.368  15.090 -0.2628 -0.1483 -0.1278
 4259TIP3    H134192   2.655   3.276  15.081 -3.0800 -0.9775  0.5945
 4259TIP3    H234193   2.591   3.391  15.007  0.0790  0.4083 -0.1543
 4260TIP3   OH234194   2.282   6.559   0.619  0.6015 -0.2482  0.9629
 4260TIP3    H134195   2.311   6.649   0.634  0.0930 -0.3260  2.5238
 4260TIP3    H234196   2.212   6.568   0.554  0.9908  0.4041  0.6138
 4261TIP3   OH234197   5.315   5.749  13.799 -0.1129 -0.2803  1.0088
 4261TIP3    H134198   5.269   5.788  13.726  0.5819  2.4294  1.8935
 4261TIP3    H234199   5.248   5.702  13.849 -0.6611 -1.7845 -1.0282
 4262TIP3   OH234200   3.666   0.816  15.479 -0.2883 -0.1499 -0.0709
 4262TIP3    H134201   3.679   0.733  15.525 -1.0909  0.0284  0.5135
 4262TIP3    H234202   3.583   0.804  15.432 -0.7471  0.5315  0.5370
 4263TIP3   OH234203   3.009   1.823   0.157 -0.0795  0.2973  0.0849
 4263TIP3    H134204   2.981   1.851   0.244 -2.8398  2.6318 -1.4057
 4263TIP3    H234205   3.103   1.840   0.156  0.4722 -1.6676  3.1598
 4264TIP3   OH234206   3.842   2.862   1.603 -1.2661 -0.6923 -0.4494
 4264TIP3    H134207   3.905   2.800   1.639 -1.1658  0.0007  0.6198
 4264TIP3    H234208   3.843   2.936   1.665 -1.1994  0.4878 -1.7991
 4265TIP3   OH234209   0.180   2.655  11.803  0.5572  0.1057  0.1441
 4265TIP3    H134210   0.122   2.705  11.745 -0.7530  0.3443  1.5951
 4265TIP3    H234211   0.156   2.683  11.891  1.1529 -1.6555  0.9104
 4266TIP3   OH234212   4.527   1.284   0.718 -0.1711  0.0688  0.1726
 4266TIP3    H134213   4.438   1.314   0.703  0.5628  2.4709  0.2596
 4266TIP3    H234214   4.544   1.223   0.647 -1.1825  1.2142 -1.0962
 4267TIP3   OH234215   2.487   6.698   1.015  0.0665  0.1069  0.2797
 4267TIP3    H134216   2.483   6.742   1.099  0.3987  0.9679 -0.1390
 4267TIP3    H234217   2.403   6.718   0.973 -0.8374 -1.7373  1.0506
 4268TIP3   OH234218   3.473   3.427   2.054  0.3059 -0.3888  0.0741
 4268TIP3    H134219   3.562   3.442   2.085  0.5828 -0.4414 -0.6818
 4268TIP3    H234220   3.483   3.398   1.963 -0.4781 -0.4224 -0.0125
 4269TIP3   OH234221   3.814   2.144   2.720  0.4314  0.0562  0.1248
 4269TIP3    H134222   3.723   2.136   2.749  0.3053  1.2731  0.1561
 4269TIP3    H234223   3.865   2.139   2.801  0.5418 -2.1984 -0.0418
 4270TIP3   OH234224   1.504   0.712  15.308 -0.6285 -0.1600 -0.0230
 4270TIP3    H134225   1.476   0.784  15.252 -2.2730  0.5554  1.5894
 4270TIP3    H234226   1.587   0.741  15.345  0.2316 -0.4352 -1.6334
 4271TIP3   OH234227   1.340   6.018  15.001  0.4185  0.3705  0.0139
 4271TIP3    H134228   1.396   5.984  14.931 -0.0982 -0.0718 -0.1881
 4271TIP3    H234229   1.251   6.010  14.966  0.2757  1.9446 -0.0493
 4272TIP3   OH234230   6.390   2.049   1.765 -0.4758  0.2046  0.5482
 4272TIP3    H134231   6.353   2.126   1.721  1.4060  1.6568  1.3620
 4272TIP3    H234232   6.460   2.020   1.706 -0.2969 -0.0398  0.8780
 4273TIP3   OH234233   5.067   6.506   2.100  0.2329 -0.5795 -0.1956
 4273TIP3    H134234   5.058   6.439   2.168 -2.3369 -0.4557 -0.3087
 4273TIP3    H234235   5.156   6.495   2.067  0.7147 -2.2749  1.4770
 4274TIP3   OH234236   5.378   6.124   4.980 -0.1386 -0.6441 -0.2666
 4274TIP3    H134237   5.353   6.068   4.907  1.8874 -0.7970 -0.9061
 4274TIP3    H234238   5.295   6.152   5.019 -1.2941 -4.3211  0.2888
 4275TIP3   OH234239   0.638   4.537   4.513  0.1298  0.1439 -0.4703
 4275TIP3    H134240   0.574   4.465   4.516 -0.7507  0.9461  0.9928
 4275TIP3    H234241   0.679   4.528   4.427 -0.2670 -1.8338 -0.5160
 4276TIP3   OH234242   2.024   3.408  11.601  0.5554  0.1120  0.0998
 4276TIP3    H134243   1.979   3.491  11.616  0.6378  0.1428  0.1747
 4276TIP3    H234244   1.959   3.353  11.556  0.7777  0.4996 -0.7132
 4277TIP3   OH234245   1.650   0.487   3.761 -0.5026 -0.7927  0.6882
 4277TIP3    H134246   1.559   0.495   3.790 -0.8292  1.4010 -0.7006
 4277TIP3    H234247   1.644   0.453   3.672  0.0011 -0.1850  0.4190
 4278TIP3   OH234248   1.480   6.228   5.227 -0.3254  0.7010  0.0346
 4278TIP3    H134249   1.544   6.253   5.293  0.0969  0.2204 -0.1802
 4278TIP3    H234250   1.514   6.145   5.192 -0.0939  1.3707 -1.3727
 4279TIP3   OH234251   5.875   1.631  12.924 -0.2989 -0.1943  0.2657
 4279TIP3    H134252   5.945   1.641  12.988 -1.9509  2.5317  1.8801
 4279TIP3    H234253   5.917   1.592  12.848  2.2467 -1.5480  2.1956
 4280TIP3   OH234254   5.344   3.625  13.882 -0.1494  0.1169 -0.1067
 4280TIP3    H134255   5.333   3.660  13.970 -0.5116 -0.5134  0.1043
 4280TIP3    H234256   5.255   3.606  13.852  0.0353 -0.5818 -0.2283
 4281TIP3   OH234257   6.539   5.458  10.753 -0.4345  0.1756 -0.5280
 4281TIP3    H134258   6.470   5.397  10.778 -0.0397  0.5122  1.5544
 4281TIP3    H234259   6.575   5.490  10.836  0.4216  2.0564 -1.5538
 4282TIP3   OH234260   3.473   4.060   5.358  0.0583  0.1979 -0.2392
 4282TIP3    H134261   3.388   4.041   5.320  0.6694 -1.1150 -1.0413
 4282TIP3    H234262   3.486   3.990   5.422  0.0309  1.0813  0.7580
 4283TIP3   OH234263   3.271   0.730  11.963  0.4928 -0.2552  0.1497
 4283TIP3    H134264   3.273   0.754  12.056  1.5732  0.2198  0.0161
 4283TIP3    H234265   3.363   0.724  11.937  0.3160  2.5582 -1.6188
 4284TIP3   OH234266   5.507   3.975   5.335  0.4343 -0.5675  0.6135
 4284TIP3    H134267   5.500   3.887   5.371 -0.3044 -1.3300 -1.2411
 4284TIP3    H234268   5.593   3.977   5.293 -0.4499 -1.2813 -1.3576
 4285TIP3   OH234269   3.449   2.513   2.489  0.4692  0.0936 -0.1571
 4285TIP3    H134270   3.531   2.528   2.537  0.2159 -1.5279  0.8355
 4285TIP3    H234271   3.448   2.419   2.473 -1.6975 -0.0846  0.7702
 4286TIP3   OH234272   3.265   5.536   0.799  0.8367  0.3220  0.2770
 4286TIP3    H134273   3.282   5.629   0.809  0.8915  0.4085 -0.5775
 4286TIP3    H234274   3.329   5.494   0.857  0.8258  0.8050  0.6492
 4287TIP3   OH234275   4.710   3.577  11.210 -0.2697  0.3021  0.0545
 4287TIP3    H134276   4.792   3.608  11.171 -0.7541  1.6737  0.0535
 4287TIP3    H234277   4.695   3.637  11.283 -2.1829  1.2896 -1.0485
 4288TIP3   OH234278   2.288   4.564   4.363 -0.0702  0.7273  0.1388
 4288TIP3    H134279   2.380   4.538   4.350  0.8654  2.1010  3.2381
 4288TIP3    H234280   2.265   4.612   4.283  2.1235  0.9255 -0.4308
 4289TIP3   OH234281   5.258   1.848  10.425  0.7292  0.1489 -0.0267
 4289TIP3    H134282   5.275   1.887  10.511  1.1587 -0.0641 -0.0101
 4289TIP3    H234283   5.310   1.900  10.364 -0.8438  1.3291 -0.4002
 4290TIP3   OH234284   4.561   5.710  11.455  0.4109  0.1982  0.0993
 4290TIP3    H134285   4.527   5.623  11.477  2.5476 -0.8288 -0.4158
 4290TIP3    H234286   4.518   5.732  11.372 -1.1219  0.2432  0.8779
 4291TIP3   OH234287   2.417   4.504  11.389  0.3572  0.4408 -0.1158
 4291TIP3    H134288   2.380   4.566  11.326 -2.8592  0.1562  1.2919
 4291TIP3    H234289   2.433   4.556  11.468 -1.1016 -0.1931  0.6388
 4292TIP3   OH234290   4.569   0.570   4.011 -0.1267  0.1531  0.1641
 4292TIP3    H134291   4.478   0.546   4.030 -0.3192 -1.0816 -1.9549
 4292TIP3    H234292   4.620   0.524   4.079 -1.0062  0.0416  0.7727
 4293TIP3   OH234293   3.172   4.700  11.752 -0.1011  0.0503 -0.4787
 4293TIP3    H134294   3.168   4.677  11.845 -1.8269 -0.7851 -0.7059
 4293TIP3    H234295   3.230   4.634  11.714 -0.7144 -0.6332 -0.2479
 4294TIP3   OH234296   6.386   4.424   2.214 -0.8758 -0.0841 -0.1587
 4294TIP3    H134297   6.370   4.358   2.147  0.8526 -0.7682  0.0515
 4294TIP3    H234298   6.465   4.394   2.260 -2.5768 -0.2450  2.9578
 4295TIP3   OH234299   0.541   2.244   4.683 -0.2413 -0.1852 -0.3239
 4295TIP3    H134300   0.512   2.206   4.600  1.5297 -1.2428 -0.4997
 4295TIP3    H234301   0.560   2.336   4.661  0.0763 -0.4161 -1.0647
 4296TIP3   OH234302   6.330   5.179   4.348 -0.3081 -0.0816 -0.5094
 4296TIP3    H134303   6.312   5.091   4.383  2.5091 -0.2855  0.7128
 4296TIP3    H234304   6.408   5.207   4.395 -1.2491  3.2362 -0.7084
 4297TIP3   OH234305   5.182   0.826   4.810  0.1289 -0.2997  0.2974
 4297TIP3    H134306   5.154   0.906   4.766 -0.4005 -0.3238  0.5930
 4297TIP3    H234307   5.113   0.762   4.792  0.0536 -0.3992  0.9044
 4298TIP3   OH234308   4.843   5.029  11.093 -1.0003  0.0643  0.3168
 4298TIP3    H134309   4.776   4.997  11.033 -0.4751 -1.7341  0.6346
 4298TIP3    H234310   4.922   4.980  11.069 -0.0454  1.4171  0.5982
 4299TIP3   OH234311   2.713   1.772   0.258  0.1079 -0.5292  0.0554
 4299TIP3    H134312   2.666   1.845   0.219  0.5127 -0.9102 -1.1863
 4299TIP3    H234313   2.739   1.803   0.344  1.5541  1.3398 -0.9961
 4300TIP3   OH234314   2.804   6.561   4.136 -0.1755 -0.4678  0.3210
 4300TIP3    H134315   2.842   6.482   4.099 -0.0363 -0.5281  0.5940
 4300TIP3    H234316   2.709   6.547   4.129 -0.1573 -0.8797  0.8314
 4301TIP3   OH234317   3.565   4.820  16.138 -0.1824  0.3288  0.3062
 4301TIP3    H134318   3.510   4.766  16.081  1.5209 -0.3175 -0.8326
 4301TIP3    H234319   3.622   4.757  16.183  2.4643  1.0740 -1.7159
 4302TIP3   OH234320   5.224   2.935  12.423  0.0714 -0.2201 -0.0474
 4302TIP3    H134321   5.167   2.861  12.446  0.6350 -1.9873 -3.6227
 4302TIP3    H234322   5.313   2.903  12.439  0.2907 -0.0938 -0.9575
 4303TIP3   OH234323   5.892   3.198   5.843 -0.5173 -0.3423  0.5041
 4303TIP3    H134324   5.951   3.138   5.799  0.1943  0.1849  0.7187
 4303TIP3    H234325   5.901   3.176   5.936 -0.2765  0.0749  0.5796
 4304TIP3   OH234326   1.905   2.666  16.951 -0.5427  0.2233 -0.3594
 4304TIP3    H134327   1.922   2.760  16.955 -0.8827  0.3290 -1.2591
 4304TIP3    H234328   1.873   2.651  16.862 -0.2764 -0.7813 -0.2958
 4305TIP3   OH234329   2.456   3.950   1.897  0.2492 -0.3596  0.4582
 4305TIP3    H134330   2.514   3.980   1.827  0.0615  0.0211  0.4624
 4305TIP3    H234331   2.384   4.013   1.897  0.3925 -0.1901  1.1808
 4306TIP3   OH234332   6.752   0.183   4.259  0.0543  0.3711  0.2928
 4306TIP3    H134333   6.802   0.136   4.326  1.2138  1.1044 -0.0414
 4306TIP3    H234334   6.660   0.169   4.285  0.3312 -2.0277  0.2150
 4307TIP3   OH234335   2.568   4.019  14.730  0.3335 -0.1413 -0.1396
 4307TIP3    H134336   2.491   4.033  14.786  0.2880 -0.7074 -0.0506
 4307TIP3    H234337   2.632   4.082  14.762  0.7125 -1.2031  1.3418
 4308TIP3   OH234338   3.915   0.904  15.992  0.1978 -0.2461 -0.7522
 4308TIP3    H134339   3.963   0.868  16.067  0.2913  4.5228  1.8763
 4308TIP3    H234340   3.980   0.905  15.921  2.7447  1.8548  1.3763
 4309TIP3   OH234341   4.742   0.685   0.136 -0.6241 -0.0730 -0.2785
 4309TIP3    H134342   4.814   0.747   0.134 -2.0641  1.7041  0.4605
 4309TIP3    H234343   4.664   0.738   0.120 -1.7665 -1.9857 -1.4270
 4310TIP3   OH234344   4.339   4.937  11.549 -0.5342 -0.4329  0.0665
 4310TIP3    H134345   4.319   4.876  11.478 -0.8686 -1.0289  0.6621
 4310TIP3    H234346   4.254   4.976  11.571 -0.5632 -0.7917  0.6208
 4311TIP3   OH234347   1.750   4.087   4.508  0.1597  0.4449  0.0111
 4311TIP3    H134348   1.655   4.096   4.500 -0.0760  4.3919  3.8903
 4311TIP3    H234349   1.762   4.013   4.567 -0.2786 -0.9464 -1.5484
 4312TIP3   OH234350   4.694   2.234  16.978  0.5073 -0.5274 -0.2988
 4312TIP3    H134351   4.678   2.256  17.070 -3.3196 -1.2086 -0.6035
 4312TIP3    H234352   4.694   2.138  16.976 -0.8144 -0.5443 -1.0871
 4313TIP3   OH234353   5.173   2.360   5.993  0.2853  0.0774 -0.4454
 4313TIP3    H134354   5.147   2.403   6.075  0.6915 -0.8726  0.1946
 4313TIP3    H234355   5.096   2.368   5.937 -0.3497 -0.1320  0.3815
 4314TIP3   OH234356   5.588   4.278   3.881  0.2939 -0.3267  0.1716
 4314TIP3    H134357   5.562   4.306   3.969 -1.4339 -0.9562 -0.1117
 4314TIP3    H234358   5.539   4.334   3.821  0.5141 -0.7338 -0.4023
 4315TIP3   OH234359   3.773   5.674   1.852  0.8586 -0.3467  0.3285
 4315TIP3    H134360   3.796   5.614   1.923  0.1123  0.1405  1.0128
 4315TIP3    H234361   3.843   5.664   1.787  1.6747 -0.6402  1.2331
 4316TIP3   OH234362   5.505   0.824  15.828 -0.0513  0.1850  0.0000
 4316TIP3    H134363   5.444   0.825  15.901 -0.9308  0.6151 -0.7097
 4316TIP3    H234364   5.586   0.789  15.864 -1.0113 -1.3859  0.7459
 4317TIP3   OH234365   2.211   0.538  13.183 -0.0299 -0.0129  0.5804
 4317TIP3    H134366   2.177   0.588  13.110  0.5107  0.7146  0.8158
 4317TIP3    H234367   2.137   0.529  13.243 -0.3135 -0.0997  0.2162
 4318TIP3   OH234368   2.240   4.342  13.878 -0.4178 -0.2346 -0.3940
 4318TIP3    H134369   2.267   4.406  13.812  1.1679 -0.5469 -0.0828
 4318TIP3    H234370   2.225   4.393  13.957 -1.0466 -0.0325 -0.6280
 4319TIP3   OH234371   2.785   4.614   5.864 -0.0017  0.3855 -0.4356
 4319TIP3    H134372   2.806   4.653   5.949 -1.3202  0.3317 -0.0608
 4319TIP3    H234373   2.862   4.561   5.842 -0.1018 -0.5770  1.3162
 4320TIP3   OH234374   1.352   6.597   5.159  0.5103  0.4669  0.0443
 4320TIP3    H134375   1.263   6.575   5.186 -0.3403  2.5499 -0.7758
 4320TIP3    H234376   1.359   6.564   5.070 -0.0248  1.5888 -0.4381
 4321TIP3   OH234377   2.637   3.119  14.877  0.0405  0.2349 -0.0720
 4321TIP3    H134378   2.601   3.154  14.795 -0.6643  1.5063  0.7401
 4321TIP3    H234379   2.730   3.142  14.874  0.1020 -0.0711 -0.6764
 4322TIP3   OH234380   0.870   6.385   0.559 -0.1040 -0.3968 -0.4126
 4322TIP3    H134381   0.925   6.461   0.578 -0.2191  1.0367 -4.7523
 4322TIP3    H234382   0.781   6.414   0.580 -0.1730  0.8631 -2.2284
 4323TIP3   OH234383   6.686   6.758   5.505 -0.1253  0.4011 -0.5844
 4323TIP3    H134384   6.741   6.813   5.561  0.3685  0.9992 -1.6305
 4323TIP3    H234385   6.622   6.818   5.468 -0.4546  0.0069 -0.6647
 4324TIP3   OH234386   3.976   1.425   6.056 -0.1727  0.0026  0.1563
 4324TIP3    H134387   3.955   1.493   6.120 -1.6328  0.5825 -0.8851
 4324TIP3    H234388   4.072   1.425   6.052 -0.1045  1.0664  1.1570
 4325TIP3   OH234389   3.283   2.582  16.332  0.2887 -0.4605 -0.2118
 4325TIP3    H134390   3.349   2.539  16.278  1.1238  1.1447 -0.5291
 4325TIP3    H234391   3.282   2.532  16.413  1.9305 -0.5097 -0.1876
 4326TIP3   OH234392   5.454   3.641  16.648 -0.6925  0.1585 -0.5314
 4326TIP3    H134393   5.360   3.626  16.640 -0.5753 -0.9697  0.0622
 4326TIP3    H234394   5.463   3.687  16.732 -0.6093 -1.0165  0.1305
 4327TIP3   OH234395   6.249   3.466  16.158 -0.3536 -0.2630 -0.4624
 4327TIP3    H134396   6.290   3.553  16.155 -0.8863  0.0418  0.4631
 4327TIP3    H234397   6.260   3.431  16.070  0.2014  0.5916 -0.7518
 4328TIP3   OH234398   3.503   3.421  11.719  0.1666  0.0400 -0.3663
 4328TIP3    H134399   3.470   3.449  11.634  1.7909  0.7634 -0.8062
 4328TIP3    H234400   3.476   3.489  11.780 -0.2685 -0.0479 -0.4603
 4329TIP3   OH234401   6.226   6.342   0.438  0.6774 -0.7946 -0.0732
 4329TIP3    H134402   6.199   6.405   0.504  0.7695 -1.1339  0.2909
 4329TIP3    H234403   6.226   6.392   0.356  4.8425  0.9686  0.6937
 4330TIP3   OH234404   5.658   1.451  12.815  0.2580  0.0300  0.2155
 4330TIP3    H134405   5.744   1.409  12.816  0.8295  1.1143  2.4452
 4330TIP3    H234406   5.665   1.522  12.878 -1.9406  0.9049 -0.4287
 4331TIP3   OH234407   3.394   4.441   3.065  0.5458 -0.3071  0.0726
 4331TIP3    H134408   3.459   4.510   3.052  0.0296  0.1259 -0.2417
 4331TIP3    H234409   3.355   4.462   3.150 -0.8005  0.7883 -0.7926
 4332TIP3   OH234410   2.329   5.819   1.720  0.4472 -0.0717  0.0937
 4332TIP3    H134411   2.342   5.910   1.749  0.5109 -0.5680  1.7247
 4332TIP3    H234412   2.239   5.798   1.746 -0.3719  0.1968 -2.2927
 4333TIP3   OH234413   4.235   3.473  13.203  0.3288 -0.7878  0.0455
 4333TIP3    H134414   4.160   3.515  13.161 -0.0241 -0.1381  1.2773
 4333TIP3    H234415   4.302   3.468  13.135  0.1059  1.0941 -0.3596
 4334TIP3   OH234416   4.194   0.263  12.898 -0.1357  0.0983 -0.0017
 4334TIP3    H134417   4.124   0.326  12.881  0.3137  0.9236  1.0791
 4334TIP3    H234418   4.150   0.178  12.899 -1.1724  0.6202  0.8708
 4335TIP3   OH234419   2.265   4.857   2.851  0.2936 -0.1053 -0.4075
 4335TIP3    H134420   2.206   4.892   2.918  0.9693  0.8433 -0.2747
 4335TIP3    H234421   2.209   4.808   2.791 -0.3904 -0.5697  0.5866
 4336TIP3   OH234422   1.779   1.181  16.741 -0.4990  0.4186 -0.0658
 4336TIP3    H134423   1.751   1.201  16.652 -0.1421 -0.7718 -0.4571
 4336TIP3    H234424   1.725   1.107  16.767 -0.5431  0.7064  0.6928
 4337TIP3   OH234425   6.567   0.238   5.460  0.5180 -0.3383 -0.3372
 4337TIP3    H134426   6.537   0.291   5.534  1.0311  0.0278 -0.3781
 4337TIP3    H234427   6.517   0.269   5.386 -0.6381 -1.3170  0.0077
 4338TIP3   OH234428   6.488   0.530  13.643 -0.0145 -0.2940  0.3455
 4338TIP3    H134429   6.518   0.601  13.586  1.9981 -1.3021  0.0428
 4338TIP3    H234430   6.551   0.459  13.628 -1.2182 -1.7040  1.5651
 4339TIP3   OH234431   2.972   5.473   6.491  0.5549 -0.1307 -0.0706
 4339TIP3    H134432   2.962   5.403   6.427  0.1416  0.1931 -0.3668
 4339TIP3    H234433   2.932   5.439   6.571 -0.6645  0.1822 -0.5287
 4340TIP3   OH234434   0.445   6.400  11.785  0.1370  0.0469 -0.3250
 4340TIP3    H134435   0.512   6.411  11.853 -0.4117 -0.2530  0.2749
 4340TIP3    H234436   0.362   6.406  11.832 -0.2565  0.2485 -1.0390
 4341TIP3   OH234437   4.596   1.148  16.998 -0.6727 -0.3664  0.1311
 4341TIP3    H134438   4.668   1.209  17.009 -0.2330 -0.4646 -1.7810
 4341TIP3    H234439   4.607   1.113  16.909 -2.9199 -0.5556 -0.1548
 4342TIP3   OH234440   2.926   4.709   0.455 -0.6043 -0.0418 -0.1139
 4342TIP3    H134441   2.929   4.796   0.417  0.8862  0.0009  0.0612
 4342TIP3    H234442   2.911   4.724   0.549  1.6429  0.1696  0.2627
 4343TIP3   OH234443   5.029   6.458  14.034 -0.5127 -0.6579  0.0231
 4343TIP3    H134444   5.121   6.445  14.013  0.0139 -0.0689  1.7425
 4343TIP3    H234445   5.019   6.421  14.122 -1.9669 -0.8989 -0.2195
 4344TIP3   OH234446   3.249   0.994  13.882 -0.2751  0.3154 -0.1910
 4344TIP3    H134447   3.220   0.913  13.924 -0.5264  1.0949  1.2270
 4344TIP3    H234448   3.321   1.025  13.937  0.3702  0.6389 -1.1934
 4345TIP3   OH234449   0.433   2.431   0.717 -0.2627  0.3610 -0.3974
 4345TIP3    H134450   0.356   2.461   0.765  0.0439  1.0779 -0.3405
 4345TIP3    H234451   0.453   2.503   0.657  0.7575  0.4698  0.0518
 4346TIP3   OH234452   4.954   5.165  10.860 -0.3343  0.2327  0.3591
 4346TIP3    H134453   4.996   5.088  10.898 -0.7180 -0.2297 -0.1395
 4346TIP3    H234454   4.892   5.193  10.926 -0.7428 -0.3534  0.2303
 4347TIP3   OH234455   5.405   5.779   2.464 -0.5331 -0.2004  0.1425
 4347TIP3    H134456   5.496   5.775   2.493 -0.9054 -1.1404  1.2909
 4347TIP3    H234457   5.364   5.844   2.521 -0.7036 -0.1717 -0.0114
 4348TIP3   OH234458   1.630   5.735   5.119  0.2251 -0.2953 -0.1353
 4348TIP3    H134459   1.676   5.753   5.201  1.2349 -1.0537 -0.5249
 4348TIP3    H234460   1.677   5.661   5.080 -1.0260 -0.7845 -0.7804
 4349TIP3   OH234461   0.462   6.023  14.819  0.3752  0.3520 -0.0666
 4349TIP3    H134462   0.469   6.018  14.914 -0.4677  1.1003  0.0464
 4349TIP3    H234463   0.434   6.113  14.801 -0.9384 -0.1907 -0.9206
 4350TIP3   OH234464   2.629   4.664   2.712 -0.1161 -0.1668 -0.2692
 4350TIP3    H134465   2.687   4.588   2.708 -1.0555 -1.0008  1.2429
 4350TIP3    H234466   2.541   4.628   2.721 -0.4641  1.0463  1.9545
 4351TIP3   OH234467   4.371   1.915  12.370 -0.2369 -0.0927  0.4576
 4351TIP3    H134468   4.434   1.876  12.308 -1.1424  2.2997 -2.2167
 4351TIP3    H234469   4.425   1.942  12.445  1.6536  0.1402 -0.8954
 4352TIP3   OH234470   2.932   5.494  16.778 -0.4449  0.0407 -0.0580
 4352TIP3    H134471   2.989   5.437  16.726  0.4203  1.3100 -0.5369
 4352TIP3    H234472   2.992   5.553  16.824 -1.2798  0.0231  1.1100
 4353TIP3   OH234473   2.808   0.124   3.684  0.0052 -0.0449  0.0341
 4353TIP3    H134474   2.847   0.179   3.752 -1.8156  1.0879  0.2071
 4353TIP3    H234475   2.819   0.175   3.604 -1.2541  0.3756  0.1164
 4354TIP3   OH234476   6.098   6.768   4.233 -0.4190 -0.3758  0.1663
 4354TIP3    H134477   6.150   6.801   4.160 -0.8367  1.9688  0.8374
 4354TIP3    H234478   6.029   6.833   4.246  0.0797 -0.2636  3.0890
 4355TIP3   OH234479   2.500   5.233  12.779  0.1840  0.1731  0.0077
 4355TIP3    H134480   2.505   5.293  12.854 -2.9381  2.4451 -1.3728
 4355TIP3    H234481   2.493   5.146  12.819  0.7157  1.0774  2.2593
 4356TIP3   OH234482   2.896   2.681  10.611  0.2978 -0.5700  0.1571
 4356TIP3    H134483   2.813   2.639  10.636  0.1697 -0.3631  0.0780
 4356TIP3    H234484   2.960   2.644  10.672 -0.1564  0.5337  1.3479
 4357TIP3   OH234485   6.721   1.940   4.944 -0.0039  0.1939  0.3357
 4357TIP3    H134486   6.772   1.955   4.864 -1.7150 -0.3738 -0.9088
 4357TIP3    H234487   6.681   2.024   4.963 -0.1612  0.1559  0.1781
 4358TIP3   OH234488   1.243   5.875   1.915 -0.3331  0.3251 -0.2524
 4358TIP3    H134489   1.162   5.834   1.944 -0.3162 -0.4761 -1.2689
 4358TIP3    H234490   1.216   5.960   1.880 -0.4298  1.0205  1.4525
 4359TIP3   OH234491   0.482   0.976   1.255 -0.4672  0.0375  0.0451
 4359TIP3    H134492   0.493   1.033   1.331  0.9219 -0.2876  0.1073
 4359TIP3    H234493   0.404   0.924   1.276 -1.2228  1.2607  0.3770
 4360TIP3   OH234494   3.531   5.129   3.336 -0.5991  0.1980 -0.0292
 4360TIP3    H134495   3.583   5.189   3.283 -0.8006  1.1404  0.8001
 4360TIP3    H234496   3.576   5.045   3.330 -0.4059  0.3858 -1.3477
 4361TIP3   OH234497   1.820   1.866   0.506  0.0398 -0.0581  0.3249
 4361TIP3    H134498   1.916   1.869   0.498  0.1680  0.0636  1.6136
 4361TIP3    H234499   1.799   1.943   0.559 -0.9129  0.5934 -0.9473
 4362TIP3   OH234500   1.409   3.673  14.962 -0.1077  0.3948  0.2271
 4362TIP3    H134501   1.473   3.702  15.028 -0.5860  0.2760  0.7514
 4362TIP3    H234502   1.461   3.657  14.884  0.3114  1.7034  0.2185
 4363TIP3   OH234503   1.519   5.430   2.719 -0.3635  0.3246 -0.1024
 4363TIP3    H134504   1.607   5.401   2.696  0.1006  0.4263  1.4252
 4363TIP3    H234505   1.462   5.360   2.689  0.1876  0.3919 -1.3750
 4364TIP3   OH234506   5.416   5.017   0.686  0.3708 -0.0720 -0.0244
 4364TIP3    H134507   5.388   4.961   0.759  1.5974 -1.4390 -0.5633
 4364TIP3    H234508   5.453   5.094   0.728  0.1656 -0.3902  0.7696
 4365TIP3   OH234509   2.043   0.058   4.984 -0.3041 -0.3853 -0.4899
 4365TIP3    H134510   1.951   0.070   5.008 -0.5996 -1.4011 -1.0857
 4365TIP3    H234511   2.059  -0.036   4.993  0.8488 -0.1466  0.1916
 4366TIP3   OH234512   4.603   1.707   0.079 -0.1542  0.3417 -0.1942
 4366TIP3    H134513   4.556   1.718  -0.004 -0.7438 -0.8008 -0.0368
 4366TIP3    H234514   4.675   1.647   0.057 -0.7796 -0.5984  0.2719
 4367TIP3   OH234515   0.153   5.460   3.621  0.0644  0.6915 -0.4642
 4367TIP3    H134516   0.200   5.377   3.613  0.7280  0.7603  2.0703
 4367TIP3    H234517   0.191   5.515   3.552  0.7410 -0.5792 -1.1457
 4368TIP3   OH234518   6.242   4.710   3.082 -0.5679  0.2875  1.1253
 4368TIP3    H134519   6.284   4.669   3.157  1.3620  0.1283  0.0084
 4368TIP3    H234520   6.210   4.637   3.029 -2.0564  0.4016  1.8148
 4369TIP3   OH234521   1.243   6.516   2.830 -0.0631 -0.5852  0.0957
 4369TIP3    H134522   1.322   6.528   2.777 -0.4919  1.3957 -0.1851
 4369TIP3    H234523   1.273   6.472   2.909  1.2626 -0.1832 -0.1544
 4370TIP3   OH234524   6.239   2.792  15.627 -0.4466 -0.5667 -0.0880
 4370TIP3    H134525   6.244   2.866  15.566  1.2056 -0.2173  0.4099
 4370TIP3    H234526   6.272   2.718  15.577 -0.2272 -0.5400  0.0184
 4371TIP3   OH234527   5.466   1.391  10.435  0.7455 -0.4225 -0.4884
 4371TIP3    H134528   5.504   1.478  10.432 -0.5228  0.2812  1.5244
 4371TIP3    H234529   5.540   1.332  10.448  1.3835  0.6837  1.1850
 4372TIP3   OH234530   3.262   0.196   4.125 -0.5849 -0.4701 -0.1587
 4372TIP3    H134531   3.321   0.197   4.200  0.0279  0.0975 -0.6353
 4372TIP3    H234532   3.285   0.117   4.076 -0.2301 -0.2581 -0.3347
 4373TIP3   OH234533   3.753   6.718  16.621 -0.3978 -0.5997 -0.0935
 4373TIP3    H134534   3.827   6.771  16.590  0.4154 -2.4629 -1.5641
 4373TIP3    H234535   3.682   6.737  16.560 -1.5075  1.7296  1.7265
 4374TIP3   OH234536   3.117   3.216  15.946 -0.0500 -0.2924 -0.4555
 4374TIP3    H134537   3.024   3.194  15.946 -0.2552  0.5078  0.1537
 4374TIP3    H234538   3.159   3.144  15.992 -0.7048  0.5135  1.5300
 4375TIP3   OH234539   1.525   3.933  11.551 -0.6361 -0.1923 -0.2149
 4375TIP3    H134540   1.557   3.958  11.638  0.7650 -3.2860  0.2927
 4375TIP3    H234541   1.583   3.980  11.490  1.2979 -1.3122  0.6565
 4376TIP3   OH234542   3.615   3.623   0.726 -0.3073  0.1847  0.0925
 4376TIP3    H134543   3.540   3.593   0.674  0.1506  0.6411 -0.8462
 4376TIP3    H234544   3.650   3.698   0.678 -0.1986  0.9624  1.3535
 4377TIP3   OH234545   6.559   4.216   1.674  0.3061  0.2298 -0.2760
 4377TIP3    H134546   6.522   4.268   1.603 -1.1422  1.0436  1.0119
 4377TIP3    H234547   6.554   4.126   1.644 -3.3821  0.1873  0.0043
 4378TIP3   OH234548   5.590   5.932   2.886 -0.1341  0.5176  0.1746
 4378TIP3    H134549   5.610   6.026   2.880  0.7938  0.3415  0.3437
 4378TIP3    H234550   5.638   5.903   2.963 -1.7707  0.2322  1.1362
 4379TIP3   OH234551   5.358   3.803   4.800  0.0583  0.8763  0.4790
 4379TIP3    H134552   5.416   3.767   4.733 -1.9441  1.1526 -1.5258
 4379TIP3    H234553   5.326   3.726   4.847  0.3943  0.5524  0.1846
 4380TIP3   OH234554   4.230   6.307  14.755  0.0236 -0.0121 -0.4227
 4380TIP3    H134555   4.225   6.339  14.845 -1.9472 -1.4304  0.0286
 4380TIP3    H234556   4.199   6.380  14.702 -0.2486  0.3199  0.1835
 4381TIP3   OH234557   1.035   0.158  15.205  0.3644 -0.1832  0.0897
 4381TIP3    H134558   1.067   0.124  15.121 -0.1478  0.5416 -0.4239
 4381TIP3    H234559   1.083   0.240  15.218 -0.4256  0.3304 -0.1222
 4382TIP3   OH234560   1.126   2.779   1.295 -0.1903  0.3038  0.1233
 4382TIP3    H134561   1.158   2.818   1.376  0.7849 -0.8101  0.3182
 4382TIP3    H234562   1.040   2.817   1.281 -1.3539 -1.1037  2.8798
 4383TIP3   OH234563   6.753   3.840   1.864 -0.0569  0.5290 -0.9341
 4383TIP3    H134564   6.701   3.837   1.784 -0.6938 -0.4822 -0.5102
 4383TIP3    H234565   6.724   3.763   1.914 -0.8916  2.0237  1.0136
 4384TIP3   OH234566   1.382   5.260  13.610 -0.4415 -0.4365 -0.4119
 4384TIP3    H134567   1.384   5.202  13.534 -0.7107 -0.1742 -0.6204
 4384TIP3    H234568   1.462   5.312  13.603 -0.8159  0.0770 -0.9021
 4385TIP3   OH234569   1.779   1.390  11.561 -0.5813  0.3402  0.0299
 4385TIP3    H134570   1.866   1.430  11.558  1.1381 -2.7003  2.4493
 4385TIP3    H234571   1.754   1.379  11.469  2.3569 -0.1215 -0.8092
 4386TIP3   OH234572   4.518   1.209   2.648  0.4661 -0.4144  0.2744
 4386TIP3    H134573   4.427   1.231   2.666  0.7107 -0.2452  1.3581
 4386TIP3    H234574   4.541   1.261   2.571 -0.3442 -0.4518  0.0025
 4387TIP3   OH234575   5.953   5.944  13.848  0.2998 -0.2349 -0.0170
 4387TIP3    H134576   5.975   6.031  13.881  0.3558  0.8984 -2.7604
 4387TIP3    H234577   6.037   5.899  13.840  0.4998  0.2364 -0.5802
 4388TIP3   OH234578   4.087   1.941  14.223 -0.3873  0.0165  0.7177
 4388TIP3    H134579   4.133   1.926  14.306 -2.1241 -1.3373  1.5080
 4388TIP3    H234580   4.113   2.029  14.197 -0.2045  0.7052  2.9828
 4389TIP3   OH234581   4.227   6.726  17.289  0.2805  0.5133 -0.0836
 4389TIP3    H134582   4.218   6.821  17.289 -0.0559  0.5281  2.0262
 4389TIP3    H234583   4.142   6.693  17.259 -0.2769  0.8948  1.0051
 4390TIP3   OH234584   5.568   2.101  14.605 -0.1097  0.0712 -0.7291
 4390TIP3    H134585   5.530   2.018  14.577  1.3662 -1.0098  0.3423
 4390TIP3    H234586   5.662   2.091  14.591  0.1640  1.2930  0.0546
 4391TIP3   OH234587   2.214   6.527  12.569 -0.0034  0.0717 -0.0330
 4391TIP3    H134588   2.286   6.565  12.519 -0.2926  0.8098  0.1075
 4391TIP3    H234589   2.178   6.460  12.511  0.3322  0.1988 -0.3914
 4392TIP3   OH234590   5.000   0.795  13.286 -0.2217  1.3281 -0.2613
 4392TIP3    H134591   5.072   0.854  13.265  2.3842 -0.9254  1.6938
 4392TIP3    H234592   5.004   0.727  13.219 -1.1819  1.6426 -0.6648
 4393TIP3   OH234593   4.834   1.952   2.459 -0.3213 -0.2883  0.0955
 4393TIP3    H134594   4.743   1.922   2.458 -1.5665  3.0086 -0.3996
 4393TIP3    H234595   4.838   2.011   2.535  1.0353  0.5482 -0.5948
 4394TIP3   OH234596   5.584   4.652   3.294  0.0220 -0.2243  0.7238
 4394TIP3    H134597   5.547   4.636   3.380 -2.4172  0.4025 -0.1188
 4394TIP3    H234598   5.551   4.739   3.270 -0.1197 -0.7593 -1.1792
 4395TIP3   OH234599   3.968   3.358  14.863 -0.7791 -0.0574 -0.6617
 4395TIP3    H134600   3.998   3.335  14.775 -1.3711  2.5496 -1.6368
 4395TIP3    H234601   3.966   3.275  14.910  1.9630 -1.1903 -2.3337
 4396TIP3   OH234602   5.025   2.117  12.015 -0.1103  0.4416  0.4927
 4396TIP3    H134603   4.973   2.070  11.950 -0.1636 -0.4898  1.1886
 4396TIP3    H234604   5.075   2.048  12.059  0.5187  1.1507  0.9017
 4397TIP3   OH234605   0.011   1.119   5.237 -0.3778  0.3044  0.7336
 4397TIP3    H134606  -0.074   1.103   5.277 -1.0910 -0.6862 -1.0843
 4397TIP3    H234607   0.004   1.082   5.149  1.9893  0.0293  0.5907
 4398TIP3   OH234608   2.131   4.702  17.124  0.1455 -0.4606  0.2185
 4398TIP3    H134609   2.081   4.622  17.110  1.5629 -1.3480  0.0449
 4398TIP3    H234610   2.070   4.773  17.104 -1.3635 -1.4610  1.1171
 4399TIP3   OH234611   2.507   2.185  14.738  0.8311  0.6919 -0.2196
 4399TIP3    H134612   2.515   2.138  14.655  0.0677 -1.7396  1.0149
 4399TIP3    H234613   2.415   2.212  14.741  0.6438  0.0113  0.2197
 4400TIP3   OH234614   4.557   1.996   0.526  0.4971  0.5316 -0.2196
 4400TIP3    H134615   4.580   2.087   0.509  0.4446  0.1794 -2.5090
 4400TIP3    H234616   4.477   1.982   0.474  0.2102 -0.6894  0.5119
 4401TIP3   OH234617   1.330   2.595   4.676  0.1834  0.2523  0.2963
 4401TIP3    H134618   1.251   2.648   4.676 -0.7310 -0.9784 -1.5231
 4401TIP3    H234619   1.379   2.625   4.599  0.2649 -0.6640 -0.0229
 4402TIP3   OH234620   5.629   2.168   3.631  0.1867 -0.0161 -0.1508
 4402TIP3    H134621   5.558   2.231   3.636  0.6165  0.4019  1.8869
 4402TIP3    H234622   5.587   2.086   3.606 -0.9693  0.2879  0.7101
 4403TIP3   OH234623   4.405   5.117  12.896  0.2565 -0.1197 -0.1141
 4403TIP3    H134624   4.496   5.140  12.881 -0.3821  1.3354 -2.2543
 4403TIP3    H234625   4.408   5.026  12.925  2.3522 -0.3335 -0.8319
 4404TIP3   OH234626   2.207   6.595  17.177 -0.6332  0.9128 -0.1358
 4404TIP3    H134627   2.244   6.681  17.198 -0.5263  1.1066 -1.0689
 4404TIP3    H234628   2.197   6.596  17.082  1.0087 -0.7605 -0.3817
 4405TIP3   OH234629   1.324   1.400   6.122 -0.5196  0.2301 -0.1390
 4405TIP3    H134630   1.232   1.382   6.142 -0.0046 -1.2005  1.0979
 4405TIP3    H234631   1.360   1.437   6.204  0.4138 -0.9044 -0.0107
 4406TIP3   OH234632   3.463   4.978   3.570 -0.2371  0.9794  0.4776
 4406TIP3    H134633   3.557   4.988   3.582  0.1255 -1.8732  0.5980
 4406TIP3    H234634   3.448   4.997   3.478  0.8149 -0.5845 -0.0396
 4407TIP3   OH234635   2.886   1.381   5.891  0.2153  0.4741 -0.2517
 4407TIP3    H134636   2.882   1.466   5.934  2.7605 -0.2458  1.6783
 4407TIP3    H234637   2.811   1.333   5.926  1.0582  0.6230  1.9092
 4408TIP3   OH234638   3.198   2.097  16.280 -0.0672 -0.4916 -0.1642
 4408TIP3    H134639   3.281   2.084  16.233 -0.2615  0.2027 -0.7210
 4408TIP3    H234640   3.131   2.064  16.220 -0.1510 -1.8330  0.6260
 4409TIP3   OH234641   5.173   0.916  11.818 -0.6408 -0.2479 -0.0145
 4409TIP3    H134642   5.096   0.974  11.822 -0.4317  0.1373 -1.0840
 4409TIP3    H234643   5.240   0.961  11.869 -0.3206  0.7368 -1.2626
 4410TIP3   OH234644   6.445   4.643   0.946  0.5392  0.0129 -0.2871
 4410TIP3    H134645   6.366   4.651   0.892  0.8791  0.6412 -0.7125
 4410TIP3    H234646   6.415   4.603   1.027 -0.2017  0.1431 -0.4888
 4411TIP3   OH234647   1.162   4.890  16.500 -0.1414  0.0872  0.3461
 4411TIP3    H134648   1.090   4.846  16.454 -0.1133  0.0007  0.3853
 4411TIP3    H234649   1.132   4.980  16.508 -0.2147  0.0685  0.2964
 4412TIP3   OH234650   5.147   4.547   4.360 -0.2617 -0.2817 -0.0627
 4412TIP3    H134651   5.092   4.618   4.392  2.4700  1.3749  1.3582
 4412TIP3    H234652   5.152   4.560   4.266 -0.4290  0.9810  0.0930
 4413TIP3   OH234653   0.635   1.667  12.489 -0.4343 -0.8893 -0.1631
 4413TIP3    H134654   0.614   1.710  12.572  0.3668  0.9388 -0.8558
 4413TIP3    H234655   0.551   1.634  12.457 -1.1857  0.5939  0.1882
 4414TIP3   OH234656   0.950   4.495  15.543 -0.3713  0.0660 -0.0381
 4414TIP3    H134657   0.944   4.589  15.524  2.5407  0.5597  0.9492
 4414TIP3    H234658   1.038   4.471  15.515 -0.9294 -2.3243  0.0682
 4415TIP3   OH234659   0.455   4.032  16.222  0.0113 -0.0072  0.0913
 4415TIP3    H134660   0.489   3.968  16.284  1.8826 -0.0085 -0.8770
 4415TIP3    H234661   0.362   4.010  16.214  0.1757 -1.2995  1.3001
 4416TIP3   OH234662   0.200   0.594   5.366  0.1409 -0.0322 -0.5219
 4416TIP3    H134663   0.128   0.531   5.379  0.3097 -0.4862 -1.6722
 4416TIP3    H234664   0.156   0.675   5.339 -0.0401  0.2043  0.4387
 4417TIP3   OH234665   4.403   0.548  12.892  0.2308  0.4505 -0.0641
 4417TIP3    H134666   4.320   0.516  12.928 -0.7032 -0.0889 -2.5254
 4417TIP3    H234667   4.468   0.484  12.921 -0.8577 -1.2191 -1.1280
 4418TIP3   OH234668   3.756   2.240   3.104  0.2043 -0.3007 -0.2826
 4418TIP3    H134669   3.834   2.213   3.055  0.7516 -1.6264  1.2365
 4418TIP3    H234670   3.701   2.162   3.106  0.3193 -0.3643  1.4174
 4419TIP3   OH234671   1.278   4.172  12.013  0.6716 -0.1719  0.4956
 4419TIP3    H134672   1.184   4.158  12.006  0.7225 -0.0879 -0.7044
 4419TIP3    H234673   1.308   4.106  12.076 -0.2061 -0.0588  1.0446
 4420TIP3   OH234674   4.263   3.621  12.256  0.0548 -0.1373 -0.3019
 4420TIP3    H134675   4.260   3.658  12.344 -1.3155  0.6454 -0.6467
 4420TIP3    H234676   4.212   3.540  12.262  1.9575 -1.3755  0.1414
 4421TIP3   OH234677   6.279   1.575  15.063 -0.2815  0.4313 -0.8035
 4421TIP3    H134678   6.328   1.528  15.131 -0.6818  0.2873 -0.6067
 4421TIP3    H234679   6.346   1.616  15.008  0.0579  0.1404 -0.6099
 4422TIP3   OH234680   2.601   4.402  11.170  0.2299  0.0740 -0.7567
 4422TIP3    H134681   2.573   4.426  11.258  0.0559 -0.6407 -0.6080
 4422TIP3    H234682   2.596   4.483  11.120 -0.3122  0.3484 -0.2717
 4423TIP3   OH234683   2.714   3.316   4.594  0.1797  0.1392  0.5145
 4423TIP3    H134684   2.713   3.350   4.505 -0.0490  0.7073  0.7307
 4423TIP3    H234685   2.626   3.281   4.607  0.4443 -0.6553  0.2567
 4424TIP3   OH234686   0.176   5.829   4.519 -0.2159 -0.1630  0.6898
 4424TIP3    H134687   0.125   5.827   4.600 -1.1438 -1.1020  0.0990
 4424TIP3    H234688   0.139   5.759   4.465 -1.0070  1.7503 -1.4051
 4425TIP3   OH234689   6.095   2.779  13.471 -0.2833  0.2353 -0.3537
 4425TIP3    H134690   6.105   2.740  13.385  3.3285 -0.2489  0.1228
 4425TIP3    H234691   6.094   2.873  13.456 -0.1326  0.1437 -0.9223
 4426TIP3   OH234692   1.186   3.136  14.183  0.4991  0.0069  0.0948
 4426TIP3    H134693   1.102   3.176  14.163 -0.1449 -1.3439 -0.0467
 4426TIP3    H234694   1.178   3.046  14.149  1.3080 -0.7320  1.7671
 4427TIP3   OH234695   1.010   1.438   0.309  0.6139 -0.1965  0.4084
 4427TIP3    H134696   1.002   1.383   0.387 -1.0997 -0.2318  0.2294
 4427TIP3    H234697   0.979   1.524   0.338 -0.0104 -0.2048 -0.2313
 4428TIP3   OH234698   4.011   3.543  11.194 -0.2249 -0.3489 -0.4245
 4428TIP3    H134699   3.996   3.483  11.266 -0.9811 -0.6100 -0.7885
 4428TIP3    H234700   4.008   3.489  11.116  0.1624  0.0000 -0.6892
 4429TIP3   OH234701   2.417   2.117  14.157  0.2319  0.1169  0.3628
 4429TIP3    H134702   2.446   2.168  14.233  1.2501  0.4811 -0.2443
 4429TIP3    H234703   2.349   2.060  14.191  0.1728  0.7733  1.4004
 4430TIP3   OH234704   0.043   2.475   0.624 -0.1351 -0.1857  0.5872
 4430TIP3    H134705   0.072   2.564   0.644  0.1662 -0.3458  0.8937
 4430TIP3    H234706   0.013   2.479   0.534 -0.3171  0.2737  0.6654
 4431TIP3   OH234707   0.615   0.968   2.722 -0.6042  0.4244 -0.5225
 4431TIP3    H134708   0.522   0.951   2.731 -0.1815 -1.5487  0.7725
 4431TIP3    H234709   0.645   0.905   2.656  0.0537  0.0008  0.1721
 4432TIP3   OH234710   1.579   3.731  12.869  0.1602  0.0362 -0.2281
 4432TIP3    H134711   1.488   3.711  12.846  0.6484 -2.8563 -0.0203
 4432TIP3    H234712   1.629   3.707  12.791  0.9236 -0.6374  0.4455
 4433TIP3   OH234713   5.267   5.023   1.802  0.3213  0.1245 -0.9286
 4433TIP3    H134714   5.185   5.058   1.767  0.5067  1.0017 -0.5236
 4433TIP3    H234715   5.304   5.096   1.852  1.0244 -0.4774 -0.5619
 4434TIP3   OH234716   4.691   0.467   5.166  0.3311  0.0666  0.0562
 4434TIP3    H134717   4.661   0.551   5.199  1.4687  1.1912 -1.6318
 4434TIP3    H234718   4.704   0.480   5.072 -1.2590 -2.5499 -0.6415
 4435TIP3   OH234719   1.078   1.344   6.199  0.2378  0.2521 -0.4727
 4435TIP3    H134720   1.001   1.400   6.195  0.5319  0.6204 -1.2796
 4435TIP3    H234721   1.080   1.311   6.289  0.0837  1.5696  0.0334
 4436TIP3   OH234722   0.178   0.659   4.367 -0.6953 -0.2578  0.2876
 4436TIP3    H134723   0.139   0.678   4.281  0.8865 -0.7580 -0.5819
 4436TIP3    H234724   0.186   0.564   4.369  0.1533 -0.1881  0.5762
 4437TIP3   OH234725   3.208   2.532  15.805  0.3535 -0.2547 -0.3054
 4437TIP3    H134726   3.118   2.561  15.815  0.7575  1.7383 -1.8301
 4437TIP3    H234727   3.201   2.447  15.761 -0.7880 -1.4844  2.0470
 4438TIP3   OH234728   2.771   5.760   1.495 -0.2823  0.6090 -0.8061
 4438TIP3    H134729   2.721   5.726   1.569 -0.1622  1.9423 -0.0726
 4438TIP3    H234730   2.859   5.774   1.529  0.1321 -0.0098 -1.5842
 4439TIP3   OH234731   4.535   1.834  15.986 -0.3743  0.3901 -0.0122
 4439TIP3    H134732   4.548   1.889  16.063  0.3837 -1.6712  1.4307
 4439TIP3    H234733   4.530   1.896  15.913  0.3011  2.3453  1.4975
 4440TIP3   OH234734   4.284   0.785  13.382 -0.2302 -0.4849  0.5153
 4440TIP3    H134735   4.342   0.759  13.310  0.1543 -2.1513  1.3944
 4440TIP3    H234736   4.226   0.850  13.342 -0.0270 -1.3545 -1.3224
 4441TIP3   OH234737   1.066   2.789  15.658 -0.5698  0.4821 -0.0906
 4441TIP3    H134738   1.055   2.846  15.582 -0.6647  1.6982  0.7975
 4441TIP3    H234739   1.159   2.795  15.680 -0.6313  0.5137  0.1698
 4442TIP3   OH234740   6.580   5.597  13.657 -0.2543  0.0708  0.2641
 4442TIP3    H134741   6.504   5.624  13.604 -0.7432  0.2042  1.0242
 4442TIP3    H234742   6.542   5.569  13.740  0.5218 -0.0557  0.5772
 4443TIP3   OH234743   1.625   2.596  16.251 -0.4985  0.3119 -0.5736
 4443TIP3    H134744   1.551   2.553  16.294  0.2805 -1.7939 -1.2139
 4443TIP3    H234745   1.660   2.530  16.191  2.1738  1.0458  0.0221
 4444TIP3   OH234746   6.204   4.300  14.992 -0.1852  0.1209  0.4823
 4444TIP3    H134747   6.205   4.259  15.079  0.4468  0.8810  0.8508
 4444TIP3    H234748   6.296   4.297  14.964 -0.8285 -3.4477 -1.8055
 4445TIP3   OH234749   5.110   2.640  17.172  0.5641  0.1878  0.0683
 4445TIP3    H134750   5.199   2.628  17.140  1.0090  0.9960  0.9406
 4445TIP3    H234751   5.098   2.735  17.175  0.5137  0.1609  2.1359
 4446TIP3   OH234752   1.077   1.175  11.958  0.0884  0.3945 -0.2186
 4446TIP3    H134753   1.153   1.205  11.908 -0.3939  1.5334 -0.2872
 4446TIP3    H234754   1.004   1.227  11.925 -0.5392  0.0423  0.5710
 4447TIP3   OH234755   3.726   4.469  12.646  0.7886 -0.0448 -0.3632
 4447TIP3    H134756   3.659   4.436  12.586 -1.1382 -0.4170  1.8528
 4447TIP3    H234757   3.717   4.416  12.725  1.2154  2.2407  1.3503
 4448TIP3   OH234758   5.415   6.394   5.246 -0.2488  0.1521 -0.0327
 4448TIP3    H134759   5.337   6.393   5.301  0.6798  0.5913  1.3451
 4448TIP3    H234760   5.384   6.426   5.161 -1.5741  0.2522  0.4666
 4449TIP3   OH234761   0.699   1.411  11.381 -0.2433 -0.1306  0.0298
 4449TIP3    H134762   0.765   1.458  11.330  0.9329 -2.3260 -0.5742
 4449TIP3    H234763   0.694   1.460  11.463 -0.2813  1.9562 -1.1397
 4450TIP3   OH234764   6.203   2.899  12.389  0.2346 -0.1678 -0.5983
 4450TIP3    H134765   6.172   2.855  12.467  1.2478  0.7456  0.3504
 4450TIP3    H234766   6.241   2.830  12.335 -2.7764 -1.2592 -1.5736
 4451TIP3   OH234767   4.131   0.652  15.457  0.9887  0.0485  0.0307
 4451TIP3    H134768   4.139   0.738  15.415  1.3870  0.2028  0.4152
 4451TIP3    H234769   4.192   0.596  15.409 -0.6694 -0.5405 -1.4972
 4452TIP3   OH234770   0.413   0.234   1.627 -0.4363 -0.4974 -0.4782
 4452TIP3    H134771   0.330   0.225   1.673  0.1649 -1.2492  0.4906
 4452TIP3    H234772   0.464   0.296   1.680 -0.2997 -0.1797 -0.9686
 4453TIP3   OH234773   5.461   0.030   1.206  0.6668 -0.4103  0.0225
 4453TIP3    H134774   5.526   0.001   1.270  1.3405  0.9958  0.0323
 4453TIP3    H234775   5.388   0.063   1.259  1.8740  2.2484  0.2315
 4454TIP3   OH234776   6.181   6.585  15.020 -0.0081  0.9574  0.5615
 4454TIP3    H134777   6.105   6.595  15.078 -0.3126  0.9847  0.1657
 4454TIP3    H234778   6.154   6.517  14.958  0.0464  1.4299  0.0185
 4455TIP3   OH234779   0.309   6.293   0.214  0.1332 -0.1728  0.4285
 4455TIP3    H134780   0.333   6.375   0.257 -0.0471 -1.0478  2.2883
 4455TIP3    H234781   0.380   6.276   0.153  0.2071  1.3204  0.0581
 4456TIP3   OH234782   4.893   4.296   1.343  0.3046  0.0475 -0.0147
 4456TIP3    H134783   4.957   4.259   1.282  0.4799 -1.3576  0.9624
 4456TIP3    H234784   4.946   4.348   1.404  0.6133 -1.3323  0.9556
 4457TIP3   OH234785   5.033   0.558   3.304  0.3038 -0.6533  0.4297
 4457TIP3    H134786   4.993   0.563   3.218 -0.9886 -0.8969  0.9960
 4457TIP3    H234787   5.056   0.465   3.315 -1.2917 -1.0001  1.0907
 4458TIP3   OH234788   6.768   6.483   3.336 -0.1006 -0.2130  0.4384
 4458TIP3    H134789   6.820   6.407   3.309 -1.6757 -0.9239 -0.6681
 4458TIP3    H234790   6.762   6.538   3.258  0.0859  0.5306  0.9313
 4459TIP3   OH234791   5.694   3.031  12.427  0.1444  0.1849 -0.0905
 4459TIP3    H134792   5.621   2.969  12.426 -0.1195  0.4933 -1.3280
 4459TIP3    H234793   5.662   3.105  12.480  0.7778 -1.0447  2.1548
 4460TIP3   OH234794   0.838   0.772  16.091  0.2991  0.0354 -0.3122
 4460TIP3    H134795   0.815   0.713  16.162  0.7137 -0.3999 -0.5319
 4460TIP3    H234796   0.779   0.749  16.020 -0.6800  1.0311  0.1543
 4461TIP3   OH234797   2.519   0.792   3.787 -0.2906  0.0633 -0.0519
 4461TIP3    H134798   2.573   0.722   3.822  0.7256  0.5792 -0.5527
 4461TIP3    H234799   2.440   0.792   3.842 -0.1296 -1.1967  0.1983
 4462TIP3   OH234800   2.446   5.859  17.272  0.6974 -0.0036  0.2615
 4462TIP3    H134801   2.517   5.891  17.328  1.6508  1.9586 -1.9115
 4462TIP3    H234802   2.390   5.935  17.258  0.2794 -0.5358 -1.1145
 4463TIP3   OH234803   3.524   4.406   0.828  0.1664 -0.4373 -0.6021
 4463TIP3    H134804   3.568   4.489   0.848 -0.2597 -0.1860 -0.7106
 4463TIP3    H234805   3.472   4.387   0.905  0.4592 -0.7333 -0.4768
 4464TIP3   OH234806   3.365   4.347  16.326 -0.1777 -0.6623 -0.4527
 4464TIP3    H134807   3.445   4.301  16.300 -0.0834 -0.4291 -0.5848
 4464TIP3    H234808   3.294   4.288  16.302 -0.0085 -1.2409  0.4362
 4465TIP3   OH234809   3.921   4.079  14.453 -0.0017 -0.7058 -0.1878
 4465TIP3    H134810   3.891   4.010  14.395  0.9039 -1.0112 -0.3081
 4465TIP3    H234811   3.979   4.133  14.399  0.4790 -0.7250  0.2916
 4466TIP3   OH234812   2.368   1.796  13.314 -0.2741  0.4138 -0.2580
 4466TIP3    H134813   2.350   1.881  13.275 -1.7006 -0.4128 -1.4856
 4466TIP3    H234814   2.351   1.733  13.244  1.7973 -0.8499  0.2869
 4467TIP3   OH234815   2.101   2.152  12.420  0.8046  0.0178  0.3657
 4467TIP3    H134816   2.081   2.244  12.403  1.2759 -0.0095 -0.4022
 4467TIP3    H234817   2.165   2.155  12.492  0.7593  0.2853  0.3984
 4468TIP3   OH234818   6.591   6.104   4.802 -0.1059 -0.3630  0.1298
 4468TIP3    H134819   6.534   6.084   4.728 -1.2514 -0.7551  1.0822
 4468TIP3    H234820   6.599   6.021   4.849  0.7717 -0.1686  0.3317
 4469TIP3   OH234821   2.803   6.568   2.852 -0.3482 -0.3941 -0.0769
 4469TIP3    H134822   2.787   6.625   2.777 -1.3889 -0.6352 -0.0422
 4469TIP3    H234823   2.778   6.481   2.822  1.3824 -0.8967 -0.1842
 4470TIP3   OH234824   2.174   1.519   3.433  0.2239  0.0505 -0.2304
 4470TIP3    H134825   2.240   1.570   3.481 -3.0259  1.1413  3.6346
 4470TIP3    H234826   2.170   1.435   3.479 -0.0562 -0.6038 -1.4110
 4471TIP3   OH234827   6.347   1.073  15.880  0.0326  0.1913 -0.2097
 4471TIP3    H134828   6.408   1.044  15.948  2.4875  1.2754 -1.8114
 4471TIP3    H234829   6.291   0.997  15.864  2.0928 -1.5092  0.1722
 4472TIP3   OH234830   4.793   3.102  12.150  0.2478 -0.2805  0.2734
 4472TIP3    H134831   4.865   3.087  12.211  0.6143  0.0970 -0.0525
 4472TIP3    H234832   4.811   3.189  12.114 -0.4477 -0.1306  0.2839
 4473TIP3   OH234833   5.727   3.056  11.114  0.7695 -0.0426  0.2400
 4473TIP3    H134834   5.792   2.995  11.151 -0.8873 -1.6214  0.6913
 4473TIP3    H234835   5.705   3.114  11.187  0.2983 -0.7140  0.6361
 4474TIP3   OH234836   1.950   3.371   5.146  0.0557  0.4984 -0.1920
 4474TIP3    H134837   1.952   3.465   5.167 -0.1012  0.2133  1.2376
 4474TIP3    H234838   2.034   3.338   5.177 -0.0151  0.1190 -0.3985
 4475TIP3   OH234839   2.319   4.608   0.389 -0.1316 -0.1830  0.7545
 4475TIP3    H134840   2.313   4.524   0.435  1.6503  0.4732  2.3462
 4475TIP3    H234841   2.240   4.612   0.335 -1.2021 -2.0365  2.0639
 4476TIP3   OH234842   5.357   3.245   4.952  0.8655  0.3325  0.1401
 4476TIP3    H134843   5.439   3.217   4.912  0.6148 -1.4440  0.7739
 4476TIP3    H234844   5.294   3.243   4.880  0.9032 -0.5658  0.1249
 4477TIP3   OH234845   0.172   4.428  12.675 -0.2070  0.1992 -0.4604
 4477TIP3    H134846   0.160   4.507  12.623  1.1055  1.1550  0.6110
 4477TIP3    H234847   0.258   4.395  12.648 -0.4171 -0.4504 -0.3549
 4478TIP3   OH234848   4.344   0.897   4.763  0.1900 -0.1831 -0.4715
 4478TIP3    H134849   4.326   0.986   4.733  1.1631  0.3931  0.5772
 4478TIP3    H234850   4.263   0.869   4.806  0.0117  0.3486 -0.4589
 4479TIP3   OH234851   2.428   5.560   5.070 -0.4568 -0.6244 -0.5528
 4479TIP3    H134852   2.419   5.476   5.116 -1.6671 -1.8609 -2.8528
 4479TIP3    H234853   2.430   5.536   4.978  2.9537  1.6302 -1.2374
 4480TIP3   OH234854   3.290   6.066   4.014 -0.2541  0.9747  0.4119
 4480TIP3    H134855   3.204   6.104   3.995  0.5123  1.8579 -1.6432
 4480TIP3    H234856   3.320   6.110   4.093 -1.5700  0.8492  0.9922
 4481TIP3   OH234857   4.646   3.434  12.593 -0.5248 -0.4501 -0.0112
 4481TIP3    H134858   4.736   3.436  12.627  0.3982  1.6579 -2.2528
 4481TIP3    H234859   4.645   3.362  12.531 -0.7106 -1.1230  0.7618
 4482TIP3   OH234860   3.378   5.420   1.515 -0.6049  0.0413 -0.3506
 4482TIP3    H134861   3.455   5.423   1.458  0.0876  0.8271  0.5854
 4482TIP3    H234862   3.327   5.346   1.483  0.7362 -0.7405 -0.7481
 4483TIP3   OH234863   5.651   5.826   2.593  0.1244 -0.0502 -0.5484
 4483TIP3    H134864   5.624   5.861   2.678 -1.2097  0.2243 -1.0673
 4483TIP3    H234865   5.743   5.803   2.605  0.3767  1.3859  0.5206
 4484TIP3   OH234866   0.091   5.511   2.369  0.0089  0.1955  0.7100
 4484TIP3    H134867   0.026   5.530   2.302 -1.3523  0.0448  1.9500
 4484TIP3    H234868   0.129   5.597   2.390 -1.8199  0.7501  1.9757
 4485TIP3   OH234869   0.220   3.314   3.409  0.3734  0.2257  0.2395
 4485TIP3    H134870   0.279   3.255   3.363 -0.3353  1.4288 -2.4118
 4485TIP3    H234871   0.257   3.322   3.497  0.3491 -4.2529  0.8408
 4486TIP3   OH234872   6.338   6.104   0.196 -0.2820  0.0302  1.0201
 4486TIP3    H134873   6.295   6.022   0.220  0.1000 -0.2763  0.6680
 4486TIP3    H234874   6.270   6.152   0.148 -0.7290  0.2260  1.8319
 4487TIP3   OH234875   1.190   4.360   3.103 -0.3298 -0.1353  0.4391
 4487TIP3    H134876   1.217   4.386   3.014  0.2036  1.3079  0.9800
 4487TIP3    H234877   1.245   4.285   3.123 -1.0024 -0.9736 -0.7293
 4488TIP3   OH234878   6.080   2.778  14.764 -0.4557  0.0388  0.3508
 4488TIP3    H134879   6.123   2.701  14.729 -0.8293  0.2582 -0.6127
 4488TIP3    H234880   6.134   2.851  14.735 -0.1202  0.1588  1.2308
 4489TIP3   OH234881   4.907   4.820   0.840  0.7434 -0.1086 -0.3485
 4489TIP3    H134882   4.959   4.819   0.760  1.1836  0.5596 -0.0782
 4489TIP3    H234883   4.902   4.728   0.867  0.8992 -0.2924 -0.9377
 4490TIP3   OH234884   2.845   2.942  13.334  0.0479 -0.0393  0.2026
 4490TIP3    H134885   2.819   3.029  13.303  0.0621 -0.9064 -2.5842
 4490TIP3    H234886   2.777   2.918  13.397 -1.2239  1.1383 -0.6452
 4491TIP3   OH234887   1.219   3.151  13.642  0.0528  0.3565  0.2579
 4491TIP3    H134888   1.182   3.063  13.647  2.2082 -0.6458 -0.1291
 4491TIP3    H234889   1.234   3.176  13.733  2.4246 -1.1080  0.3467
 4492TIP3   OH234890   0.219   0.955  14.703  0.0372  0.5514 -0.3092
 4492TIP3    H134891   0.178   0.877  14.664 -0.1836  0.3678  0.2762
 4492TIP3    H234892   0.235   0.930  14.794  1.5957  0.5655 -0.5540
 4493TIP3   OH234893   5.828   1.471   3.921 -0.1270  0.2872  0.2434
 4493TIP3    H134894   5.847   1.435   3.835 -0.0674  0.6330  0.1120
 4493TIP3    H234895   5.914   1.494   3.957 -0.1918  0.6512  0.1709
 4494TIP3   OH234896   2.500   3.809  12.179 -0.0403  1.0691  0.4962
 4494TIP3    H134897   2.446   3.768  12.112  0.3670 -0.1050  0.8586
 4494TIP3    H234898   2.590   3.792  12.150  0.1604 -0.1164  1.6774
 4495TIP3   OH234899   3.954   2.581  12.586 -0.7035  0.6416  0.2670
 4495TIP3    H134900   3.966   2.491  12.557  0.0477  0.1975  1.8468
 4495TIP3    H234901   3.941   2.574  12.681  0.3625  2.2555  0.5658
 4496TIP3   OH234902   3.699   1.968   0.374  0.9971 -0.6182  0.1032
 4496TIP3    H134903   3.617   1.976   0.324  0.0158  0.4675  1.7937
 4496TIP3    H234904   3.767   1.997   0.313 -0.0137 -0.3880 -0.9608
 4497TIP3   OH234905   5.289   2.296  12.796  0.1632 -0.3720 -0.0869
 4497TIP3    H134906   5.241   2.213  12.799  0.1790 -0.3760  0.1437
 4497TIP3    H234907   5.381   2.270  12.796  0.2905 -0.3601  3.3016
 4498TIP3   OH234908   0.543   0.163  13.759 -0.2089 -0.0553  0.3036
 4498TIP3    H134909   0.479   0.227  13.791 -0.5259  0.3723 -1.1283
 4498TIP3    H234910   0.490   0.099  13.711  0.4137  0.2276 -0.7827
 4499TIP3   OH234911   2.890   2.751  16.225 -0.3528 -0.8280 -0.5452
 4499TIP3    H134912   2.872   2.775  16.316 -2.9160  0.8914 -1.3963
 4499TIP3    H234913   2.929   2.664  16.231 -0.5953 -0.8384  2.1933
 4500TIP3   OH234914   6.132   5.622  12.504 -0.5207  0.0614 -0.3776
 4500TIP3    H134915   6.093   5.695  12.457  0.8990  0.3071 -1.2195
 4500TIP3    H234916   6.224   5.624  12.480  0.0105 -0.5785  1.4378
 4501TIP3   OH234917   1.308   4.334  12.967 -0.2426  0.1814 -0.3847
 4501TIP3    H134918   1.380   4.318  13.027  0.0806  1.0072 -0.5440
 4501TIP3    H234919   1.338   4.299  12.883 -0.3368 -0.1602 -0.2794
 4502TIP3   OH234920   3.140   5.270   1.996 -0.0601 -0.9120 -0.4279
 4502TIP3    H134921   3.105   5.230   2.075  1.6732 -1.3100  0.1889
 4502TIP3    H234922   3.084   5.346   1.980 -1.4928 -1.7933  0.1702
 4503TIP3   OH234923   3.653   0.814  15.897  0.3611  0.5920  0.0484
 4503TIP3    H134924   3.593   0.828  15.971 -2.1015  1.9552 -2.0651
 4503TIP3    H234925   3.731   0.865  15.920 -0.5987  1.5193  1.4037
 4504TIP3   OH234926   3.132   6.277  13.676  0.3271 -0.4028  0.0898
 4504TIP3    H134927   3.121   6.296  13.583  0.2188 -2.1029 -0.2823
 4504TIP3    H234928   3.226   6.291  13.692  0.0270  1.7093  0.2007
 4505TIP3   OH234929   5.922   0.991  14.363  0.5856  0.2508  0.2001
 4505TIP3    H134930   5.850   0.935  14.332  1.8855 -0.3191 -2.0395
 4505TIP3    H234931   5.993   0.931  14.382  0.6477  0.8423  2.0131
 4506TIP3   OH234932   4.862   3.221   5.346  0.0239  0.1159  0.1281
 4506TIP3    H134933   4.775   3.258   5.357  0.4384  1.2757 -0.3484
 4506TIP3    H234934   4.877   3.170   5.425 -0.2334  1.6897  1.2230
 4507TIP3   OH234935   1.932   0.270  14.890 -0.1304  0.3565  0.1485
 4507TIP3    H134936   1.974   0.270  14.805  0.2737 -1.8377  0.2796
 4507TIP3    H234937   1.969   0.194  14.935 -0.8752  1.0251  2.0046
 4508TIP3   OH234938   6.627   2.627  12.937 -0.2729 -0.1475 -0.1887
 4508TIP3    H134939   6.597   2.569  13.007 -1.4093 -0.6573 -1.0803
 4508TIP3    H234940   6.596   2.587  12.856  0.2639  0.8973 -0.9399
 4509TIP3   OH234941   5.571   5.817  11.556 -0.0358 -0.3328 -0.3162
 4509TIP3    H134942   5.593   5.725  11.547 -0.8121 -0.6133  0.5218
 4509TIP3    H234943   5.489   5.827  11.506 -0.2028 -0.2024 -0.0180
 4510TIP3   OH234944   3.888   2.247  14.820  0.4653 -0.4499  0.1479
 4510TIP3    H134945   3.834   2.325  14.803  0.4758 -0.7897 -1.5612
 4510TIP3    H234946   3.831   2.174  14.799  0.8378 -0.8870  0.6349
 4511TIP3   OH234947   1.394   5.957   0.915 -0.1559 -0.2144  0.1193
 4511TIP3    H134948   1.403   6.036   0.861  0.9850  0.3921  1.1630
 4511TIP3    H234949   1.369   5.888   0.852 -0.0545  0.7177 -0.9830
 4512TIP3   OH234950   6.479   0.631   1.267 -0.3290 -0.0896  0.4728
 4512TIP3    H134951   6.472   0.538   1.288 -0.4194 -0.5690 -1.4775
 4512TIP3    H234952   6.390   0.665   1.278 -0.5675 -0.5362 -0.0055
 4513TIP3   OH234953   6.276   0.754  15.103  0.0974  0.3300 -0.0014
 4513TIP3    H134954   6.316   0.799  15.178 -0.4203  0.8271 -0.0157
 4513TIP3    H234955   6.191   0.796  15.093 -1.1238 -1.7682  1.0388
 4514TIP3   OH234956   4.656   2.691   2.987  0.1488  0.2440 -0.0045
 4514TIP3    H134957   4.749   2.714   2.991  0.2953  0.2273 -2.1433
 4514TIP3    H234958   4.611   2.775   2.994  0.4604  0.5687 -1.3906
 4515TIP3   OH234959   4.448   5.243  12.429  0.2646  0.4376 -0.1029
 4515TIP3    H134960   4.445   5.300  12.352  1.4404 -0.1643 -0.6143
 4515TIP3    H234961   4.402   5.293  12.497  0.3307  1.5363 -0.8375
 4516TIP3   OH234962   3.758   1.965  12.976 -0.4899  0.1728 -0.4405
 4516TIP3    H134963   3.675   1.978  13.022 -0.9319 -1.1170 -0.8433
 4516TIP3    H234964   3.785   1.877  12.999  0.6837  0.5055 -0.4763
 4517TIP3   OH234965   1.099   0.486  16.109  0.8564  0.2704 -0.1716
 4517TIP3    H134966   1.019   0.435  16.120  1.4486 -0.6738 -0.1539
 4517TIP3    H234967   1.118   0.519  16.197  1.8368 -1.5928  0.3682
 4518TIP3   OH234968   3.633   0.594   5.444  0.1519  0.2877 -0.6471
 4518TIP3    H134969   3.565   0.643   5.490  0.7828  1.2079 -0.6813
 4518TIP3    H234970   3.660   0.651   5.372  1.0675 -0.0010 -0.5438
 4519TIP3   OH234971   3.156   6.278   5.136  0.2217  0.1897 -0.3512
 4519TIP3    H134972   3.213   6.232   5.074  1.7327 -0.8885  1.6958
 4519TIP3    H234973   3.170   6.232   5.219 -0.2953  2.6744  1.2162
 4520TIP3   OH234974   2.336   4.705   0.013  0.2171  0.1137 -0.1046
 4520TIP3    H134975   2.298   4.733   0.096  1.6728  1.9432  0.0328
 4520TIP3    H234976   2.263   4.705  -0.049 -0.6816 -0.2162  0.9301
 4521TIP3   OH234977   0.867   5.811   1.698 -0.4001  0.3772 -0.5666
 4521TIP3    H134978   0.857   5.897   1.741 -0.6932  1.7873 -3.2548
 4521TIP3    H234979   0.778   5.784   1.678 -0.3206 -0.7243  0.4744
 4522TIP3   OH234980   3.118   2.910   1.096  0.3557  0.1627  0.1664
 4522TIP3    H134981   3.059   2.835   1.102  1.3026 -0.4469  3.0360
 4522TIP3    H234982   3.060   2.986   1.105 -0.4513 -0.1877 -1.5371
 4523TIP3   OH234983   1.356   2.684  13.897  1.1729 -0.0639 -0.2448
 4523TIP3    H134984   1.403   2.711  13.818 -0.9128  0.9321 -1.2338
 4523TIP3    H234985   1.366   2.589  13.900 -0.6422 -0.4673 -3.1253
 4524TIP3   OH234986   4.036   2.349  15.773 -0.0704  0.4255 -0.0731
 4524TIP3    H134987   4.108   2.407  15.749 -1.1536  2.2918  0.9342
 4524TIP3    H234988   4.029   2.359  15.868  0.0373 -1.8294  0.2290
 4525TIP3   OH234989   6.681   5.254  14.093 -0.1705 -0.0459  0.5493
 4525TIP3    H134990   6.591   5.225  14.108 -0.9314  1.4795 -0.7012
 4525TIP3    H234991   6.728   5.232  14.173 -1.8144 -0.2592  1.4884
 4526TIP3   OH234992   3.679   6.636  13.081  0.3790 -0.2641 -0.0342
 4526TIP3    H134993   3.769   6.603  13.074  0.2023 -1.0413  1.0817
 4526TIP3    H234994   3.660   6.634  13.175 -0.5138  0.7015 -0.1777
 4527TIP3   OH234995   2.340   2.561  16.879  0.4414 -0.1225 -0.0701
 4527TIP3    H134996   2.408   2.598  16.823  2.0703 -0.3993  1.6211
 4527TIP3    H234997   2.335   2.622  16.953 -1.7288  0.2872 -0.4770
 4528TIP3   OH234998   1.477   1.238  12.350 -0.8901 -0.2731  0.1517
 4528TIP3    H134999   1.392   1.272  12.324 -0.0944  1.1536 -0.6954
 4528TIP3    H235000   1.532   1.315  12.363  0.3494 -1.1591  0.4392
 4529TIP3   OH235001   0.680   1.815  14.657 -0.0903  0.1768 -0.4373
 4529TIP3    H135002   0.694   1.805  14.751 -1.0035  0.4294 -0.2650
 4529TIP3    H235003   0.624   1.893  14.649 -0.1901  0.0372 -1.1743
 4530TIP3   OH235004   1.771   0.544  13.811  0.1495  0.4350 -0.5267
 4530TIP3    H135005   1.771   0.579  13.722 -3.1340  1.1598 -0.3789
 4530TIP3    H235006   1.724   0.461  13.804 -0.3868  0.6329  0.5566
 4531TIP3   OH235007   2.877   0.299   0.431  0.0314  0.1560  0.1709
 4531TIP3    H135008   2.846   0.389   0.421  0.4315  0.3657  0.7530
 4531TIP3    H235009   2.873   0.282   0.525 -1.0413 -0.8098 -0.0267
 4532TIP3   OH235010   1.023   0.575   6.286  0.0693  0.1650  0.4420
 4532TIP3    H135011   1.008   0.669   6.273  0.6472  0.2383  0.2735
 4532TIP3    H235012   1.113   0.569   6.318  1.0562 -0.5062 -2.1403
 4533TIP3   OH235013   3.210   2.534   2.635 -0.3260 -0.2073  0.4390
 4533TIP3    H135014   3.271   2.551   2.563 -1.5160 -1.0229 -0.8019
 4533TIP3    H235015   3.207   2.439   2.641 -0.1717 -0.1455  1.6512
 4534TIP3   OH235016   2.713   5.496  16.503 -0.0563  0.3884 -0.1793
 4534TIP3    H135017   2.782   5.475  16.440  0.5755 -0.9898  0.9261
 4534TIP3    H235018   2.758   5.502  16.587 -0.9738  1.6391  0.2553
 4535TIP3   OH235019   2.074   1.929   3.824 -0.1193  0.4772 -0.2045
 4535TIP3    H135020   2.030   1.844   3.829  1.2800 -0.2873 -0.2128
 4535TIP3    H235021   2.063   1.956   3.733 -2.5392  1.4471  0.3224
 4536TIP3   OH235022   1.617   1.280   3.184 -0.3651 -0.7087 -0.5870
 4536TIP3    H135023   1.528   1.305   3.207 -0.2774 -1.5707  0.8087
 4536TIP3    H235024   1.606   1.204   3.127 -0.5305 -0.6030 -0.6965
 4537TIP3   OH235025   6.137   5.023   0.154 -0.2193  0.2570 -0.1452
 4537TIP3    H135026   6.215   5.000   0.205 -0.8951 -0.8656  0.4230
 4537TIP3    H235027   6.172   5.050   0.069  0.7713 -1.2518 -0.2701
 4538TIP3   OH235028   4.464   5.457   5.927 -0.2097 -1.0596 -0.2442
 4538TIP3    H135029   4.428   5.406   5.999 -0.6657 -0.0945  0.2226
 4538TIP3    H235030   4.542   5.499   5.964 -1.0592  0.3199  0.0311
 4539TIP3   OH235031   4.649   1.952   6.277 -0.3402  0.6798 -0.6180
 4539TIP3    H135032   4.568   1.962   6.228 -0.2905  1.6878 -0.5212
 4539TIP3    H235033   4.639   2.011   6.352  0.3374  0.5553 -0.4228
 4540TIP3   OH235034   5.500   4.445   3.120 -0.1346 -0.1793  0.1836
 4540TIP3    H135035   5.535   4.360   3.148  0.7569 -0.4474 -1.5993
 4540TIP3    H235036   5.543   4.509   3.177  0.0369 -0.8280  0.8001
 4541TIP3   OH235037   5.839   3.554  17.104 -0.2789  0.2261  0.3626
 4541TIP3    H135038   5.830   3.495  17.030  1.2425 -0.5877  0.7760
 4541TIP3    H235039   5.750   3.578  17.128 -0.8158 -0.1809 -1.1705
 4542TIP3   OH235040   2.045   4.151  13.943  0.6744  0.4017 -0.1561
 4542TIP3    H135041   2.119   4.209  13.923  0.3330  1.0039  0.2900
 4542TIP3    H235042   1.982   4.166  13.872  1.2882 -0.6733 -0.9502
 4543TIP3   OH235043   6.565   3.193  14.729  0.0131 -0.6942  0.2113
 4543TIP3    H135044   6.522   3.263  14.778  0.3311 -0.6535  0.4325
 4543TIP3    H235045   6.536   3.112  14.771 -1.6958 -0.8060 -1.0756
 4544TIP3   OH235046   6.200   4.537  16.248 -0.3823  0.1540  0.3521
 4544TIP3    H135047   6.122   4.481  16.252 -0.2244  0.0086  3.1750
 4544TIP3    H235048   6.167   4.620  16.215 -1.7930  0.1259  1.5889
 4545TIP3   OH235049   1.436   3.377   3.095  0.3260 -0.3886 -0.3138
 4545TIP3    H135050   1.358   3.379   3.039 -0.1646 -1.3401  0.3032
 4545TIP3    H235051   1.401   3.387   3.184  1.0872  1.0370 -0.1605
 4546TIP3   OH235052   6.037   2.008  13.813 -0.1611  0.4533  0.2742
 4546TIP3    H135053   6.001   1.920  13.822 -2.6847  1.1146 -2.0352
 4546TIP3    H235054   6.047   2.021  13.719  1.7981  2.0943  0.6183
 4547TIP3   OH235055   6.149   2.840   4.803  0.6289 -0.2642 -0.2175
 4547TIP3    H135056   6.126   2.919   4.754  1.5071 -0.2860 -0.6838
 4547TIP3    H235057   6.242   2.850   4.824  0.3392 -0.3920  1.2195
 4548TIP3   OH235058   3.679   3.949   3.962  0.2976 -0.7681 -0.1169
 4548TIP3    H135059   3.688   3.893   3.886  0.5394  0.6592 -1.1837
 4548TIP3    H235060   3.765   3.991   3.972  0.4221 -1.2830  1.2437
 4549TIP3   OH235061   6.767   4.182  14.247  0.3734  0.3813 -0.1524
 4549TIP3    H135062   6.821   4.107  14.225 -0.2523 -0.6865  1.6933
 4549TIP3    H235063   6.829   4.254  14.259  1.0438 -0.0001 -1.2692
 4550TIP3   OH235064   3.059   6.750   3.533 -0.3798  0.1026 -0.4460
 4550TIP3    H135065   3.105   6.779   3.612  0.5083  0.4930 -1.0956
 4550TIP3    H235066   3.100   6.798   3.462 -0.6992 -0.7608 -1.2372
 4551TIP3   OH235067   5.373   2.588  14.689  0.0288 -0.0087 -0.1897
 4551TIP3    H135068   5.321   2.588  14.609 -0.5227 -0.7076  0.1645
 4551TIP3    H235069   5.407   2.499  14.697  0.2326  0.1004  0.2615
 4552TIP3   OH235070   6.707   3.415  13.523 -0.2553 -0.4630 -0.4731
 4552TIP3    H135071   6.715   3.405  13.428  2.4850 -0.1240 -0.3798
 4552TIP3    H235072   6.720   3.327  13.557 -0.9549 -0.5382 -0.3958
 4553TIP3   OH235073   0.943   1.708   2.662 -0.1184 -0.2518 -0.6454
 4553TIP3    H135074   0.856   1.681   2.632 -1.2676  1.6760  0.7215
 4553TIP3    H235075   0.954   1.797   2.630  2.7387 -1.3927 -3.3753
 4554TIP3   OH235076   6.761   0.511  14.697  0.2627 -0.1471 -0.5492
 4554TIP3    H135077   6.835   0.464  14.736  1.3416  0.9428 -1.1912
 4554TIP3    H235078   6.802   0.583  14.648 -1.2714  0.8924 -0.3669
 4555TIP3   OH235079   5.628   2.133  10.411 -0.1630  0.0062  0.3465
 4555TIP3    H135080   5.650   2.226  10.412  0.2839 -0.0699  2.5080
 4555TIP3    H235081   5.687   2.094  10.475 -2.2552 -1.2963  1.5690
 4556TIP3   OH235082   4.149   6.536   5.812  0.0977  0.5372  0.3708
 4556TIP3    H135083   4.126   6.545   5.904  0.7032 -1.8463  0.8395
 4556TIP3    H235084   4.080   6.582   5.764 -0.3717  1.5762  2.0005
 4557TIP3   OH235085   3.799   4.908   0.248  0.8054 -0.0333 -0.0654
 4557TIP3    H135086   3.744   4.978   0.283 -0.4662 -0.2255 -1.5770
 4557TIP3    H235087   3.867   4.954   0.198  0.1250  0.1480 -0.8408
 4558TIP3   OH235088   2.237   1.421   1.698  0.2374  0.0643 -0.0014
 4558TIP3    H135089   2.299   1.350   1.686 -3.2228 -3.3151  0.0796
 4558TIP3    H235090   2.235   1.436   1.793 -0.5827 -1.4408  0.2506
 4559TIP3   OH235091   0.751   3.502   2.231  0.4894 -0.0018  0.1377
 4559TIP3    H135092   0.742   3.416   2.191 -2.3608 -0.3726  1.3219
 4559TIP3    H235093   0.729   3.488   2.323  0.5846  1.8848  0.4929
 4560TIP3   OH235094   6.699   2.653  13.740 -0.3136 -0.3495  0.3357
 4560TIP3    H135095   6.684   2.597  13.816 -0.4663  1.3975  1.6782
 4560TIP3    H235096   6.615   2.656  13.695 -1.9077  2.6539  3.0766
 4561TIP3   OH235097   4.465   6.174  15.694 -0.0023 -0.5308 -0.2170
 4561TIP3    H135098   4.421   6.211  15.770 -0.5866 -2.6495  0.5576
 4561TIP3    H235099   4.557   6.195  15.706 -0.3028  0.5898  0.1851
 4562TIP3   OH235100   4.412   6.767  11.505 -0.2300  0.2697 -0.0932
 4562TIP3    H135101   4.474   6.695  11.490 -0.2027  0.1217  0.7052
 4562TIP3    H235102   4.410   6.778  11.600  0.0276  1.5559 -0.2172
 4563TIP3   OH235103   0.525   0.038   3.561 -0.5587 -0.5506  0.1580
 4563TIP3    H135104   0.432   0.034   3.582 -0.8769  0.2706 -0.9949
 4563TIP3    H235105   0.569   0.030   3.645 -1.7182  0.8428  0.9387
 4564TIP3   OH235106   5.553   1.035  13.009 -0.6681  0.0773 -0.1114
 4564TIP3    H135107   5.497   1.039  13.087 -0.3134 -0.5579  0.1883
 4564TIP3    H235108   5.606   1.114  13.014 -1.5048  0.6612 -0.3745
 4565TIP3   OH235109   5.429   2.236   3.046 -0.2004  0.1063 -0.0727
 4565TIP3    H135110   5.451   2.312   3.100  0.9889  1.5511 -2.4581
 4565TIP3    H235111   5.467   2.162   3.093  1.5547  1.4014  0.6771
 4566TIP3   OH235112   6.225   2.484   1.096 -0.1742 -0.5485  0.1559
 4566TIP3    H135113   6.284   2.453   1.027  1.0450  1.2714  0.3288
 4566TIP3    H235114   6.176   2.556   1.055 -1.8890 -1.6225  0.2041
 4567TIP3   OH235115   6.323   0.093   3.730  0.1227  0.1407  0.5243
 4567TIP3    H135116   6.246   0.040   3.709  0.0552  0.5019 -0.1980
 4567TIP3    H235117   6.293   0.183   3.720  0.5385  0.2943  0.6297
 4568TIP3   OH235118   0.030   2.060   0.058  0.0192  0.5234  0.1060
 4568TIP3    H135119   0.009   2.141   0.106  1.1992 -0.5634  2.6521
 4568TIP3    H235120  -0.048   2.041   0.007 -0.2845  3.2467 -0.6023
 4569TIP3   OH235121   3.372   2.935  12.017 -0.3285 -0.0247 -0.1157
 4569TIP3    H135122   3.433   2.864  11.997 -0.2140  0.1527 -0.4031
 4569TIP3    H235123   3.286   2.896  12.008 -0.2774  0.0041 -0.7969
 4570TIP3   OH235124   2.776   5.667  11.457  0.2314  0.1609 -0.4226
 4570TIP3    H135125   2.858   5.618  11.461  0.5406  0.6631 -0.4841
 4570TIP3    H235126   2.731   5.632  11.380  1.0281  0.8512 -1.2233
 4571TIP3   OH235127   6.634   4.846  13.554  0.5258 -0.3287 -0.0928
 4571TIP3    H135128   6.707   4.793  13.523 -0.3030 -2.0627  0.7402
 4571TIP3    H235129   6.674   4.918  13.603  1.6825 -1.1141  0.1417
 4572TIP3   OH235130   2.288   1.136  11.457 -0.1715 -0.1478 -0.5410
 4572TIP3    H135131   2.306   1.141  11.550 -0.3521  1.4264 -0.5652
 4572TIP3    H235132   2.295   1.043  11.436 -1.3969 -0.7076  1.2905
 4573TIP3   OH235133   3.984   5.869   0.322  0.3573 -0.0096  0.6769
 4573TIP3    H135134   3.901   5.915   0.317  0.2062 -0.3939 -1.0914
 4573TIP3    H235135   3.991   5.823   0.238  1.7239 -1.0731  1.3293
 4574TIP3   OH235136   1.642   4.125  11.404  0.0246 -0.1538  0.1642
 4574TIP3    H135137   1.587   4.171  11.341 -0.4199  1.2469  1.5130
 4574TIP3    H235138   1.700   4.192  11.439 -1.4861 -0.1918  3.1103
 4575TIP3   OH235139   2.964   0.773  13.716  0.1851  0.5916  0.0314
 4575TIP3    H135140   2.976   0.753  13.809 -1.2720  1.2651  0.3873
 4575TIP3    H235141   2.874   0.805  13.710 -0.5304 -1.5407 -1.9668
 4576TIP3   OH235142   3.781   1.496   4.783 -0.1132  0.6953  0.0115
 4576TIP3    H135143   3.826   1.467   4.703 -0.7548  1.0101 -0.4789
 4576TIP3    H235144   3.696   1.452   4.779  0.0374  0.3196  0.7896
 4577TIP3   OH235145   4.477   0.288   1.953  0.3583  0.0685 -0.0142
 4577TIP3    H135146   4.507   0.262   1.866 -0.5227 -2.4299  0.3607
 4577TIP3    H235147   4.507   0.218   2.011  0.1861  1.2510  1.5871
 4578TIP3   OH235148   5.290   0.366   0.857  0.1418  0.7341 -0.0757
 4578TIP3    H135149   5.381   0.335   0.864 -0.1939  0.1351  2.6247
 4578TIP3    H235150   5.298   0.461   0.854  0.8868  0.6588 -1.2731
 4579TIP3   OH235151   6.474   2.842  16.092  0.0134  0.5908 -0.1315
 4579TIP3    H135152   6.381   2.863  16.106  0.2625  1.2932  0.6344
 4579TIP3    H235153   6.486   2.845  15.998 -1.0374 -0.8606 -0.3322
 4580TIP3   OH235154   5.341   5.870  12.089  0.4983  0.2579  0.2289
 4580TIP3    H135155   5.321   5.821  12.009  0.4555  1.5904 -0.6033
 4580TIP3    H235156   5.394   5.809  12.141 -0.7627 -1.1932 -0.1071
 4581TIP3   OH235157   6.365   6.744  17.062 -0.4658 -0.1854 -0.0728
 4581TIP3    H135158   6.332   6.819  17.012 -0.8492 -0.1005  0.2970
 4581TIP3    H235159   6.384   6.780  17.148  2.9315  0.3320 -0.8837
 4582TIP3   OH235160   1.769   4.328  12.635 -0.3486 -0.0348 -0.1846
 4582TIP3    H135161   1.761   4.288  12.722  1.4319 -0.5098 -0.2032
 4582TIP3    H235162   1.859   4.310  12.608 -0.6278  0.7832 -1.8101
 4583TIP3   OH235163   0.701   0.580  17.126 -0.5425  0.0561 -0.3848
 4583TIP3    H135164   0.787   0.614  17.150 -0.5419 -0.1781 -0.0352
 4583TIP3    H235165   0.712   0.549  17.036 -1.1437  2.9828 -1.5544
 4584TIP3   OH235166   1.403   1.433  14.887 -0.1712 -0.2172  0.3191
 4584TIP3    H135167   1.358   1.372  14.829  0.9658 -1.1466  0.3737
 4584TIP3    H235168   1.478   1.384  14.920  0.7805  1.2058  0.3743
 4585TIP3   OH235169   4.837   0.851   3.495 -0.0982 -0.4762  0.2578
 4585TIP3    H135170   4.872   0.812   3.575 -1.9580 -1.7730  0.5001
 4585TIP3    H235171   4.764   0.795   3.470 -0.6737  0.8942 -1.3904
 4586TIP3   OH235172   1.220   1.939  12.866 -0.1091  0.4453  0.0153
 4586TIP3    H135173   1.176   1.854  12.867  1.8476 -0.7402 -2.1665
 4586TIP3    H235174   1.311   1.918  12.887 -0.1186  2.5503  2.7311
 4587TIP3   OH235175   1.168   1.490  15.481  0.1006 -0.0249 -0.1326
 4587TIP3    H135176   1.202   1.401  15.477 -0.0326 -0.0909  0.1930
 4587TIP3    H235177   1.244   1.545  15.462 -0.2049 -0.2470 -2.3085
 4588TIP3   OH235178   6.127   5.377  14.634  0.0168 -0.0019  0.6075
 4588TIP3    H135179   6.130   5.332  14.718 -0.0500 -0.0601  0.5792
 4588TIP3    H235180   6.126   5.306  14.569 -0.1938  0.0360  0.5664
 4589TIP3   OH235181   4.370   4.875  14.100 -0.1803 -0.3607 -0.1443
 4589TIP3    H135182   4.408   4.797  14.140  0.4451 -0.8279 -1.5750
 4589TIP3    H235183   4.419   4.948  14.138 -1.6484 -0.4746  2.2180
 4590TIP3   OH235184   5.498   3.201   3.686  0.2831 -0.1596 -0.0225
 4590TIP3    H135185   5.423   3.258   3.670  0.1946 -0.5504 -1.0686
 4590TIP3    H235186   5.573   3.251   3.654  0.4022 -0.0083  0.4842
 4591TIP3   OH235187   4.384   5.099  16.617 -0.3865 -0.4355 -0.1982
 4591TIP3    H135188   4.333   5.158  16.563 -0.1833  0.2812  0.3824
 4591TIP3    H235189   4.362   5.011  16.584 -0.0565 -0.0056 -1.6054
 4592TIP3   OH235190   4.304   5.513   1.959  0.0657  0.3660 -0.2129
 4592TIP3    H135191   4.251   5.497   1.881  0.6064 -1.6614 -0.2481
 4592TIP3    H235192   4.269   5.593   1.998 -0.3462  1.3059 -2.4079
 4593TIP3   OH235193   0.389   0.376  16.028 -0.6249  0.3319  0.4726
 4593TIP3    H135194   0.341   0.377  16.111 -0.7242 -1.7289  0.4894
 4593TIP3    H235195   0.448   0.301  16.035 -0.9311 -0.1427 -1.4740
 4594TIP3   OH235196   5.827   4.173  16.124  0.0347  0.8223  0.2720
 4594TIP3    H135197   5.744   4.171  16.172  0.7917 -0.2413  1.6105
 4594TIP3    H235198   5.808   4.127  16.042 -0.6518  0.3733  0.6714
 4595TIP3   OH235199   5.732   6.529  15.004  0.0189 -0.1041 -0.0696
 4595TIP3    H135200   5.727   6.608  14.950 -1.1828  0.3902  0.7160
 4595TIP3    H235201   5.762   6.460  14.944 -0.1171  0.6794 -1.0648
 4596TIP3   OH235202   1.951   5.954   2.570  0.0139  0.6328 -0.4672
 4596TIP3    H135203   1.861   5.988   2.565 -0.8261 -1.2533  0.3308
 4596TIP3    H235204   1.964   5.937   2.663 -0.7178 -3.5967 -0.9347
 4597TIP3   OH235205   0.074   1.376   3.830  0.3189 -0.7972  0.2379
 4597TIP3    H135206   0.097   1.309   3.895  1.6114  0.4870  1.1639
 4597TIP3    H235207  -0.017   1.397   3.849  0.0865 -1.8236  0.3376
 4598TIP3   OH235208   5.100   1.249   0.722 -0.4528 -0.0436  0.3618
 4598TIP3    H135209   5.047   1.328   0.708  0.9090  0.8145 -0.1017
 4598TIP3    H235210   5.045   1.193   0.777 -0.5377  2.2412  2.7994
 4599TIP3   OH235211   0.823   1.162  11.280  0.0629  0.1972 -0.2850
 4599TIP3    H135212   0.880   1.227  11.240  0.8783 -0.4303 -0.1536
 4599TIP3    H235213   0.749   1.214  11.314  1.0046  1.1482  0.3902
 4600TIP3   OH235214   6.351   0.541   5.907  0.3040  0.0423 -0.9840
 4600TIP3    H135215   6.364   0.510   5.817  0.0932  1.9279 -1.7246
 4600TIP3    H235216   6.390   0.629   5.908  0.6914 -0.1169  0.9047
 4601TIP3   OH235217   3.087   1.217  13.149 -0.1231  0.1605 -0.3755
 4601TIP3    H135218   3.030   1.140  13.145  0.9562 -0.5928 -2.8465
 4601TIP3    H235219   3.100   1.242  13.058  1.1978  2.0699  0.2782
 4602TIP3   OH235220   0.325   6.178  12.041  0.0166 -0.4600  0.3999
 4602TIP3    H135221   0.306   6.166  12.134  1.1912 -0.2383  0.6809
 4602TIP3    H235222   0.304   6.270  12.024  0.2984 -0.3641  0.5711
 4603TIP3   OH235223   2.511   4.156   5.160  0.5617 -0.6740 -0.9209
 4603TIP3    H135224   2.482   4.242   5.128  1.3397 -0.6773 -1.7014
 4603TIP3    H235225   2.432   4.114   5.193  0.6906  1.9802  3.5810
 4604TIP3   OH235226   1.715   6.376  14.592  0.1624 -0.3717  0.2739
 4604TIP3    H135227   1.688   6.456  14.636  1.1436 -0.5478  1.2270
 4604TIP3    H235228   1.738   6.316  14.662  3.0915 -0.1979 -0.4295
 4605TIP3   OH235229   3.431   6.083  16.027  0.2084 -0.0428  0.5187
 4605TIP3    H135230   3.522   6.055  16.036  0.2598 -0.4595 -1.0149
 4605TIP3    H235231   3.422   6.107  15.935 -0.6918  2.0100  1.0623
 4606TIP3   OH235232   5.993   3.456  14.654  0.1635  0.1742  0.4057
 4606TIP3    H135233   5.940   3.383  14.623  1.2339 -0.6178  0.3630
 4606TIP3    H235234   5.957   3.533  14.610  1.7118 -0.8802 -3.1068
 4607TIP3   OH235235   1.633   5.695  11.436 -0.5162  0.4030  0.4008
 4607TIP3    H135236   1.632   5.745  11.355 -0.4011  0.4854  0.4497
 4607TIP3    H235237   1.726   5.686  11.458 -0.3749 -1.7837 -0.8047
 4608TIP3   OH235238   4.664   2.706   6.090 -0.0520  0.4169  0.3582
 4608TIP3    H135239   4.589   2.659   6.055  0.6494 -0.3604 -0.1308
 4608TIP3    H235240   4.642   2.721   6.182 -0.5314 -0.3608  0.3757
 4609TIP3   OH235241   0.646   0.631  12.282  0.3450  0.3888 -0.3469
 4609TIP3    H135242   0.718   0.669  12.333  0.6353  0.2627 -0.6626
 4609TIP3    H235243   0.677   0.544  12.258 -0.2567 -0.0022  0.2425
 4610TIP3   OH235244   1.609   5.866  13.234  0.2185  0.2741 -0.3840
 4610TIP3    H135245   1.565   5.823  13.160 -0.6498  0.5472 -0.0358
 4610TIP3    H235246   1.667   5.799  13.270 -0.5696 -0.3710 -0.3077
 4611TIP3   OH235247   3.737   2.368  11.067 -0.2803 -0.7221  0.0853
 4611TIP3    H135248   3.808   2.400  11.011 -0.0495  1.2523  1.4199
 4611TIP3    H235249   3.668   2.341  11.006  0.4843  0.0665 -1.1611
 4612TIP3   OH235250   4.427   0.903  11.606 -0.3264 -0.3652 -0.0768
 4612TIP3    H135251   4.415   0.903  11.511  0.9654 -0.3741 -0.2572
 4612TIP3    H235252   4.402   0.991  11.633 -0.9532 -0.4407 -0.3791
 4613TIP3   OH235253   0.413   2.248  12.355  0.0688  0.0158  0.2561
 4613TIP3    H135254   0.329   2.254  12.401 -0.1690  0.2752 -0.2023
 4613TIP3    H235255   0.414   2.160  12.317  0.0848 -0.0506  0.4093
 4614TIP3   OH235256   3.682   4.676   5.579  0.5247  0.1703 -0.1985
 4614TIP3    H135257   3.741   4.601   5.572  0.3057 -0.0811  0.5497
 4614TIP3    H235258   3.605   4.651   5.528  0.4016 -0.1680  0.1486
 4615TIP3   OH235259   4.646   1.285  12.203 -0.2043  0.1563  0.7462
 4615TIP3    H135260   4.676   1.364  12.249  1.5087  0.3273 -0.5737
 4615TIP3    H235261   4.703   1.215  12.237 -0.2505 -0.0834  0.3300
 4616TIP3   OH235262   4.256   6.562  13.918  0.4867 -0.0275  0.0788
 4616TIP3    H135263   4.162   6.541  13.911  0.6995 -1.2125  0.6000
 4616TIP3    H235264   4.259   6.640  13.973 -0.1995  0.1246 -0.0875
 4617TIP3   OH235265   5.984   1.621   0.332  0.0672 -0.0429 -0.4753
 4617TIP3    H135266   5.953   1.535   0.305 -1.0062  0.9278 -2.5860
 4617TIP3    H235267   6.058   1.639   0.274  0.8588  0.1290  0.5535
 4618TIP3   OH235268   6.316   2.770  12.116  0.2918 -0.4412  0.1975
 4618TIP3    H135269   6.233   2.737  12.080  0.3645 -0.9372  0.4706
 4618TIP3    H235270   6.313   2.864  12.101 -0.3956 -0.4342  0.3427
 4619TIP3   OH235271   3.800   3.986   0.042  0.8486  0.2402 -0.2059
 4619TIP3    H135272   3.773   3.932  -0.033  1.8273 -0.1515 -0.2945
 4619TIP3    H235273   3.747   3.953   0.115  0.7386 -0.1834 -0.4706
 4620TIP3   OH235274   1.234   0.792   5.425  0.1516  0.4797 -0.3479
 4620TIP3    H135275   1.233   0.710   5.375  1.4587  1.2140 -1.6480
 4620TIP3    H235276   1.276   0.769   5.508 -1.0440 -0.5195  0.0031
 4621TIP3   OH235277   5.650   0.819  13.365 -0.2499  0.3855  0.3951
 4621TIP3    H135278   5.705   0.770  13.303  1.6917  3.4205 -0.4792
 4621TIP3    H235279   5.676   0.785  13.451  2.8013  1.3672 -0.0264
 4622TIP3   OH235280   0.166   6.411  14.448  0.0758  0.4470  0.2867
 4622TIP3    H135281   0.228   6.483  14.456 -1.0551  1.6268 -1.1782
 4622TIP3    H235282   0.222   6.333  14.437  1.2961  1.3325 -0.0159
 4623TIP3   OH235283   6.702   3.439   3.715  0.2906  0.3124  0.7420
 4623TIP3    H135284   6.720   3.470   3.626  1.8285 -1.2621  0.4530
 4623TIP3    H235285   6.785   3.401   3.744 -0.4288  0.0468  2.5500
 4624TIP3   OH235286   0.878   2.043   6.605  0.2711  0.0471 -0.0630
 4624TIP3    H135287   0.954   1.993   6.575  0.7356 -0.4268  1.7963
 4624TIP3    H235288   0.824   1.980   6.652 -2.0971  0.0273 -2.5697
 4625TIP3   OH235289   0.461   0.622   1.394  0.2704 -0.9188  0.2805
 4625TIP3    H135290   0.394   0.686   1.369  1.2144 -0.0181 -0.0062
 4625TIP3    H235291   0.411   0.542   1.411 -0.8993 -0.2325  0.2527
 4626TIP3   OH235292   4.237   5.709   5.266 -0.1833 -0.0043 -0.3690
 4626TIP3    H135293   4.204   5.711   5.176  0.2369  2.6512 -0.5266
 4626TIP3    H235294   4.331   5.723   5.258  0.0562 -0.9417  0.4656
 4627TIP3   OH235295   1.637   5.959   5.444 -0.1261 -0.1461 -0.3261
 4627TIP3    H135296   1.564   5.987   5.499  1.3767  1.9350  0.7967
 4627TIP3    H235297   1.681   6.041   5.420  1.4702 -1.2755 -1.4624
 4628TIP3   OH235298   4.994   4.147   1.095 -0.3602  0.0997  0.5443
 4628TIP3    H135299   5.072   4.176   1.143 -0.8001  1.4885  0.4556
 4628TIP3    H235300   5.015   4.161   1.003 -1.2227  1.8807  0.5831
 4629TIP3   OH235301   1.564   2.134   5.194  0.4799 -0.2174  0.2841
 4629TIP3    H135302   1.513   2.207   5.231 -0.3793  0.5336 -2.1883
 4629TIP3    H235303   1.581   2.077   5.269 -0.8855  1.3264  1.8779
 4630TIP3   OH235304   1.646   3.022   2.165 -0.0046  0.0784 -0.9089
 4630TIP3    H135305   1.676   3.112   2.158 -0.4773  0.1217 -2.6222
 4630TIP3    H235306   1.570   3.027   2.223 -0.3636  0.8767 -1.4281
 4631TIP3   OH235307   1.086   1.626   0.744 -0.4369  0.3262 -0.2290
 4631TIP3    H135308   1.128   1.656   0.825  0.5498 -1.6400  0.0469
 4631TIP3    H235309   1.076   1.705   0.691  2.1114  1.1457  0.3972
 4632TIP3   OH235310   0.758   6.438   1.630  0.2858  0.0391 -0.3387
 4632TIP3    H135311   0.723   6.492   1.559  0.8147 -0.1584 -0.7523
 4632TIP3    H235312   0.797   6.362   1.587  2.7050  1.0298 -0.0599
 4633TIP3   OH235313   2.958   1.931   3.983 -0.5772 -0.4683 -0.1351
 4633TIP3    H135314   2.909   1.857   3.947 -2.1283 -0.8257  2.3932
 4633TIP3    H235315   3.049   1.914   3.958 -1.0895 -2.4194 -0.9189
 4634TIP3   OH235316   0.034   4.755   5.714 -0.6179  0.1289  0.5177
 4634TIP3    H135317  -0.033   4.697   5.750  0.6360 -2.1046 -0.5711
 4634TIP3    H235318   0.109   4.698   5.697 -0.6793  1.1524 -4.5177
 4635TIP3   OH235319   5.116   5.466   0.830  0.3023  0.7666 -0.1421
 4635TIP3    H135320   5.108   5.370   0.830  1.6548  0.6320 -0.9872
 4635TIP3    H235321   5.034   5.497   0.792  0.4027 -0.1399 -1.1557
 4636TIP3   OH235322   0.622   0.968  13.081  0.0443 -0.0371 -0.8259
 4636TIP3    H135323   0.534   0.951  13.112  0.0489  1.3712  0.0408
 4636TIP3    H235324   0.614   0.973  12.986 -0.7231 -0.3236 -0.7805
 4637TIP3   OH235325   2.816   5.215   3.824 -0.1134 -0.3114  0.1164
 4637TIP3    H135326   2.883   5.188   3.886  0.6386  1.0615 -0.0497
 4637TIP3    H235327   2.812   5.145   3.759  0.5279 -0.8113  0.6097
 4638TIP3   OH235328   4.048   1.943   6.432 -0.1524  0.5870  0.2315
 4638TIP3    H135329   3.967   1.955   6.381 -0.2948  1.5376  0.6480
 4638TIP3    H235330   4.037   1.859   6.475 -1.4225  1.1827  1.1425
 4639TIP3   OH235331   2.931   5.729  14.148 -0.1660  0.2498 -0.3469
 4639TIP3    H135332   2.936   5.646  14.099  1.4533  0.8010 -1.1835
 4639TIP3    H235333   2.902   5.703  14.235 -2.6476 -0.8383 -1.3840
 4640TIP3   OH235334   6.234   1.803  11.903  0.1074 -1.0014  0.2800
 4640TIP3    H135335   6.222   1.711  11.925  0.8409 -1.1384  0.1167
 4640TIP3    H235336   6.323   1.809  11.869 -0.0341 -0.2844  0.0111
 4641TIP3   OH235337   5.597   3.709   3.926  0.5652 -0.0704  0.5811
 4641TIP3    H135338   5.647   3.786   3.952  0.1473 -0.5543  3.0419
 4641TIP3    H235339   5.663   3.639   3.918  0.5527 -0.3083  2.1575
 4642TIP3   OH235340   3.718   4.614  16.276 -0.0332 -0.1898  0.0623
 4642TIP3    H135341   3.812   4.626  16.291 -0.1271  0.0692  0.4675
 4642TIP3    H235342   3.691   4.548  16.340 -0.4218  0.8626  1.0106
 4643TIP3   OH235343   3.014   2.820   3.041  0.0489  0.3281 -0.1567
 4643TIP3    H135344   2.950   2.864   2.985  1.5922  0.0287 -2.2847
 4643TIP3    H235345   3.087   2.882   3.046  1.1674 -0.8751 -1.0183
 4644TIP3   OH235346   2.542   5.449  15.064  0.0188  0.0052 -0.0221
 4644TIP3    H135347   2.600   5.489  15.129 -0.2788 -2.0304  1.6148
 4644TIP3    H235348   2.485   5.521  15.035 -0.7929  0.7661  3.0670
 4645TIP3   OH235349   3.596   4.591  14.761 -0.1416  0.1192  0.1602
 4645TIP3    H135350   3.683   4.599  14.720 -0.0079 -0.4046  0.3352
 4645TIP3    H235351   3.535   4.614  14.691  0.0392 -1.6536 -0.6403
 4646TIP3   OH235352   1.743   5.456   1.241 -0.0244 -0.8121  0.3557
 4646TIP3    H135353   1.794   5.375   1.247 -0.4563 -1.1696 -0.6280
 4646TIP3    H235354   1.698   5.449   1.157 -0.1605  0.4003  0.3240
 4647TIP3   OH235355   1.147   0.343   1.032 -0.3764 -0.3079 -0.0894
 4647TIP3    H135356   1.110   0.324   1.118 -0.1060  0.1322  0.1333
 4647TIP3    H235357   1.164   0.438   1.034 -1.6714 -0.0191 -1.1437
 4648TIP3   OH235358   1.347   5.152  15.133  0.1850 -0.1615 -0.1621
 4648TIP3    H135359   1.253   5.140  15.146 -0.0635  1.7903  0.2135
 4648TIP3    H235360   1.388   5.099  15.200 -0.6987 -0.0869  0.4529
 4649TIP3   OH235361   2.216   4.034  16.272 -0.4804 -0.1061 -0.0820
 4649TIP3    H135362   2.157   4.063  16.203  1.5104  0.4860 -1.6175
 4649TIP3    H235363   2.250   3.950  16.241 -0.2699 -0.2838  0.6184
 4650TIP3   OH235364   3.553   0.883   6.330 -0.6610 -0.6276 -0.4036
 4650TIP3    H135365   3.615   0.814   6.307 -0.9996 -2.1051  2.6107
 4650TIP3    H235366   3.500   0.846   6.401 -1.3955  2.4392  0.8348
 4651TIP3   OH235367   1.310   2.299  16.066 -0.2095 -0.6484  0.1647
 4651TIP3    H135368   1.373   2.232  16.091  0.6508 -0.2613 -0.9155
 4651TIP3    H235369   1.355   2.351  16.000 -1.1880  0.4525  0.3417
 4652TIP3   OH235370   4.693   3.067   2.939  0.7516  0.4175  0.4063
 4652TIP3    H135371   4.734   3.152   2.922  0.4912  0.3951 -0.3880
 4652TIP3    H235372   4.749   3.026   3.005 -0.4683  2.2070  2.7232
 4653TIP3   OH235373   0.066   5.366   5.533 -0.3475  0.4626 -0.3392
 4653TIP3    H135374   0.007   5.322   5.472  0.6132 -0.2334 -0.7816
 4653TIP3    H235375   0.063   5.312   5.612 -0.6837  0.7113 -0.1786
 4654TIP3   OH235376   5.787   0.100  12.753  0.3099 -0.1312 -0.0184
 4654TIP3    H135377   5.770   0.008  12.733 -0.2301  0.4997 -2.9623
 4654TIP3    H235378   5.873   0.100  12.796 -0.4341 -2.0984  1.6215
 4655TIP3   OH235379   1.708   5.081  14.541 -0.3473 -0.1983  0.3061
 4655TIP3    H135380   1.695   5.117  14.629 -0.8567  0.5825 -0.0784
 4655TIP3    H235381   1.634   5.114  14.490  0.2568 -0.1478 -0.5632
 4656TIP3   OH235382   6.343   5.869   6.108  0.1966  0.0530 -0.0579
 4656TIP3    H135383   6.362   5.961   6.128 -0.6024  0.8026 -2.3478
 4656TIP3    H235384   6.386   5.854   6.023  0.3144 -1.7164  0.2703
 4657TIP3   OH235385   0.905   5.325  16.296 -0.7988  0.2812  0.0582
 4657TIP3    H135386   0.827   5.378  16.315  0.4429  3.2179 -2.2346
 4657TIP3    H235387   0.896   5.301  16.204  0.1850 -0.8915  0.2404
 4658TIP3   OH235388   4.302   4.194  12.836  0.1345 -0.1928 -0.5164
 4658TIP3    H135389   4.218   4.237  12.819  0.0942 -0.3275 -0.6650
 4658TIP3    H235390   4.353   4.208  12.756  0.8556  1.2654  0.1642
 4659TIP3   OH235391   2.852   3.111   3.345  0.3280  0.3634  0.1659
 4659TIP3    H135392   2.865   3.038   3.407 -0.3630  0.7320  0.7631
 4659TIP3    H235393   2.765   3.095   3.308  0.1845  0.8595  0.2794
 4660TIP3   OH235394   3.662   2.397  14.799 -0.4797  0.0269  0.0264
 4660TIP3    H135395   3.572   2.376  14.773 -0.0766 -0.0799 -1.3887
 4660TIP3    H235396   3.662   2.492  14.809 -0.4820  0.1826 -1.2131
 4661TIP3   OH235397   6.129   2.274   4.657 -0.2512  0.7995 -0.4278
 4661TIP3    H135398   6.071   2.216   4.608 -1.2969  2.1039 -0.7910
 4661TIP3    H235399   6.158   2.221   4.731 -1.1851 -0.1837 -0.7330
 4662TIP3   OH235400   4.715   1.773  15.534  0.6623 -0.6591  0.2154
 4662TIP3    H135401   4.751   1.711  15.598 -2.2611 -2.3262  0.4310
 4662TIP3    H235402   4.789   1.794  15.477  3.2032  0.2801  3.5411
 4663TIP3   OH235403   4.469   1.640   0.701 -0.7514 -0.0015  0.3196
 4663TIP3    H135404   4.532   1.593   0.647 -1.9306 -0.0559 -1.0693
 4663TIP3    H235405   4.465   1.590   0.783 -0.7136 -1.3212 -0.4647
 4664TIP3   OH235406   4.985   3.794   4.738  0.5406  0.0545 -0.0430
 4664TIP3    H135407   5.000   3.789   4.644  0.6908 -0.3581  0.0035
 4664TIP3    H235408   4.937   3.876   4.750 -2.0115 -1.2489 -0.7875
 4665TIP3   OH235409   0.032   3.805  13.833 -0.9087 -0.5564  0.1502
 4665TIP3    H135410   0.030   3.894  13.800  0.6870  0.2773  2.1428
 4665TIP3    H235411  -0.057   3.790  13.867 -1.3699  0.0080 -0.7798
 4666TIP3   OH235412   0.636   3.465  14.068 -0.1282 -0.6550  0.4749
 4666TIP3    H135413   0.548   3.476  14.104 -0.1497  0.4608  0.1220
 4666TIP3    H235414   0.686   3.538  14.105  0.2932 -0.4949 -0.3870
 4667TIP3   OH235415   4.295   4.738   0.715  0.0829 -0.5991 -0.2414
 4667TIP3    H135416   4.226   4.795   0.748 -0.0837 -0.9856  0.0973
 4667TIP3    H235417   4.273   4.651   0.750  1.8436 -0.3896  1.6045
 4668TIP3   OH235418   0.225   5.389   4.272 -0.4334  0.4342 -0.0742
 4668TIP3    H135419   0.171   5.337   4.332  1.4169 -1.2637  0.2321
 4668TIP3    H235420   0.315   5.359   4.288  0.6579  3.0939 -0.5843
 4669TIP3   OH235421   1.947   0.024  12.770  0.1349 -0.4298  0.5729
 4669TIP3    H135422   1.981   0.114  12.775  2.1488 -1.0811 -0.2781
 4669TIP3    H235423   1.855   0.034  12.747 -0.4997  1.4877  3.3433
 4670TIP3   OH235424   0.103   3.130   3.078  0.2163 -0.5590 -0.0427
 4670TIP3    H135425   0.104   3.077   3.158 -1.6000 -1.1810 -0.3767
 4670TIP3    H235426   0.139   3.214   3.105 -0.0591 -0.8561  1.3493
 4671TIP3   OH235427   6.233   5.312  15.740  0.6294 -0.6105  0.2889
 4671TIP3    H135428   6.298   5.257  15.696 -0.0386 -3.1946  2.2442
 4671TIP3    H235429   6.161   5.318  15.677  1.0136 -1.4487 -0.2493
 4672TIP3   OH235430   0.451   5.163   5.153 -0.5546 -0.2894  0.3462
 4672TIP3    H135431   0.387   5.228   5.126 -1.8161 -0.5800  2.3750
 4672TIP3    H235432   0.496   5.137   5.072 -1.6492  1.3413 -0.8363
 4673TIP3   OH235433   5.367   0.613  14.541  0.7137  0.0259 -0.0264
 4673TIP3    H135434   5.301   0.592  14.608 -0.4914 -1.9728 -1.7077
 4673TIP3    H235435   5.450   0.588  14.582  0.1067 -0.3341  1.0494
 4674TIP3   OH235436   3.244   4.812   2.832  0.0125  0.0976  0.5427
 4674TIP3    H135437   3.165   4.770   2.798 -0.2948  1.4482 -0.5654
 4674TIP3    H235438   3.248   4.787   2.924 -0.7999 -1.3069  0.2258
 4675TIP3   OH235439   6.159   4.707   4.754 -0.0170  0.3699 -0.2128
 4675TIP3    H135440   6.148   4.638   4.819 -0.7243  1.0046  0.3550
 4675TIP3    H235441   6.094   4.774   4.778 -0.1261  0.7254 -1.4202
 4676TIP3   OH235442   0.259   1.108   5.743 -0.1560 -0.4791 -0.2884
 4676TIP3    H135443   0.354   1.122   5.742 -0.2766  0.6980  1.2610
 4676TIP3    H235444   0.225   1.176   5.684 -0.1897  1.0960  1.4311
 4677TIP3   OH235445   4.281   1.115   4.553 -0.2419 -0.0072 -0.1402
 4677TIP3    H135446   4.309   1.205   4.542 -0.0259 -0.1213 -0.5436
 4677TIP3    H235447   4.193   1.112   4.515 -0.0296 -0.0891 -0.6404
 4678TIP3   OH235448   1.725   6.557  14.961  0.3748  0.1291 -0.7355
 4678TIP3    H135449   1.743   6.621  15.030  0.4541 -0.8009  0.1292
 4678TIP3    H235450   1.652   6.595  14.912 -0.4084  0.3104  0.5297
 4679TIP3   OH235451   3.260   5.589  12.955  0.0514 -0.2910 -0.1114
 4679TIP3    H135452   3.207   5.528  13.006  0.5784 -2.1880 -1.7061
 4679TIP3    H235453   3.332   5.612  13.014  0.3123 -1.9247  0.2607
 4680TIP3   OH235454   4.006   0.176  16.652 -0.4967  0.0331 -0.3051
 4680TIP3    H135455   3.964   0.262  16.640  1.5540  1.3048  1.0769
 4680TIP3    H235456   3.983   0.128  16.573 -1.0259  2.1493 -1.5324
 4681TIP3   OH235457   5.255   2.810   5.550 -0.4350 -0.3093  0.0811
 4681TIP3    H135458   5.179   2.841   5.502 -1.1418 -0.7223  0.9063
 4681TIP3    H235459   5.248   2.715   5.548  1.6456 -0.4878 -2.3169
 4682TIP3   OH235460   5.017   2.416   4.132 -0.5223  0.4883 -0.0961
 4682TIP3    H135461   4.927   2.438   4.157  0.0741  1.6699  1.1471
 4682TIP3    H235462   5.059   2.393   4.215  1.0407  2.6913 -0.1891
 4683TIP3   OH235463   6.090   6.400  15.562  0.0035  0.1170 -0.4602
 4683TIP3    H135464   6.159   6.419  15.625 -0.8143  0.1322  0.4505
 4683TIP3    H235465   6.136   6.382  15.480  1.0324  1.1477 -0.1329
 4684TIP3   OH235466   1.534   4.342   0.031 -0.2503  0.7776 -0.0039
 4684TIP3    H135467   1.525   4.413   0.095 -0.8647  0.9982 -0.3262
 4684TIP3    H235468   1.531   4.387  -0.054 -1.1590  0.3165 -0.2241
 4685TIP3   OH235469   6.020   2.988  13.748 -0.0530  0.7182 -0.0673
 4685TIP3    H135470   6.082   2.916  13.760  0.1368  0.5387 -1.8102
 4685TIP3    H235471   6.025   3.038  13.829 -1.1069 -1.8883  1.7495
 4686TIP3   OH235472   0.996   0.989   4.455  0.2354 -0.2650  0.2065
 4686TIP3    H135473   1.074   1.042   4.472 -0.2137  0.7866 -0.8789
 4686TIP3    H235474   0.946   0.993   4.536 -0.2108  1.7474 -0.1319
 4687TIP3   OH235475   5.802   2.141   5.926 -0.2925 -0.1897  0.3612
 4687TIP3    H135476   5.764   2.082   5.991  0.3775 -0.4717  0.5031
 4687TIP3    H235477   5.889   2.105   5.908  1.2108  2.0943  2.3359
 4688TIP3   OH235478   5.119   3.505   0.657 -0.2241 -0.1898 -0.5097
 4688TIP3    H135479   5.075   3.447   0.719 -1.6173  1.6319  0.3343
 4688TIP3    H235480   5.099   3.469   0.571 -1.4959 -0.6802 -0.0277
 4689TIP3   OH235481   1.496   6.177  17.086  0.4495 -0.2857 -0.1152
 4689TIP3    H135482   1.489   6.249  17.149 -3.8561 -1.0342  0.6201
 4689TIP3    H235483   1.448   6.207  17.009 -1.5913 -2.2668  0.2659
 4690TIP3   OH235484   5.608   6.039   0.195  0.2601 -0.1159  0.3410
 4690TIP3    H135485   5.522   6.066   0.230 -0.0896  0.7858 -1.1153
 4690TIP3    H235486   5.671   6.083   0.251 -0.2821  0.8734  0.2143
 4691TIP3   OH235487   0.224   1.196   4.906  0.2152  0.2180 -0.0241
 4691TIP3    H135488   0.315   1.187   4.934  0.6757 -0.8619 -1.7355
 4691TIP3    H235489   0.210   1.291   4.902  1.1125  0.4018  0.6764
 4692TIP3   OH235490   6.029   0.624  15.529  0.5984 -0.3485  0.0906
 4692TIP3    H135491   6.110   0.658  15.566  0.4426 -1.2973  1.3629
 4692TIP3    H235492   6.051   0.537  15.496  0.2437 -0.3704 -0.0947
 4693TIP3   OH235493   4.438   5.913   0.142 -0.1093 -0.3147  0.3813
 4693TIP3    H135494   4.434   5.829   0.096 -2.3867 -1.7536  2.9160
 4693TIP3    H235495   4.438   5.889   0.235  2.8192  2.4501  1.2940
 4694TIP3   OH235496   3.294   1.924   3.022 -0.1584 -0.0234  0.6558
 4694TIP3    H135497   3.213   1.971   3.037 -0.7113 -1.0822  1.0517
 4694TIP3    H235498   3.301   1.918   2.926 -0.5252  0.1041  0.6212
 4695TIP3   OH235499   0.298   0.408   4.348  0.0015 -0.2796  0.3133
 4695TIP3    H135500   0.284   0.334   4.290  1.0187 -0.0469 -0.2606
 4695TIP3    H235501   0.281   0.374   4.436 -3.1298 -0.2517 -0.1558
 4696TIP3   OH235502   6.032   1.643  14.599  0.1485 -0.0306  0.1068
 4696TIP3    H135503   6.121   1.678  14.605  0.5010 -0.9116  0.1654
 4696TIP3    H235504   6.014   1.611  14.687 -1.5483  3.1648  1.0831
 4697TIP3   OH235505   0.276   3.205  14.086 -0.1333 -0.0990  0.2484
 4697TIP3    H135506   0.204   3.252  14.128 -2.0164 -0.7333 -2.0439
 4697TIP3    H235507   0.340   3.272  14.063 -1.0489  0.8211  0.3488
 4698TIP3   OH235508   4.615   0.821  17.111  0.5798  0.8814 -0.4471
 4698TIP3    H135509   4.621   0.898  17.054  1.2530  1.7454  0.7233
 4698TIP3    H235510   4.705   0.789  17.117  0.0516 -1.1305 -2.3501
 4699TIP3   OH235511   3.043   1.156  14.764 -0.6038 -0.3068 -0.6080
 4699TIP3    H135512   2.966   1.129  14.715 -1.0899  1.8966 -1.1946
 4699TIP3    H235513   3.115   1.149  14.702 -1.0045  1.2458 -1.2897
 4700TIP3   OH235514   3.319   0.965  11.810 -0.1265  0.6145  0.6687
 4700TIP3    H135515   3.413   0.968  11.826 -0.1585 -0.0806  1.0510
 4700TIP3    H235516   3.282   0.930  11.892 -0.5401 -0.7187 -0.0604
 4701TIP3   OH235517   3.465   5.945  14.783 -0.6365  0.6653 -0.2980
 4701TIP3    H135518   3.557   5.922  14.796 -1.0926 -1.3755 -0.3359
 4701TIP3    H235519   3.468   6.023  14.728  1.0704  1.2277  0.5235
 4702TIP3   OH235520   2.400   2.331  12.409  0.6326 -0.1653  0.0189
 4702TIP3    H135521   2.421   2.408  12.356  0.9138 -0.1584  0.1410
 4702TIP3    H235522   2.458   2.337  12.485 -0.2762  0.2329  0.7091
 4703TIP3   OH235523   5.355   3.169  14.874  0.2601  0.4302 -0.0496
 4703TIP3    H135524   5.322   3.199  14.959 -0.8796  0.2345 -0.3996
 4703TIP3    H235525   5.337   3.243  14.815  0.4491  0.3162 -0.2492
 4704TIP3   OH235526   0.881   1.139   2.223  0.1153 -0.4999 -0.3120
 4704TIP3    H135527   0.943   1.211   2.215 -0.2902 -0.0511  0.5147
 4704TIP3    H235528   0.798   1.174   2.191 -0.7226  0.2777  2.4760
 4705TIP3   OH235529   2.942   0.389   1.011 -0.1044 -0.4849 -0.0785
 4705TIP3    H135530   2.910   0.300   1.021 -3.3104  0.3893 -1.3343
 4705TIP3    H235531   2.996   0.387   0.932 -0.2795 -1.2618 -0.1823
 4706TIP3   OH235532   0.432   5.954  15.086 -0.3484  0.1876  0.0058
 4706TIP3    H135533   0.410   6.033  15.135 -0.0230 -0.0098  0.4810
 4706TIP3    H235534   0.406   5.882  15.144 -0.0218 -0.0460 -0.1331
 4707TIP3   OH235535   0.860   3.368  14.606  0.1650  0.3835 -0.3831
 4707TIP3    H135536   0.829   3.439  14.662 -1.7083 -1.4004  0.9874
 4707TIP3    H235537   0.939   3.336  14.649 -1.2743 -0.9871  1.3287
 4708TIP3   OH235538   0.840   6.078   3.879  0.4147 -0.0411  0.0896
 4708TIP3    H135539   0.875   6.000   3.835 -1.7530 -2.0344  1.6770
 4708TIP3    H235540   0.894   6.088   3.957 -0.3780 -1.0967  0.8051
 4709TIP3   OH235541   2.355   2.034   5.165  0.6758  0.1778  0.1477
 4709TIP3    H135542   2.344   1.944   5.195  3.4547 -0.4472 -0.4632
 4709TIP3    H235543   2.329   2.032   5.073 -1.2006  0.5209  0.6292
 4710TIP3   OH235544   0.770   6.651  11.253 -0.3020  0.0214  0.1903
 4710TIP3    H135545   0.714   6.657  11.175 -0.7881 -0.3529  0.5053
 4710TIP3    H235546   0.721   6.595  11.313  2.0840 -3.6823 -0.9777
 4711TIP3   OH235547   0.334   3.257   2.848 -0.2030 -0.0196 -0.7991
 4711TIP3    H135548   0.282   3.298   2.917 -0.7172  0.1243 -1.2656
 4711TIP3    H235549   0.410   3.220   2.893 -1.1763 -1.0570  0.0222
 4712TIP3   OH235550   2.255   0.293   5.810 -0.0301 -0.3187  0.1082
 4712TIP3    H135551   2.235   0.384   5.830  2.8438  0.3231  0.3556
 4712TIP3    H235552   2.287   0.295   5.720 -2.6192 -1.6007 -0.9635
 4713TIP3   OH235553   4.524   6.031   5.209  0.3101 -0.5917  0.0001
 4713TIP3    H135554   4.563   6.084   5.278  1.1717  0.4780 -1.2745
 4713TIP3    H235555   4.546   5.941   5.233  0.6862 -0.2327  1.0557
 4714TIP3   OH235556   5.195   5.630   3.079  0.4282 -0.7471 -0.2964
 4714TIP3    H135557   5.120   5.579   3.049 -0.2937 -0.4042  0.8850
 4714TIP3    H235558   5.180   5.717   3.043  0.6622 -0.8676 -0.6944
 4715TIP3   OH235559   4.164   2.012   1.237  0.0887  0.2359 -0.6893
 4715TIP3    H135560   4.257   2.023   1.258  0.0014 -0.9882  0.4557
 4715TIP3    H235561   4.162   2.000   1.142  1.3203 -1.5609 -0.5318
 4716TIP3   OH235562   0.212   5.971  15.396  0.7898  0.8406  0.0725
 4716TIP3    H135563   0.137   5.945  15.449 -0.4646  1.4884 -1.3163
 4716TIP3    H235564   0.208   5.914  15.320  1.0735  1.6025 -0.5226
 4717TIP3   OH235565   1.207   1.659   4.946  0.0611 -0.8778 -0.4226
 4717TIP3    H135566   1.171   1.689   5.030  0.5164 -0.5326 -0.3438
 4717TIP3    H235567   1.145   1.690   4.881 -0.3618 -1.2565 -0.2036
 4718TIP3   OH235568   3.765   0.379   5.234  0.2259  0.2911 -0.4486
 4718TIP3    H135569   3.781   0.372   5.140 -0.2542 -2.8799 -0.4155
 4718TIP3    H235570   3.699   0.312   5.251 -0.4763  1.5007  2.0241
 4719TIP3   OH235571   5.272   4.078   5.176 -0.3722  0.1342 -0.0372
 4719TIP3    H135572   5.296   4.089   5.269 -2.1746  1.2852  0.3345
 4719TIP3    H235573   5.356   4.083   5.130  0.5149  0.0977  1.4761
 4720TIP3   OH235574   5.649   3.331   0.848  0.1029  0.2493 -0.2554
 4720TIP3    H135575   5.646   3.278   0.928 -0.4063  1.4709  0.5685
 4720TIP3    H235576   5.734   3.311   0.809 -0.0866 -1.1814 -0.0045
 4721TIP3   OH235577   6.196   1.496  13.895 -0.3594  0.2501 -0.2436
 4721TIP3    H135578   6.182   1.539  13.811 -2.4406 -0.4599 -0.3165
 4721TIP3    H235579   6.174   1.563  13.960 -0.6835  0.2120 -0.3102
 4722TIP3   OH235580   3.165   4.939  12.345 -0.0061 -0.1655  0.2594
 4722TIP3    H135581   3.095   5.005  12.338  0.0485 -0.0050  1.0994
 4722TIP3    H235582   3.232   4.981  12.400  1.1313 -0.0056 -1.1917
 4723TIP3   OH235583   0.676   0.444   5.470  0.1790 -0.2553  0.0852
 4723TIP3    H135584   0.699   0.413   5.383 -0.0022  0.4748 -0.2233
 4723TIP3    H235585   0.740   0.512   5.490 -0.6783  0.6368 -0.1074
 4724TIP3   OH235586   1.009   2.671   4.885  0.4845  0.2260  0.5842
 4724TIP3    H135587   1.043   2.746   4.835 -0.7664 -0.6519 -1.7337
 4724TIP3    H235588   0.918   2.693   4.904  0.4691 -0.1724  0.9911
 4725TIP3   OH235589   5.475   6.410  14.715 -0.1425  0.4045 -0.1933
 4725TIP3    H135590   5.425   6.354  14.655 -0.2030  0.1034  0.1303
 4725TIP3    H235591   5.566   6.397  14.690 -0.2639  1.8228 -1.5319
 4726TIP3   OH235592   0.890   1.670   3.225 -0.0092  0.2904  0.0549
 4726TIP3    H135593   0.906   1.754   3.268 -0.6417  0.7601 -0.6243
 4726TIP3    H235594   0.900   1.687   3.132  0.0413 -0.4286 -0.0789
 4727TIP3   OH235595   2.369   2.969   0.118  0.7537 -0.5889  0.3541
 4727TIP3    H135596   2.387   3.013   0.201  0.9921  2.2668 -1.0967
 4727TIP3    H235597   2.454   2.962   0.074  0.5230 -1.3712 -0.0035
 4728TIP3   OH235598   2.671   3.379  13.790  0.2763 -0.4369  0.2232
 4728TIP3    H135599   2.750   3.325  13.799  0.8322  0.3607  0.2130
 4728TIP3    H235600   2.703   3.464  13.760 -0.7426 -0.5628 -1.3606
 4729TIP3   OH235601   3.912   5.504  15.058 -0.3928  0.4413  0.0215
 4729TIP3    H135602   3.900   5.447  15.133 -1.5408  1.6290  0.7816
 4729TIP3    H235603   3.994   5.551  15.076  1.0169 -1.4849 -1.0118
 4730TIP3   OH235604   0.168   3.872   1.116  0.8459  0.2754 -0.5344
 4730TIP3    H135605   0.094   3.861   1.176  0.0457 -0.6008 -1.6283
 4730TIP3    H235606   0.160   3.963   1.087  0.1458  0.1839 -0.6675
 4731TIP3   OH235607   1.711   1.928  11.249 -0.7069  0.0985  0.2412
 4731TIP3    H135608   1.784   1.956  11.304 -0.5521  0.0177  0.0747
 4731TIP3    H235609   1.727   1.969  11.164 -1.6567  1.3375  0.6303
 4732TIP3   OH235610   0.584   0.667   0.516 -0.1939 -0.1059  0.8322
 4732TIP3    H135611   0.620   0.619   0.591  1.5841 -0.3750 -0.1400
 4732TIP3    H235612   0.578   0.602   0.447 -0.1369  0.5320  0.2177
 4733TIP3   OH235613   4.508   1.735  15.269  0.5622  0.1061  0.5489
 4733TIP3    H135614   4.598   1.762  15.250  0.5839  1.3016  2.1346
 4733TIP3    H235615   4.515   1.643  15.293  1.2770  0.0498  0.1558
 4734TIP3   OH235616   3.572   4.487  11.074  0.1725  0.4515 -0.5544
 4734TIP3    H135617   3.657   4.513  11.037  0.5158 -0.4040 -0.3949
 4734TIP3    H235618   3.515   4.562  11.058  1.3822  1.7145  0.8108
 4735TIP3   OH235619   3.025   1.891  14.840  0.1035 -0.2930  0.2289
 4735TIP3    H135620   3.101   1.928  14.794 -0.1680 -0.8982 -0.7302
 4735TIP3    H235621   3.050   1.800  14.858 -1.0859 -1.0609 -1.7722
 4736TIP3   OH235622   4.221   3.038  11.740 -0.0336 -0.6104  0.1705
 4736TIP3    H135623   4.153   3.044  11.808 -0.8397 -1.9067 -0.4652
 4736TIP3    H235624   4.288   2.982  11.778 -0.7829 -1.8675 -0.2910
 4737TIP3   OH235625   2.734   0.164   5.477  0.3016  0.8191  0.0878
 4737TIP3    H135626   2.790   0.094   5.444  1.4353  2.2187 -1.1087
 4737TIP3    H235627   2.662   0.168   5.414 -0.1025  0.3398  0.5091
 4738TIP3   OH235628   5.398   5.996  12.902  0.0105 -0.3238 -0.1148
 4738TIP3    H135629   5.339   6.059  12.862  1.4466  1.1733  0.0499
 4738TIP3    H235630   5.387   6.008  12.996 -2.2202 -2.7711  0.0582
 4739TIP3   OH235631   1.610   3.608  13.815  0.5497  0.8953  0.1694
 4739TIP3    H135632   1.565   3.584  13.896  0.3757  1.6933  0.3126
 4739TIP3    H235633   1.694   3.561  13.820  0.3017  0.4836  0.5396
 4740TIP3   OH235634   3.632   5.769  13.299  0.2144  0.4185 -0.0055
 4740TIP3    H135635   3.571   5.736  13.233  1.1999  0.7893 -1.1574
 4740TIP3    H235636   3.678   5.690  13.329  0.3453  0.3372 -0.4004
 4741TIP3   OH235637   5.331   1.100  14.824  0.5775  0.1697 -0.2686
 4741TIP3    H135638   5.350   1.087  14.731  2.9400 -1.2449  0.3023
 4741TIP3    H235639   5.417   1.095  14.866 -0.5731 -0.9276  2.1531
 4742TIP3   OH235640   4.906   5.288   1.514 -0.2416  0.1388  0.0665
 4742TIP3    H135641   4.811   5.294   1.514 -0.2312  0.3145  0.3628
 4742TIP3    H235642   4.932   5.321   1.428 -0.3606  1.5132  0.5387
 4743TIP3   OH235643   2.192   3.322   0.388 -0.3059  0.6761 -0.3795
 4743TIP3    H135644   2.166   3.354   0.474 -0.4317 -0.2805 -0.0481
 4743TIP3    H235645   2.133   3.248   0.371  1.9072 -1.3822  0.2772
 4744TIP3   OH235646   6.164   3.882   1.819  0.0069 -0.2026  0.6569
 4744TIP3    H135647   6.135   3.875   1.729  1.0699 -0.8144  0.3355
 4744TIP3    H235648   6.253   3.918   1.813 -0.2770  0.6843  1.5245
 4745TIP3   OH235649   2.960   2.303  15.380 -0.1035 -0.0019 -0.2364
 4745TIP3    H135650   2.980   2.389  15.419 -1.7409  1.5656 -2.5844
 4745TIP3    H235651   2.872   2.282  15.412 -0.0656 -0.3724 -0.3795
 4746TIP3   OH235652   6.101   5.336   6.193 -0.3544  0.3990  0.7041
 4746TIP3    H135653   6.134   5.296   6.112 -0.1782 -0.5726  1.2443
 4746TIP3    H235654   6.172   5.326   6.256 -0.4060  1.3525  0.9332
 4747TIP3   OH235655   1.646   3.442  11.675  0.1377  0.2129 -0.2163
 4747TIP3    H135656   1.697   3.401  11.605 -0.6795  0.0985 -0.7536
 4747TIP3    H235657   1.573   3.381  11.690 -0.5312  0.9768 -0.3186
 4748TIP3   OH235658   5.153   5.325   3.645  0.0004 -0.2710  0.1050
 4748TIP3    H135659   5.130   5.296   3.734 -0.5574 -1.4222 -0.3944
 4748TIP3    H235660   5.172   5.244   3.598 -0.2101  0.2880 -0.9673
 4749TIP3   OH235661   0.214   0.713   1.696  0.4522 -0.7801 -0.2383
 4749TIP3    H135662   0.152   0.708   1.623  0.0159 -0.8298  0.1290
 4749TIP3    H235663   0.189   0.793   1.743  1.7823  0.1663 -1.0788
 4750TIP3   OH235664   4.713   4.481  14.175  0.5766 -1.2956  0.1061
 4750TIP3    H135665   4.753   4.503  14.091  0.8910 -1.0667  0.3149
 4750TIP3    H235666   4.627   4.446  14.152  0.2649 -0.3066 -0.2468
 4751TIP3   OH235667   3.507   0.574   4.142 -0.6272 -0.6225  0.4646
 4751TIP3    H135668   3.476   0.653   4.098 -1.6574 -1.2966 -0.0709
 4751TIP3    H235669   3.472   0.502   4.090  2.6087 -1.5151 -0.7048
 4752TIP3   OH235670   3.649   6.448   1.281  0.4720  0.3923  0.1369
 4752TIP3    H135671   3.592   6.469   1.207 -0.0779 -1.2051  0.0748
 4752TIP3    H235672   3.733   6.426   1.242  0.5872  0.8873  0.0975
 4753TIP3   OH235673   5.669   1.853   3.114 -0.6299 -0.4868  0.4964
 4753TIP3    H135674   5.696   1.773   3.160  0.6533 -0.4630 -0.1648
 4753TIP3    H235675   5.729   1.859   3.040  0.8061  2.2893  1.7507
 4754TIP3   OH235676   5.121   4.634   1.145 -0.6798  0.1628  0.4099
 4754TIP3    H135677   5.074   4.612   1.065 -0.7301 -2.2150  1.0153
 4754TIP3    H235678   5.061   4.612   1.216 -0.5494  2.0101  1.1396
 4755TIP3   OH235679   3.432   0.013   5.587 -0.7475 -0.2600 -0.3570
 4755TIP3    H135680   3.429  -0.060   5.525 -0.6602  1.4714 -2.5261
 4755TIP3    H235681   3.523   0.015   5.617 -1.0458 -1.8110  0.8065
 4756TIP3   OH235682   5.964   5.519  13.791 -0.3241 -0.1390 -0.0192
 4756TIP3    H135683   6.049   5.543  13.754 -0.1327 -1.3377 -0.3972
 4756TIP3    H235684   5.903   5.582  13.754  0.4107  0.8458  0.3878
 4757TIP3   OH235685   4.026   0.430   3.279 -0.0544  0.1861 -0.2983
 4757TIP3    H135686   3.981   0.381   3.347  0.1889 -1.1406 -1.0469
 4757TIP3    H235687   4.109   0.457   3.319 -0.3915  0.3957  0.2695
 4758TIP3   OH235688   5.846   6.208  16.385  0.2619  0.1485  0.0301
 4758TIP3    H135689   5.762   6.201  16.431  1.4932 -1.1067  2.2863
 4758TIP3    H235690   5.835   6.155  16.307 -0.8204 -0.6103  0.6735
 4759TIP3   OH235691   1.234   0.591   2.511 -0.3264 -0.0003  0.6381
 4759TIP3    H135692   1.246   0.543   2.429  0.2473 -1.3043  1.4533
 4759TIP3    H235693   1.322   0.602   2.546 -0.6038  0.0923  1.3299
 4760TIP3   OH235694   2.707   2.448  15.715 -0.3690  0.1218 -0.3672
 4760TIP3    H135695   2.647   2.474  15.644 -0.3938 -0.5136 -0.5878
 4760TIP3    H235696   2.683   2.357  15.734  0.3267 -0.0383 -0.2467
 4761TIP3   OH235697   2.980   4.257   2.288  0.1740 -0.1676 -0.1524
 4761TIP3    H135698   2.910   4.253   2.352 -1.4449 -0.8565 -1.8796
 4761TIP3    H235699   3.020   4.170   2.290  1.2784  0.3367  1.0933
 4762TIP3   OH235700   0.285   0.958   3.759 -0.1046  0.6085 -0.2711
 4762TIP3    H135701   0.376   0.945   3.787  0.0501 -0.4999 -1.2228
 4762TIP3    H235702   0.282   1.049   3.728  0.3344  1.0683  0.9875
 4763TIP3   OH235703   2.262   2.286   6.542 -0.1589 -0.1424  0.1776
 4763TIP3    H135704   2.322   2.215   6.566 -1.6070 -1.6911 -0.5419
 4763TIP3    H235705   2.200   2.291   6.614  1.1662  1.9434  1.2613
 4764TIP3   OH235706   2.989   3.509   1.737 -0.3988  0.3064 -0.2927
 4764TIP3    H135707   3.057   3.560   1.781  0.5715  0.0099 -1.3961
 4764TIP3    H235708   2.939   3.469   1.809  1.3391 -0.4508  0.5629
 4765TIP3   OH235709   0.993   0.403  11.749 -0.2394  0.0398 -0.5453
 4765TIP3    H135710   0.979   0.313  11.779  1.9882 -0.9002 -2.0053
 4765TIP3    H235711   1.070   0.433  11.798 -0.5280  0.8916 -0.5968
 4766TIP3   OH235712   4.116   5.576   6.595 -0.0095  0.4505  1.1431
 4766TIP3    H135713   4.171   5.587   6.673  1.7353  2.8969 -0.2989
 4766TIP3    H235714   4.097   5.665   6.566 -3.1528 -0.3426  0.3894
 4767TIP3   OH235715   3.293   0.991   0.768  0.1232 -0.1143  0.1099
 4767TIP3    H135716   3.348   1.061   0.802  1.8845 -0.5122 -1.7429
 4767TIP3    H235717   3.314   0.915   0.823  0.5502  0.0336  0.1506
 4768TIP3   OH235718   0.887   3.483  13.161 -0.1015 -0.2163  0.3536
 4768TIP3    H135719   0.969   3.488  13.112 -0.0138 -1.0037  0.3980
 4768TIP3    H235720   0.826   3.539  13.113  0.4781  0.4365  0.3616
 4769TIP3   OH235721   0.664   3.243   5.694 -0.7206 -0.0581  0.9143
 4769TIP3    H135722   0.645   3.169   5.636 -0.6134 -0.8530  1.8654
 4769TIP3    H235723   0.660   3.206   5.782  1.9901  0.4323  1.3297
 4770TIP3   OH235724   3.677   5.684  13.918  0.1077  0.0994 -0.4972
 4770TIP3    H135725   3.712   5.772  13.930  1.4198 -0.2447 -1.6176
 4770TIP3    H235726   3.680   5.670  13.824 -1.7920 -0.4864 -0.5036
 4771TIP3   OH235727   1.264   4.878   3.102  0.4373  0.0354 -0.0201
 4771TIP3    H135728   1.187   4.823   3.086 -0.4179  1.5145 -1.2965
 4771TIP3    H235729   1.258   4.901   3.195 -0.6763  0.1400 -0.1036
 4772TIP3   OH235730   5.995   5.782   5.005  0.1406 -0.5145  0.2461
 4772TIP3    H135731   6.010   5.855   4.945 -1.7536 -0.4795 -0.2470
 4772TIP3    H235732   5.903   5.790   5.031  0.4454 -1.5324  1.8320
 4773TIP3   OH235733   0.257   6.489   5.146  0.3668  0.1247  0.3019
 4773TIP3    H135734   0.320   6.474   5.216 -0.9131 -1.1818  1.2517
 4773TIP3    H235735   0.286   6.432   5.075  2.1592  2.0805 -0.6509
 4774TIP3   OH235736   0.204   0.959  13.791  0.1040 -0.0256 -0.2582
 4774TIP3    H135737   0.279   0.907  13.763  0.2873  1.1530 -2.2089
 4774TIP3    H235738   0.135   0.939  13.727  0.0531  1.7236 -0.8213
 4775TIP3   OH235739   5.063   1.397  13.881  0.9678 -0.7234  0.1992
 4775TIP3    H135740   5.009   1.475  13.881  2.9719  0.7531 -0.3800
 4775TIP3    H235741   5.036   1.348  13.804  0.8467  0.2826 -0.4092
 4776TIP3   OH235742   3.992   1.343  12.613 -0.0126 -0.7309  0.4536
 4776TIP3    H135743   4.058   1.402  12.579  0.0507 -0.1206  1.6024
 4776TIP3    H235744   4.016   1.329  12.705 -1.1505 -0.9492  0.7362
 4777TIP3   OH235745   0.712   1.879   3.479  0.6284  0.5836 -0.0087
 4777TIP3    H135746   0.744   1.923   3.399 -0.9127  1.1060 -0.3619
 4777TIP3    H235747   0.631   1.837   3.452 -0.1990  1.2030  1.4042
 4778TIP3   OH235748   3.124   5.330   3.362 -0.1099 -0.2509 -0.0087
 4778TIP3    H135749   3.185   5.283   3.305 -0.1140 -0.1430 -0.1037
 4778TIP3    H235750   3.039   5.317   3.321  0.0700  1.0368 -0.8485
 4779TIP3   OH235751   3.972   4.967   5.920 -0.5624 -0.2731 -0.7813
 4779TIP3    H135752   4.001   4.993   6.007  1.4911 -2.2351 -0.7917
 4779TIP3    H235753   3.887   5.010   5.909 -0.3452  0.9485  1.6942
 4780TIP3   OH235754   0.685   3.571  10.773 -0.1832 -0.6934  0.0731
 4780TIP3    H135755   0.761   3.629  10.764 -0.8670  0.1882 -0.1165
 4780TIP3    H235756   0.704   3.497  10.715  1.4016 -1.4481  1.4547
 4781TIP3   OH235757   2.580   2.440   5.357 -0.3647  0.2006 -0.0171
 4781TIP3    H135758   2.560   2.347   5.361 -3.3104  0.7186 -0.8058
 4781TIP3    H235759   2.646   2.448   5.288 -2.3444 -1.0277 -2.1729
 4782TIP3   OH235760   3.685   3.841  17.127 -0.1640 -0.0138  0.0138
 4782TIP3    H135761   3.596   3.869  17.106 -0.7734 -0.7155  1.5029
 4782TIP3    H235762   3.691   3.751  17.096 -1.9384 -2.0143  4.5812
 4783TIP3   OH235763   2.348   3.327  11.754 -0.1751  0.4383  0.4693
 4783TIP3    H135764   2.274   3.289  11.707 -0.4386 -0.5630  1.6208
 4783TIP3    H235765   2.421   3.322  11.692 -0.3380 -1.4940  0.3446
 4784TIP3   OH235766   4.167   0.896   1.355  0.2444 -0.1565 -0.1767
 4784TIP3    H135767   4.082   0.865   1.323 -1.2941  4.7440 -1.7701
 4784TIP3    H235768   4.228   0.872   1.285 -0.4044 -1.1411 -0.4316
 4785TIP3   OH235769   3.083   6.061   6.116 -0.2557 -0.5119 -0.9502
 4785TIP3    H135770   3.023   6.130   6.088  0.0123  0.1601  0.1152
 4785TIP3    H235771   3.143   6.103   6.177 -0.7500 -1.9079  0.5850
 4786TIP3   OH235772   5.292   1.003   1.482  0.1064 -0.1016 -0.5271
 4786TIP3    H135773   5.295   1.014   1.577  0.9923 -0.7008 -0.4725
 4786TIP3    H235774   5.240   0.924   1.468  0.4178 -0.3121 -0.5082
 4787TIP3   OH235775   2.667   0.453   0.306  0.0410 -0.2680 -0.2466
 4787TIP3    H135776   2.585   0.405   0.300  0.8459 -1.6842 -0.5884
 4787TIP3    H235777   2.661   0.521   0.239 -0.9107 -0.2426 -0.1444
 4788TIP3   OH235778   6.505   0.017   3.208  0.1684  0.6954  0.0858
 4788TIP3    H135779   6.427   0.057   3.170  0.7534  0.8653 -0.9545
 4788TIP3    H235780   6.548  -0.028   3.135  1.3488  1.0906  0.5113
 4789TIP3   OH235781   1.120   5.114   4.392 -0.5248 -0.2064 -0.3444
 4789TIP3    H135782   1.139   5.095   4.300  0.4736  1.3551 -0.4967
 4789TIP3    H235783   1.137   5.032   4.438  1.7948 -0.2892 -1.2017
 4790TIP3   OH235784   2.473   0.209   0.845 -0.3847  0.7505 -0.4467
 4790TIP3    H135785   2.552   0.195   0.898 -0.3421  2.2013 -0.0803
 4790TIP3    H235786   2.506   0.229   0.758 -0.4278 -0.7181 -0.8182
 4791TIP3   OH235787   0.530   6.709  15.103 -0.2721  0.4698  0.0357
 4791TIP3    H135788   0.516   6.804  15.103  0.9381  0.6904  1.6523
 4791TIP3    H235789   0.591   6.694  15.175 -1.0361 -1.6355  0.3071
 4792TIP3   OH235790   5.782   2.959  17.004  0.2590  0.4247  0.3016
 4792TIP3    H135791   5.836   2.916  16.937 -1.2590 -1.0956 -0.0147
 4792TIP3    H235792   5.775   2.894  17.074  0.4711  1.3735  1.2303
 4793TIP3   OH235793   3.017   5.418  14.262  0.1940  0.0346  0.4676
 4793TIP3    H135794   3.008   5.442  14.170  1.8554 -1.1617 -0.0585
 4793TIP3    H235795   2.965   5.339  14.272  1.1096 -0.6181  0.1876
 4794TIP3   OH235796   2.653   3.221  12.837 -0.1876  0.4081 -0.3682
 4794TIP3    H135797   2.667   3.147  12.777  2.0814  0.2796  0.2266
 4794TIP3    H235798   2.646   3.297  12.780 -0.6748 -0.0091 -0.8883
 4795TIP3   OH235799   6.095   3.761   0.169  0.0115  0.5183 -0.0115
 4795TIP3    H135800   6.113   3.743   0.077 -0.3002  0.5928 -0.0886
 4795TIP3    H235801   5.999   3.755   0.177  0.0536  0.3036  0.3520
 4796TIP3   OH235802   0.161   3.791   1.440  0.4986  0.4854  0.2051
 4796TIP3    H135803   0.221   3.862   1.416  0.1993  0.4220 -0.7818
 4796TIP3    H235804   0.084   3.837   1.475  0.9776  0.5770  1.1644
 4797TIP3   OH235805   5.858   2.915  14.689 -0.6379 -0.0249 -0.3307
 4797TIP3    H135806   5.914   2.847  14.725  0.1651 -0.6047 -2.5066
 4797TIP3    H235807   5.778   2.868  14.663 -0.7690  0.1787 -0.2966
 4798TIP3   OH235808   6.160   3.394  15.396  0.4702  0.3051 -0.2356
 4798TIP3    H135809   6.099   3.338  15.443  0.1799  0.5543 -0.3150
 4798TIP3    H235810   6.119   3.408  15.310  1.2677 -0.6417 -0.7986
 4799TIP3   OH235811   6.056   5.195  11.130  0.3909  0.2392  1.1138
 4799TIP3    H135812   6.052   5.106  11.165  1.7850  0.0721  0.9321
 4799TIP3    H235813   5.978   5.203  11.074 -0.6570 -0.2592  2.4609
 4800TIP3   OH235814   3.244   5.209   6.068 -0.4203 -0.5107  0.0016
 4800TIP3    H135815   3.171   5.159   6.105 -0.1459  0.2923  1.7364
 4800TIP3    H235816   3.237   5.195   5.974 -0.0654 -4.2019  0.3945
 4801TIP3   OH235817   1.430   2.512  16.428 -0.1233  0.3351 -0.2469
 4801TIP3    H135818   1.486   2.534  16.503 -1.4938  2.0898  0.3082
 4801TIP3    H235819   1.342   2.503  16.465 -0.4614 -1.0957 -1.3090
 4802TIP3   OH235820   1.400   0.348  14.895  0.0046  0.1298  0.1869
 4802TIP3    H135821   1.387   0.331  14.802  0.5727 -1.0245  0.3084
 4802TIP3    H235822   1.322   0.398  14.921 -0.1330  0.5047 -0.9035
 4803TIP3   OH235823   4.596   3.537  14.234 -0.0785  0.1710 -0.5390
 4803TIP3    H135824   4.530   3.470  14.252 -0.7927  0.8732 -0.5273
 4803TIP3    H235825   4.679   3.492  14.250 -0.5766  0.1746  2.6631
 4804TIP3   OH235826   0.119   5.028  14.791 -0.2389 -0.0599  0.3028
 4804TIP3    H135827   0.214   5.021  14.802 -0.3903 -0.1583  1.8166
 4804TIP3    H235828   0.100   4.976  14.713  0.7650 -1.4832  0.9619
 4805TIP3   OH235829   5.422   5.473  14.798 -0.0296  0.6826 -0.3745
 4805TIP3    H135830   5.453   5.541  14.857 -2.5161  0.6342  1.1474
 4805TIP3    H235831   5.414   5.395  14.853  0.1452 -0.1035 -1.4284
 4806TIP3   OH235832   4.109   1.082  14.673  0.1201 -0.1150 -0.0904
 4806TIP3    H135833   4.102   1.142  14.747  0.5315 -0.7451  0.4729
 4806TIP3    H235834   4.170   1.014  14.702  0.2071 -0.4350 -0.9679
 4807TIP3   OH235835   1.238   6.406  12.871  0.4648 -0.1911  0.6700
 4807TIP3    H135836   1.313   6.458  12.901  0.5289  0.7679 -1.0384
 4807TIP3    H235837   1.162   6.447  12.912  0.6465  0.4303  0.3966
 4808TIP3   OH235838   1.762   6.020  12.280  0.1211 -0.0366 -0.0154
 4808TIP3    H135839   1.747   6.093  12.340  2.3706 -0.4018  1.0916
 4808TIP3    H235840   1.728   6.051  12.196  0.4193  2.0355  0.5602
 4809TIP3   OH235841   4.888   5.957   1.447  0.1258 -0.1963 -0.1719
 4809TIP3    H135842   4.882   5.870   1.406  1.6716  0.4382 -1.8633
 4809TIP3    H235843   4.846   5.946   1.532 -0.3134 -2.4305 -0.6141
 4810TIP3   OH235844   1.315   2.192   2.398 -0.6993  0.2150 -0.3488
 4810TIP3    H135845   1.233   2.237   2.420 -1.0099 -0.0216 -1.0168
 4810TIP3    H235846   1.297   2.099   2.411 -0.3951  0.1919 -0.0584
 4811TIP3   OH235847   0.929   6.227  16.596  0.0614 -0.1830 -0.0507
 4811TIP3    H135848   0.853   6.186  16.555  0.4133 -2.9869  1.8419
 4811TIP3    H235849   0.897   6.260  16.680  0.7859 -0.9421  0.5384
 4812TIP3   OH235850   4.502   6.031   0.825  0.1647  0.4289  0.0356
 4812TIP3    H135851   4.518   6.054   0.916  1.8702 -1.0552  0.1751
 4812TIP3    H235852   4.412   6.000   0.823  0.8940 -2.0975  1.8375
 4813TIP3   OH235853   5.918   5.775  13.385 -0.5624 -0.6008 -0.3816
 4813TIP3    H135854   5.959   5.861  13.392 -1.1038 -0.3217 -0.5438
 4813TIP3    H235855   5.904   5.747  13.475 -1.5420  0.0582 -0.3025
 4814TIP3   OH235856   6.516   3.580   6.117  0.1510  0.2436  0.0006
 4814TIP3    H135857   6.429   3.579   6.155  0.8203  1.0882  1.6412
 4814TIP3    H235858   6.569   3.526   6.176  0.7565 -0.2412 -0.9629
 4815TIP3   OH235859   0.473   2.308   6.026  0.3590  0.5908  0.6688
 4815TIP3    H135860   0.519   2.391   6.039  2.2290 -0.5191  1.6610
 4815TIP3    H235861   0.424   2.296   6.107 -1.3009  1.4899 -0.1545
 4816TIP3   OH235862   1.162   1.224   5.835 -0.4906  0.1346 -0.4663
 4816TIP3    H135863   1.165   1.132   5.861 -0.6910 -0.5774 -2.7425
 4816TIP3    H235864   1.121   1.223   5.748 -1.0458  2.4417 -0.2935
 4817TIP3   OH235865   0.862   0.186  10.972 -0.2150  0.1137 -0.6488
 4817TIP3    H135866   0.890   0.220  10.887 -2.2923  1.6420 -0.7967
 4817TIP3    H235867   0.774   0.223  10.985 -0.9879 -2.0832  1.0393
 4818TIP3   OH235868   2.821   6.469  17.032  0.0705 -0.2066  0.2266
 4818TIP3    H135869   2.782   6.555  17.050  0.5706  0.1223 -0.2000
 4818TIP3    H235870   2.747   6.411  17.018 -0.3083 -0.0873  1.5494
 4819TIP3   OH235871   0.867   6.478  16.773 -0.3116 -0.7641 -0.5172
 4819TIP3    H135872   0.836   6.553  16.823 -1.3597 -2.0027  0.7523
 4819TIP3    H235873   0.926   6.516  16.708 -1.1951  1.2050 -0.2417
 4820TIP3   OH235874   4.652   3.443   2.839  0.4591  0.5537  0.6873
 4820TIP3    H135875   4.576   3.501   2.845  0.7546  1.0999 -0.6296
 4820TIP3    H235876   4.683   3.452   2.749  0.9897 -1.0694  0.6693
 4821TIP3   OH235877   1.512   4.764  12.399  0.4331  0.0050  0.3533
 4821TIP3    H135878   1.571   4.793  12.469 -0.9313  1.3023  1.0251
 4821TIP3    H235879   1.510   4.669  12.408  2.4969 -0.1049  0.2062
 4822TIP3   OH235880   1.305   1.195  16.123  0.6033 -0.2901  0.4734
 4822TIP3    H135881   1.212   1.190  16.148  0.2131  0.2354 -0.8073
 4822TIP3    H235882   1.314   1.129  16.054  0.1795  2.2705 -2.2523
 4823TIP3   OH235883   3.907   5.585   3.174  0.0346 -0.6997 -0.0967
 4823TIP3    H135884   3.844   5.595   3.103  0.7387 -0.3058 -0.6842
 4823TIP3    H235885   3.855   5.589   3.254 -1.3324 -4.6703 -0.5454
 4824TIP3   OH235886   5.376   0.638  15.651  0.0819 -0.3663  0.2956
 4824TIP3    H135887   5.424   0.667  15.574 -0.2441  0.2112  0.2984
 4824TIP3    H235888   5.417   0.683  15.724  1.0573 -1.7058  0.6091
 4825TIP3   OH235889   3.492   5.085  13.313  0.5152 -0.0916  0.8412
 4825TIP3    H135890   3.400   5.075  13.337 -0.0815 -1.5422 -1.6889
 4825TIP3    H235891   3.503   5.179  13.296 -2.0544 -0.3401 -3.8440
 4826TIP3   OH235892   0.495   0.126  14.102  0.0280 -0.5167  0.1722
 4826TIP3    H135893   0.530   0.082  14.024 -0.8728 -0.6422 -0.1790
 4826TIP3    H235894   0.460   0.209  14.068 -2.3219 -1.4984  0.0308
 4827TIP3   OH235895   4.450   2.261   4.723 -0.4519 -0.6737  0.2124
 4827TIP3    H135896   4.523   2.227   4.775 -0.1574 -0.7083 -0.2118
 4827TIP3    H235897   4.458   2.215   4.639 -0.7951 -0.4693  0.0685
 4828TIP3   OH235898   3.640   3.396  11.046  0.0235 -0.2833  0.1140
 4828TIP3    H135899   3.573   3.392  10.978 -2.2852 -1.5466  2.2704
 4828TIP3    H235900   3.664   3.304  11.061 -1.4467 -0.3570  2.6390
 4829TIP3   OH235901   3.933   0.059   0.319  0.1646 -0.3589 -0.3640
 4829TIP3    H135902   3.937   0.058   0.414 -2.1755  0.0077 -0.2067
 4829TIP3    H235903   3.899  -0.027   0.295 -0.6059  0.0386 -0.7510
 4830TIP3   OH235904   0.778   1.397   0.643 -0.3905  0.3776 -0.3046
 4830TIP3    H135905   0.747   1.307   0.641  0.0169  0.1829  0.8205
 4830TIP3    H235906   0.702   1.450   0.621 -1.8683 -0.0198  3.1926
 4831TIP3   OH235907   2.647   1.501   5.036  0.4709 -0.0862  0.1456
 4831TIP3    H135908   2.656   1.432   5.101  0.6533  0.7566  1.0436
 4831TIP3    H235909   2.592   1.567   5.077  0.3493  0.3405 -0.6653
 4832TIP3   OH235910   6.540   2.571   0.666  0.2065  0.2110  0.5692
 4832TIP3    H135911   6.621   2.522   0.684  0.8212  1.0182  0.0613
 4832TIP3    H235912   6.488   2.511   0.613  0.6076 -0.1982  0.6266
 4833TIP3   OH235913   4.080   6.562   3.670  0.7494  0.0467 -0.2125
 4833TIP3    H135914   4.072   6.548   3.764  1.3587  0.4458 -0.0941
 4833TIP3    H235915   4.171   6.539   3.649  0.6298 -0.0085 -0.6957
 4834TIP3   OH235916   3.832   2.123  15.149 -0.3398  0.7149  0.2112
 4834TIP3    H135917   3.853   2.072  15.071  0.1572  0.9841  0.1662
 4834TIP3    H235918   3.902   2.188  15.156  0.0303  0.2305  1.2966
 4835TIP3   OH235919   1.604   2.294  16.735  0.0451 -0.1379  0.1585
 4835TIP3    H135920   1.585   2.294  16.829 -1.1476 -1.9282 -0.0388
 4835TIP3    H235921   1.661   2.219  16.722 -0.5805 -0.4844 -0.6681
 4836TIP3   OH235922   1.322   5.114   5.107  0.7081  0.0445 -0.2002
 4836TIP3    H135923   1.369   5.056   5.168  2.1069  0.2000 -1.0988
 4836TIP3    H235924   1.369   5.105   5.024 -0.0012  1.2969 -0.7613
 4837TIP3   OH235925   2.326   2.543   5.958 -0.2528 -0.2418 -0.3072
 4837TIP3    H135926   2.318   2.629   5.918 -0.5482 -0.9131 -1.7977
 4837TIP3    H235927   2.299   2.482   5.889 -1.5749 -1.4542  1.1980
 4838TIP3   OH235928   4.838   4.640  14.453 -0.6186 -0.4746  0.2923
 4838TIP3    H135929   4.929   4.614  14.440  0.0492  1.3973  0.8254
 4838TIP3    H235930   4.794   4.611  14.373  0.3034 -1.9057  0.2579
 4839TIP3   OH235931   0.919   2.290   1.784 -0.3350 -0.4905 -0.7080
 4839TIP3    H135932   0.907   2.229   1.857  0.6814  0.1875  0.0644
 4839TIP3    H235933   0.897   2.376   1.821 -1.3565 -0.3262 -1.6599
 4840TIP3   OH235934   3.339   6.742   3.994 -0.0998  0.3817 -0.1776
 4840TIP3    H135935   3.368   6.672   3.935 -1.4990 -1.3284  1.0734
 4840TIP3    H235936   3.413   6.755   4.053 -0.4253 -1.2725  0.6351
 4841TIP3   OH235937   0.698   6.386  14.686  0.2468  0.6447  0.9261
 4841TIP3    H135938   0.618   6.343  14.655  0.4475 -0.5067  1.9622
 4841TIP3    H235939   0.666   6.461  14.737 -0.1080  1.4430 -0.3930
 4842TIP3   OH235940   1.436   4.354   5.912  1.0849  0.5600 -0.6192
 4842TIP3    H135941   1.363   4.342   5.850  2.0838 -1.8341 -1.4467
 4842TIP3    H235942   1.426   4.444   5.943 -2.1620  0.3854 -0.7548
 4843TIP3   OH235943   0.858   2.516  11.696 -0.2861  1.0299 -0.2782
 4843TIP3    H135944   0.869   2.485  11.606 -0.1638  0.9911 -0.2497
 4843TIP3    H235945   0.877   2.609  11.692  3.0707  0.4894  0.3011
 4844TIP3   OH235946   1.254   6.643   4.161 -0.7515 -0.3002 -0.4372
 4844TIP3    H135947   1.201   6.626   4.083 -0.8414 -0.6624 -0.3003
 4844TIP3    H235948   1.275   6.556   4.195 -1.0708 -0.1407  0.1907
 4845TIP3   OH235949   5.368   4.715  11.327 -0.0859  0.6220  0.0440
 4845TIP3    H135950   5.424   4.782  11.289 -0.6306 -0.3301 -2.6420
 4845TIP3    H235951   5.367   4.644  11.263 -1.7309 -0.7981  1.4991
 4846TIP3   OH235952   2.926   0.035   0.466 -0.4995 -0.5175 -0.2927
 4846TIP3    H135953   2.843  -0.012   0.463 -0.5430 -0.4196 -0.7607
 4846TIP3    H235954   2.908   0.118   0.421 -0.5603  0.1711  0.9525
 4847TIP3   OH235955   1.793   3.309  11.462 -0.2946  0.4457  0.1158
 4847TIP3    H135956   1.799   3.339  11.372  0.4517  0.9775  0.3355
 4847TIP3    H235957   1.737   3.232  11.458  1.0563 -0.5067 -1.0332
 4848TIP3   OH235958   2.930   4.118  11.144 -0.1022  0.7253  0.3377
 4848TIP3    H135959   3.007   4.070  11.113 -0.7984 -0.2023  0.0264
 4848TIP3    H235960   2.939   4.205  11.103 -0.3829 -0.0836 -1.5542
 4849TIP3   OH235961   0.656   6.513  10.821 -0.1619  0.1288  0.1278
 4849TIP3    H135962   0.632   6.420  10.815  0.6592 -0.1892  1.2769
 4849TIP3    H235963   0.726   6.524  10.757  0.0114 -0.1485  0.2668
 4850TIP3   OH235964   2.494   2.857   2.604  0.2320  0.0787  0.0028
 4850TIP3    H135965   2.495   2.782   2.663 -2.4113 -0.0922 -0.0285
 4850TIP3    H235966   2.584   2.891   2.605  1.2728 -2.5183  0.7083
 4851TIP3   OH235967   5.350   0.449  12.308 -0.3403 -0.0967  0.1275
 4851TIP3    H135968   5.346   0.363  12.266 -0.8657  0.6072 -1.3258
 4851TIP3    H235969   5.327   0.432  12.399 -0.1160 -1.5396 -0.0716
 4852TIP3   OH235970   5.468   0.030   0.923  0.0429 -0.1691 -0.2222
 4852TIP3    H135971   5.502   0.113   0.888 -0.1828  0.0277  0.0137
 4852TIP3    H235972   5.452   0.049   1.016  1.6588 -0.9808  0.2682
 4853TIP3   OH235973   2.165   0.305  13.010  0.0977 -0.0213 -0.1972
 4853TIP3    H135974   2.174   0.395  13.043 -0.7822  0.5279 -1.3901
 4853TIP3    H235975   2.111   0.261  13.075  0.7208  0.2399  0.5128
 4854TIP3   OH235976   2.302   4.407   2.841 -0.0754 -0.2595 -0.4926
 4854TIP3    H135977   2.315   4.410   2.747 -0.6022 -3.0524 -0.7155
 4854TIP3    H235978   2.217   4.366   2.853 -0.1657  0.3403  1.2158
 4855TIP3   OH235979   2.165   0.579  16.504  0.1569  0.3166  0.2162
 4855TIP3    H135980   2.203   0.504  16.457  0.4751  1.7219 -1.8741
 4855TIP3    H235981   2.217   0.654  16.475 -0.6941  1.4904  1.6218
 4856TIP3   OH235982   0.768   4.373   0.043  0.2280 -0.4386  0.2744
 4856TIP3    H135983   0.690   4.337   0.001  0.8633 -0.1070 -1.2363
 4856TIP3    H235984   0.768   4.465   0.020  0.9713 -0.3994  0.4175
 4857TIP3   OH235985   6.601   3.926   0.990  0.0321 -0.4056  0.3571
 4857TIP3    H135986   6.668   3.874   0.946 -1.2648  0.2683 -2.7106
 4857TIP3    H235987   6.567   3.869   1.059  1.4065 -2.0501 -0.2601
 4858TIP3   OH235988   3.270   3.331   3.174  0.3002  0.2217 -0.4794
 4858TIP3    H135989   3.302   3.269   3.239  0.3028 -0.2140 -0.8920
 4858TIP3    H235990   3.228   3.400   3.225  0.1135 -0.2263 -0.0246
 4859TIP3   OH235991   6.044   0.709  12.428 -0.0639 -0.3009 -0.2476
 4859TIP3    H135992   6.099   0.754  12.491 -1.7975  0.6424  0.6818
 4859TIP3    H235993   6.035   0.771  12.355 -0.9645  0.1368  0.2163
 4860TIP3   OH235994   5.373   3.550   5.219 -0.5015  0.3784  0.4193
 4860TIP3    H135995   5.312   3.525   5.288 -0.5271  0.7975  0.5514
 4860TIP3    H235996   5.342   3.636   5.190  0.4282  0.9048  0.9573
 4861TIP3   OH235997   5.774   3.363   6.466  0.6339  0.3617 -0.0556
 4861TIP3    H135998   5.789   3.318   6.549 -2.0912  1.5052  1.1952
 4861TIP3    H235999   5.722   3.440   6.490 -2.2356 -0.4333 -3.0079
 4862TIP3   OH236000   5.556   1.973  13.268 -0.1024 -0.2110 -0.3035
 4862TIP3    H136001   5.588   2.000  13.354  0.6659  1.4398 -1.0703
 4862TIP3    H236002   5.478   1.921  13.287  1.2385 -1.7056  1.4736
 4863TIP3   OH236003   3.386   0.536  15.033  0.3047  0.0696 -0.3320
 4863TIP3    H136004   3.479   0.556  15.021  0.1688  2.4948  1.7289
 4863TIP3    H236005   3.378   0.507  15.124 -1.2407  3.0441  0.6481
 4864TIP3   OH236006   6.463   4.884  16.332  0.0452  0.1717 -0.7927
 4864TIP3    H136007   6.516   4.809  16.359 -1.5304 -0.3447  1.1192
 4864TIP3    H236008   6.523   4.940  16.283  1.9715 -1.0174  0.0971
 4865TIP3   OH236009   4.681   5.499   5.300 -0.1715 -0.5694  0.5063
 4865TIP3    H136010   4.746   5.510   5.230  2.0573  0.3488  2.5687
 4865TIP3    H236011   4.680   5.405   5.316  1.3284 -0.5433  0.9699
 4866TIP3   OH236012   5.002   0.378   4.393  0.4380  0.7330  0.1293
 4866TIP3    H136013   4.925   0.324   4.372 -0.2284  1.7534 -0.1383
 4866TIP3    H236014   5.014   0.368   4.487  1.0248 -0.7650 -0.0784
 4867TIP3   OH236015   0.403   2.863   2.466  0.3568  0.2882 -0.1378
 4867TIP3    H136016   0.339   2.839   2.533  0.8930  1.1431  0.6850
 4867TIP3    H236017   0.360   2.932   2.415  1.1078  1.8397  1.2623
 4868TIP3   OH236018   6.002   6.597   2.839  0.8722  0.1698  0.2430
 4868TIP3    H136019   6.010   6.508   2.805  0.7226  0.5968 -0.9779
 4868TIP3    H236020   5.925   6.594   2.896  0.1165 -0.2167 -0.7610
 4869TIP3   OH236021   5.646   3.146  15.712 -0.2387 -0.3769  0.1753
 4869TIP3    H136022   5.634   3.223  15.767 -0.8197 -0.0161 -0.4477
 4869TIP3    H236023   5.720   3.099  15.752 -0.9208 -0.3550  1.5297
 4870TIP3   OH236024   3.361   4.138   6.114  0.1321 -0.7744 -0.6249
 4870TIP3    H136025   3.332   4.147   6.204 -1.1657 -2.8580 -0.7551
 4870TIP3    H236026   3.453   4.163   6.115 -0.4345  1.4877  0.7767
 4871TIP3   OH236027   4.686   2.923  11.976  0.0708 -0.3099  0.0189
 4871TIP3    H136028   4.736   2.982  12.032 -0.2395 -1.7380  1.8996
 4871TIP3    H236029   4.747   2.853  11.954  0.1502  0.1604 -1.4019
 4872TIP3   OH236030   1.637   3.017  14.107 -0.0203  0.1811 -0.3618
 4872TIP3    H136031   1.613   2.935  14.063  2.7162 -0.6081 -0.5452
 4872TIP3    H236032   1.690   3.064  14.043  1.1308  0.6071  0.8724
 4873TIP3   OH236033   1.015   6.572  15.185  0.2502 -0.0308 -0.1761
 4873TIP3    H136034   0.936   6.621  15.212 -0.9088 -1.4604 -0.8747
 4873TIP3    H236035   1.063   6.634  15.129  0.5688  1.4895  1.6531
 4874TIP3   OH236036   2.563   3.125  14.074  0.1405 -0.2576  0.2449
 4874TIP3    H136037   2.553   3.220  14.067 -0.3407 -0.2844  0.5240
 4874TIP3    H236038   2.594   3.110  14.163 -0.2774 -0.3962  0.3704
 4875TIP3   OH236039   2.976   5.641   0.011 -0.6203 -0.2566  0.3125
 4875TIP3    H136040   2.894   5.670   0.051 -0.0072  0.8506  0.7996
 4875TIP3    H236041   2.991   5.702  -0.061 -0.9978 -1.3984 -0.7685
 4876TIP3   OH236042   1.567   0.437   5.919 -0.1018  0.4628  0.5434
 4876TIP3    H136043   1.545   0.422   6.011  0.1511 -0.9475  0.4033
 4876TIP3    H236044   1.493   0.485   5.884 -2.3224 -2.6667  0.4886
 4877TIP3   OH236045   6.740   1.937  11.681 -0.7722  0.4764  0.0049
 4877TIP3    H136046   6.818   1.990  11.698  0.1604 -0.7247 -0.3738
 4877TIP3    H236047   6.673   1.975  11.737  0.1143  1.4684  0.4394
 4878TIP3   OH236048   4.343   0.082   4.773  0.4105 -0.0830 -0.1571
 4878TIP3    H136049   4.317   0.067   4.864  2.0930  0.7078  0.4919
 4878TIP3    H236050   4.337  -0.004   4.732  0.3879 -0.6057  0.9155
 4879TIP3   OH236051   5.963   1.857  16.514  0.0750 -0.2777  0.6637
 4879TIP3    H136052   6.015   1.875  16.435 -0.5565 -1.3336 -0.0230
 4879TIP3    H236053   5.874   1.842  16.481 -0.2409 -0.5567  1.6032
 4880TIP3   OH236054   1.675   0.096   0.174  0.0730  0.2235 -0.0955
 4880TIP3    H136055   1.732   0.171   0.160 -1.1993  1.4755  1.0763
 4880TIP3    H236056   1.688   0.073   0.266  0.4286 -0.9858 -0.4331
 4881TIP3   OH236057   5.967   2.808   1.263  0.2879 -0.3311  0.0632
 4881TIP3    H136058   5.965   2.714   1.242  1.8626 -0.4205  0.2038
 4881TIP3    H236059   6.060   2.828   1.273 -0.0764  1.0865  0.7961
 4882TIP3   OH236060   1.349   5.129  12.845 -0.5073  0.0645  0.1249
 4882TIP3    H136061   1.340   5.214  12.889  0.3809 -1.0426  2.6001
 4882TIP3    H236062   1.266   5.085  12.862 -0.7792  0.2226 -0.7426
 4883TIP3   OH236063   1.926   5.213   0.787 -0.1815 -0.0926  0.1274
 4883TIP3    H136064   1.942   5.303   0.758  1.0150 -0.4516 -0.4000
 4883TIP3    H236065   1.999   5.194   0.846  0.3160 -1.1510 -0.7976
 4884TIP3   OH236066   0.688   4.000   1.141 -0.0904  0.4920  0.4698
 4884TIP3    H136067   0.625   4.061   1.103 -0.0286  0.1805 -0.1540
 4884TIP3    H236068   0.635   3.937   1.189 -0.4584 -0.9099 -1.6498
 4885TIP3   OH236069   1.984   4.514   4.055 -0.1552 -0.4148 -0.6495
 4885TIP3    H136070   2.068   4.469   4.063 -0.2755 -0.7196 -1.0735
 4885TIP3    H236071   1.992   4.566   3.975 -0.8501 -1.5093 -1.4624
 4886TIP3   OH236072   0.113   4.160  13.745  0.2586  0.4040  0.2228
 4886TIP3    H136073   0.184   4.130  13.802 -0.9517 -2.4070  0.3996
 4886TIP3    H236074   0.037   4.168  13.803 -1.1206 -2.9695 -0.8722
 4887TIP3   OH236075   3.905   1.892  16.868  0.5354  0.5443 -0.1149
 4887TIP3    H136076   3.918   1.971  16.814  0.3881  1.7889  1.5931
 4887TIP3    H236077   3.966   1.828  16.832  1.0991  1.6199 -1.1662
 4888TIP3   OH236078   2.013   2.961   5.456  0.2578 -0.6076  0.0842
 4888TIP3    H136079   1.958   3.040   5.456  1.2331  0.1632 -1.7428
 4888TIP3    H236080   1.955   2.891   5.430 -0.7291 -0.6183  2.1542
 4889TIP3   OH236081   3.597   1.974  17.103  0.3912  0.4179 -0.5807
 4889TIP3    H136082   3.530   1.986  17.171  0.4943  0.9214 -0.5590
 4889TIP3    H236083   3.624   1.883  17.111 -0.1570  0.2639 -0.4601
 4890TIP3   OH236084   3.311   3.248  11.480 -0.8888  0.1805 -0.4018
 4890TIP3    H136085   3.277   3.325  11.435  0.4490  0.6889 -0.5880
 4890TIP3    H236086   3.338   3.189  11.410 -2.1951 -0.6055 -0.2623
 4891TIP3   OH236087   0.669   2.257  15.466 -0.2954  0.3600  0.1759
 4891TIP3    H136088   0.656   2.215  15.551 -0.5495  0.4646  0.1899
 4891TIP3    H236089   0.611   2.210  15.407  1.3819 -1.0912 -0.3982
 4892TIP3   OH236090   2.714   2.497  11.326  0.3115 -0.0819  0.2831
 4892TIP3    H136091   2.786   2.467  11.270  2.2088  2.0982  1.3897
 4892TIP3    H236092   2.721   2.444  11.405  1.4246  0.7912  0.8028
 4893TIP3   OH236093   4.839   5.541   4.731  0.3469  0.1426  0.0707
 4893TIP3    H136094   4.753   5.568   4.698  0.2939  0.6834  0.6341
 4893TIP3    H236095   4.860   5.462   4.682 -0.5067 -0.0310 -0.0286
 4894TIP3   OH236096   2.852   1.218   4.184 -0.0942 -0.0593 -0.1478
 4894TIP3    H136097   2.816   1.138   4.145 -0.8763 -0.4513  1.2880
 4894TIP3    H236098   2.807   1.289   4.140 -1.2309 -0.5017  0.2453
 4895TIP3   OH236099   4.287   3.672   1.857  0.4891  0.2198 -0.2060
 4895TIP3    H136100   4.210   3.621   1.883  0.8425 -1.6779 -2.5159
 4895TIP3    H236101   4.362   3.620   1.887  0.8493 -0.0879 -1.5667
 4896TIP3   OH236102   6.009   1.004  17.277  0.5789  0.1604 -0.0455
 4896TIP3    H136103   6.015   0.908  17.283  0.8528  0.2290  0.9747
 4896TIP3    H236104   6.100   1.033  17.273  0.4861  0.3522 -1.1393
 4897TIP3   OH236105   0.415   6.728  13.589 -0.4607  0.1575  0.1475
 4897TIP3    H136106   0.469   6.697  13.516  0.4919  0.0996  0.8580
 4897TIP3    H236107   0.361   6.652  13.613 -0.0003 -0.1597  0.1928
 4898TIP3   OH236108   5.037   6.145  11.485  0.0647 -0.3672 -0.1922
 4898TIP3    H136109   5.030   6.079  11.416 -0.2890 -0.2346 -0.2889
 4898TIP3    H236110   4.946   6.162  11.509  0.1058  0.6811 -0.7379
 4899TIP3   OH236111   4.244   0.900   2.608 -0.3905 -0.2731 -0.4576
 4899TIP3    H136112   4.308   0.897   2.679  1.0520 -0.8489 -1.7254
 4899TIP3    H236113   4.160   0.884   2.651  0.4171 -0.4854  1.1281
 4900TIP3   OH236114   2.271   3.022  11.860  0.0573  0.3645 -0.5240
 4900TIP3    H136115   2.203   3.039  11.794  0.9537  0.7770 -1.3712
 4900TIP3    H236116   2.311   2.940  11.833  1.1716  1.0889 -1.1679
 4901TIP3   OH236117   0.176   4.672  12.226 -0.0027  0.1778 -0.6959
 4901TIP3    H136118   0.252   4.717  12.264 -1.1594  1.2520  0.4387
 4901TIP3    H236119   0.103   4.732  12.242 -1.9984 -2.7769  2.4023
 4902TIP3   OH236120   6.318   5.298  16.867 -0.1697 -0.4601 -0.0671
 4902TIP3    H136121   6.365   5.323  16.946 -1.7378  0.1687  0.7215
 4902TIP3    H236122   6.352   5.356  16.799  1.8283 -1.6075 -0.1077
 4903TIP3   OH236123   2.184   2.299  12.794  0.4312  0.5803  0.1931
 4903TIP3    H136124   2.259   2.251  12.829  0.8443  1.7535  1.0164
 4903TIP3    H236125   2.166   2.366  12.861 -0.5703  1.0911 -0.5636
 4904TIP3   OH236126   5.649   5.679   2.282  0.0469  0.0509  0.1445
 4904TIP3    H136127   5.566   5.634   2.268  0.3079 -0.8450  1.3696
 4904TIP3    H236128   5.624   5.768   2.307 -0.5647 -0.3322  0.9358
 4905TIP3   OH236129   4.721   3.023   5.680 -0.1587  0.1227 -0.1594
 4905TIP3    H136130   4.718   2.965   5.604  0.6555  0.3181 -0.3484
 4905TIP3    H236131   4.753   2.968   5.751  0.8010  0.3712 -0.3835
 4906TIP3   OH236132   1.050   4.011   2.214 -0.5856 -0.4906 -0.2510
 4906TIP3    H136133   1.064   3.995   2.121  0.6786 -2.6271  0.2325
 4906TIP3    H236134   0.997   3.937   2.243  0.1853 -0.6013  0.9546
 4907TIP3   OH236135   4.956   1.124  13.759  0.1593 -0.3028  0.1237
 4907TIP3    H136136   5.011   1.062  13.807  0.3920  0.8241  1.3960
 4907TIP3    H236137   4.883   1.072  13.727  0.2348 -1.2153  1.3552
 4908TIP3   OH236138   1.556   3.135  15.131 -0.3342  0.2369 -0.0590
 4908TIP3    H136139   1.495   3.162  15.062  2.0505  0.5668 -2.1658
 4908TIP3    H236140   1.568   3.041  15.117 -1.7866 -0.2690  1.6395
 4909TIP3   OH236141   3.228   0.310   3.485  0.1248  0.4944 -0.0769
 4909TIP3    H136142   3.303   0.368   3.499  0.4541 -0.0318  0.3340
 4909TIP3    H236143   3.188   0.302   3.572  0.3033 -0.1990 -0.0533
 4910TIP3   OH236144   3.815   3.349  12.091  0.1296 -0.6878  0.2814
 4910TIP3    H136145   3.844   3.265  12.056  2.3757  0.0711  0.1847
 4910TIP3    H236146   3.826   3.410  12.018 -1.6835 -0.2990  0.2810
 4911TIP3   OH236147   3.069   0.378  11.574 -0.4564 -0.1073 -0.8698
 4911TIP3    H136148   2.979   0.362  11.548  0.0092 -0.9494 -2.0399
 4911TIP3    H236149   3.077   0.337  11.660 -1.1182 -0.2070 -0.8511
 4912TIP3   OH236150   0.810   2.947  15.191 -0.2011  0.2724  0.8646
 4912TIP3    H136151   0.716   2.963  15.193 -0.4083 -0.9243  1.5242
 4912TIP3    H236152   0.837   2.969  15.102 -1.8147 -3.1527 -0.6402
 4913TIP3   OH236153   4.633   4.299   1.572  0.7444 -0.0368  0.5544
 4913TIP3    H136154   4.727   4.288   1.555  0.4719 -2.1358  0.2500
 4913TIP3    H236155   4.630   4.343   1.658  1.9809  1.0106  0.0996
 4914TIP3   OH236156   6.628   3.440  12.539 -0.2351 -0.4793 -0.2831
 4914TIP3    H136157   6.639   3.391  12.621 -0.3307 -0.9455 -0.5397
 4914TIP3    H236158   6.587   3.377  12.480  3.2363 -1.4652 -1.9151
 4915TIP3   OH236159   0.587   1.152   1.555 -0.5463 -0.0359 -0.6101
 4915TIP3    H136160   0.662   1.106   1.519  2.6759  4.3073 -0.1846
 4915TIP3    H236161   0.573   1.112   1.641  0.4008 -1.7595 -1.2152
 4916TIP3   OH236162   4.654   3.116  13.029  0.3268 -0.0640 -0.0908
 4916TIP3    H136163   4.571   3.128  13.074  0.8998  2.1055  0.4922
 4916TIP3    H236164   4.703   3.055  13.084  0.1975  0.8938  1.1110
 4917TIP3   OH236165   1.512   4.750   1.332 -0.0134 -0.1114  0.2776
 4917TIP3    H136166   1.518   4.756   1.428  1.1033 -0.2464  0.2306
 4917TIP3    H236167   1.468   4.831   1.306  0.6155  0.4200  0.8337
 4918TIP3   OH236168   5.256   0.406  15.929 -0.3767 -0.4422 -0.4298
 4918TIP3    H136169   5.325   0.468  15.952 -1.2783  0.7401 -0.8112
 4918TIP3    H236170   5.176   0.446  15.962 -0.9154 -1.7344 -0.1021
 4919TIP3   OH236171   0.413   6.467   4.035 -0.3804 -0.2954  0.0153
 4919TIP3    H136172   0.326   6.433   4.016 -1.9197  2.6807  1.0507
 4919TIP3    H236173   0.435   6.432   4.121 -0.5980 -0.9745 -0.2047
 4920TIP3   OH236174   5.307   4.761   5.253  0.5965  0.8134  0.0086
 4920TIP3    H136175   5.294   4.668   5.235 -0.2901  0.7680  0.7687
 4920TIP3    H236176   5.371   4.762   5.324  2.1313  0.8916 -1.3098
 4921TIP3   OH236177   4.382   1.464  15.125  0.1926 -0.5134  0.1627
 4921TIP3    H136178   4.440   1.389  15.141  1.8292  0.9352  1.4253
 4921TIP3    H236179   4.333   1.474  15.206 -0.3913 -0.5159 -0.1858
 4922TIP3   OH236180   3.022   6.606   2.231 -0.2214  0.0303 -0.3566
 4922TIP3    H136181   3.018   6.511   2.241 -1.7885 -0.1012 -1.7595
 4922TIP3    H236182   2.953   6.639   2.289 -0.0618  0.2720 -0.3048
 4923TIP3   OH236183   2.823   1.620  13.866  0.0158 -0.4198 -0.3371
 4923TIP3    H136184   2.852   1.579  13.948  1.2739  3.3587  1.3677
 4923TIP3    H236185   2.728   1.631  13.877  0.1176 -0.2935  0.4926
 4924TIP3   OH236186   2.311   0.586   4.573  0.2108  0.1865  0.5597
 4924TIP3    H136187   2.390   0.637   4.590 -0.8851  1.8100  1.0736
 4924TIP3    H236188   2.278   0.563   4.660  0.8713 -1.7506  0.3270
 4925TIP3   OH236189   0.291   5.507  12.966 -0.0137  0.1965 -0.6523
 4925TIP3    H136190   0.220   5.533  13.026 -0.0341  0.7406 -0.9132
 4925TIP3    H236191   0.324   5.425  13.003  0.4988  0.9196  0.5547
 4926TIP3   OH236192   4.438   0.478   3.614  0.2320 -0.4304  0.1960
 4926TIP3    H136193   4.385   0.521   3.681 -0.9828 -1.2353 -0.2226
 4926TIP3    H236194   4.417   0.385   3.622 -0.9302 -0.4351 -2.1161
 4927TIP3   OH236195   5.260   2.609  16.403 -0.1758 -0.1026  0.1370
 4927TIP3    H136196   5.192   2.564  16.354  1.8516 -2.0105 -1.1483
 4927TIP3    H236197   5.309   2.539  16.447  0.6632  1.2237  1.4410
 4928TIP3   OH236198   4.828   2.506  13.568  0.1079 -0.5183 -0.0146
 4928TIP3    H136199   4.804   2.533  13.657  0.0051  1.2060 -0.5373
 4928TIP3    H236200   4.828   2.587  13.517  3.4639 -0.9017 -0.8577
 4929TIP3   OH236201   1.366   2.137  13.296  0.0599  0.0350  0.3056
 4929TIP3    H136202   1.376   2.052  13.254 -0.7381 -0.3304  0.8264
 4929TIP3    H236203   1.357   2.117  13.389 -0.9196  0.6202  0.3499
 4930TIP3   OH236204   1.225   6.126  13.930 -0.0234 -0.2991 -0.5212
 4930TIP3    H136205   1.188   6.040  13.950  0.8610 -0.4961  0.3322
 4930TIP3    H236206   1.319   6.111  13.923  0.0149  0.3810 -1.6149
 4931TIP3   OH236207   5.589   3.221  13.053 -1.1590  0.4906 -0.0330
 4931TIP3    H136208   5.616   3.274  13.128  2.2092  0.0881 -0.8152
 4931TIP3    H236209   5.564   3.284  12.986 -0.2500  1.0038  0.0995
 4932TIP3   OH236210   6.541   3.282   6.383 -0.3322 -0.2486  0.4645
 4932TIP3    H136211   6.454   3.321   6.385 -0.5664 -0.7860  1.3831
 4932TIP3    H236212   6.596   3.347   6.339 -0.5724  1.4432  2.5061
 4933TIP3   OH236213   6.737   1.535  13.202 -0.3285 -0.3792  0.0295
 4933TIP3    H136214   6.703   1.506  13.117  0.7910 -0.2111 -0.4938
 4933TIP3    H236215   6.671   1.507  13.265 -0.9607 -0.9106 -0.8450
 4934TIP3   OH236216   3.877   3.133  11.946  0.3967  0.4384 -0.2561
 4934TIP3    H136217   3.811   3.075  11.984  0.7186  0.1057 -0.1985
 4934TIP3    H236218   3.844   3.151  11.858  1.2949 -1.5085 -1.0480
 4935TIP3   OH236219   4.766   6.084   6.807 -0.0010 -0.3739 -0.2153
 4935TIP3    H136220   4.844   6.127   6.771 -0.9355  0.8185 -0.8907
 4935TIP3    H236221   4.708   6.156   6.831 -0.3063 -1.2000  1.6712
 4936TIP3   OH236222   6.587   6.729  12.457  0.4060 -0.5321  0.7022
 4936TIP3    H136223   6.655   6.690  12.403 -1.3157 -1.5095 -0.8558
 4936TIP3    H236224   6.584   6.675  12.536  1.0524 -0.7817  0.5604
 4937TIP3   OH236225   5.904   4.541  13.084  0.2811 -0.8229  0.0174
 4937TIP3    H136226   5.861   4.459  13.062  0.6892 -1.5086  1.6366
 4937TIP3    H236227   5.998   4.521  13.078  0.3854 -0.2584 -0.3109
 4938TIP3   OH236228   2.690   6.547  13.808  0.1905 -0.2440  0.0748
 4938TIP3    H136229   2.648   6.570  13.725  0.1694  1.9771  0.6429
 4938TIP3    H236230   2.783   6.560  13.793  0.0300  3.1655  1.1270
 4939TIP3   OH236231   5.088   5.329  13.548  0.4633  0.5617 -0.1407
 4939TIP3    H136232   5.137   5.342  13.629 -1.2443 -1.0813  1.2330
 4939TIP3    H236233   5.067   5.236  13.547 -0.3108  0.7045 -2.0509
 4940TIP3   OH236234   2.070   6.218  11.766  0.4300  0.6557  0.1837
 4940TIP3    H136235   2.021   6.153  11.817 -0.9340  0.4670 -1.2946
 4940TIP3    H236236   2.031   6.302  11.792  3.4856  1.2896  3.5891
 4941TIP3   OH236237   6.187   5.759   0.981  0.0149 -0.8556 -0.2674
 4941TIP3    H136238   6.273   5.798   0.963 -0.6418  0.6973 -0.2006
 4941TIP3    H236239   6.194   5.727   1.071  0.1030  0.5440  0.2495
 4942TIP3   OH236240   1.367   4.172   3.146 -0.4179 -0.1017 -0.2265
 4942TIP3    H136241   1.368   4.077   3.136  1.0764  0.0714 -2.6192
 4942TIP3    H236242   1.456   4.194   3.173 -1.1117  0.5693  1.6684
 4943TIP3   OH236243   3.285   5.076  11.053  0.2872  0.7364  0.3444
 4943TIP3    H136244   3.279   5.084  10.958  0.8365  0.0354  0.2474
 4943TIP3    H236245   3.211   5.020  11.078 -0.6291  1.9627  0.4889
 4944TIP3   OH236246   0.875   4.515  11.883  0.0382 -0.2076  0.3569
 4944TIP3    H136247   0.819   4.554  11.815  1.5000 -2.0207 -2.0295
 4944TIP3    H236248   0.874   4.421  11.864  1.8828 -0.5712  1.8122
 4945TIP3   OH236249   4.677   3.489  14.532 -0.0690 -0.2132 -0.1170
 4945TIP3    H136250   4.606   3.443  14.487 -0.1366  1.3272 -1.6949
 4945TIP3    H236251   4.687   3.442  14.615 -2.3097 -1.0422 -0.2385
 4946TIP3   OH236252   4.300   1.738   5.706  0.3035  0.6263 -0.1780
 4946TIP3    H136253   4.314   1.793   5.630 -0.3652 -0.2746 -0.9762
 4946TIP3    H236254   4.218   1.692   5.687  1.1855 -1.1398  0.1624
 4947TIP3   OH236255   5.503   0.778  15.420 -0.6457  0.3258 -0.2354
 4947TIP3    H136256   5.583   0.784  15.472 -0.1705  0.0703 -0.9276
 4947TIP3    H236257   5.450   0.852  15.450 -0.8249 -0.4110  1.3304
 4948TIP3   OH236258   6.210   2.779  13.735 -0.9380  0.0008 -0.3960
 4948TIP3    H136259   6.163   2.702  13.766  1.5410 -2.0095 -1.2579
 4948TIP3    H236260   6.222   2.764  13.641  2.5052 -0.3722 -0.0195
 4949TIP3   OH236261   6.732   5.150   2.696  0.1844  0.1251  0.3353
 4949TIP3    H136262   6.661   5.134   2.758 -0.6138 -0.4266 -0.6980
 4949TIP3    H236263   6.738   5.245   2.690  0.5216  0.2024  1.5074
 4950TIP3   OH236264   4.948   5.602  15.741  1.1056  0.4828 -0.6183
 4950TIP3    H136265   4.996   5.683  15.758  2.5250 -0.5613  0.4584
 4950TIP3    H236266   5.010   5.546  15.695 -0.3012  0.4514 -2.6469
 4951TIP3   OH236267   4.358   0.057   2.627  0.3383  0.4089 -0.1893
 4951TIP3    H136268   4.390   0.147   2.619 -0.4787  0.5508 -2.9618
 4951TIP3    H236269   4.374   0.018   2.541 -0.7835 -1.6042  0.4525
 4952TIP3   OH236270   6.340   5.203  12.303 -0.1744  0.2939 -0.1640
 4952TIP3    H136271   6.286   5.176  12.230 -0.7502  1.0802 -0.0339
 4952TIP3    H236272   6.422   5.232  12.263  0.6399 -1.9752 -0.2891
 4953TIP3   OH236273   1.148   5.940  15.987 -0.2859 -0.1154 -0.1474
 4953TIP3    H136274   1.185   5.913  16.070  0.4743  0.0313 -0.4345
 4953TIP3    H236275   1.060   5.902  15.986  0.3525 -1.6503 -0.0633
 4954TIP3   OH236276   0.920   6.574  15.837  0.3659 -0.6334 -0.1450
 4954TIP3    H136277   0.874   6.625  15.904  0.1458 -1.1025  0.0674
 4954TIP3    H236278   0.851   6.541  15.780  0.3290 -2.0212  0.6439
 4955TIP3   OH236279   6.392   0.547  14.513 -0.1939 -0.0709  0.4787
 4955TIP3    H136280   6.307   0.528  14.473 -0.4488 -0.7283  1.2959
 4955TIP3    H236281   6.418   0.631  14.475 -1.0508 -0.0246 -0.0375
 4956TIP3   OH236282   6.736   2.982  14.620 -0.1030 -0.1339 -0.3651
 4956TIP3    H136283   6.718   3.046  14.689  2.4080 -0.1346  0.3670
 4956TIP3    H236284   6.654   2.978  14.570 -1.8970  0.1663  2.3162
 4957TIP3   OH236285   5.875   6.029   5.810  0.3434  0.3597 -0.1125
 4957TIP3    H136286   5.939   6.058   5.745 -1.7562  0.9739 -2.0342
 4957TIP3    H236287   5.900   6.075   5.891  1.8558  1.1471 -0.9863
 4958TIP3   OH236288   0.697   2.177  16.918 -0.6203  0.2154 -0.2964
 4958TIP3    H136289   0.623   2.118  16.909 -1.0289  0.9801 -2.7011
 4958TIP3    H236290   0.665   2.248  16.974 -0.8661 -0.6441  0.6880
 4959TIP3   OH236291   1.738   1.250   4.392 -0.2276  0.1789 -0.0582
 4959TIP3    H136292   1.675   1.198   4.341  1.5060 -1.1428 -0.9704
 4959TIP3    H236293   1.702   1.338   4.392 -1.2762 -0.1930 -1.9118
 4960TIP3   OH236294   1.460   1.591  14.641 -0.2669  0.7445 -0.5628
 4960TIP3    H136295   1.417   1.676  14.644 -2.3108 -0.2235 -0.5634
 4960TIP3    H236296   1.441   1.551  14.726  2.9677  1.2704  0.5366
 4961TIP3   OH236297   2.981   5.954   0.156  0.0677  0.4322 -0.3934
 4961TIP3    H136298   3.052   5.891   0.139  0.6993  1.1110 -0.3345
 4961TIP3    H236299   3.026   6.029   0.194 -1.0342 -0.3062  2.6663
 4962TIP3   OH236300   1.658   1.725  13.132 -0.5253  0.5804  0.4985
 4962TIP3    H136301   1.650   1.665  13.206  0.5542 -0.8410 -0.4710
 4962TIP3    H236302   1.649   1.668  13.055 -0.9328  1.9047 -0.4625
 4963TIP3   OH236303   0.462   2.684   5.533 -0.3299 -0.9121  0.1594
 4963TIP3    H136304   0.396   2.643   5.477 -2.2758 -0.9499  2.3025
 4963TIP3    H236305   0.442   2.650   5.621  1.2069  0.7511  1.2026
 4964TIP3   OH236306   4.360   2.598  14.932  1.0490  0.1393 -0.1244
 4964TIP3    H136307   4.266   2.605  14.952  0.9566 -2.0072  0.4623
 4964TIP3    H236308   4.397   2.682  14.959 -0.4824  0.5035  0.9822
 4965TIP3   OH236309   0.784   0.752  13.561  0.0397 -0.4868 -0.5359
 4965TIP3    H136310   0.843   0.787  13.494  0.8237 -1.3892 -0.3375
 4965TIP3    H236311   0.834   0.682  13.603 -0.6680 -0.3495  0.5819
 4966TIP3   OH236312   2.787   1.134   3.011 -0.3871  0.1728  0.1328
 4966TIP3    H136313   2.792   1.176   3.097 -0.2081 -1.1204  0.7644
 4966TIP3    H236314   2.704   1.087   3.012 -0.2676 -0.0489 -0.3119
 4967TIP3   OH236315   3.789   5.872   3.126 -0.1522  0.3582 -0.9481
 4967TIP3    H136316   3.876   5.903   3.152 -0.0262 -0.3223 -0.5414
 4967TIP3    H236317   3.803   5.832   3.040 -0.5263  2.3969 -2.0348
 4968TIP3   OH236318   0.786   0.268  13.649 -0.0884 -0.1957 -0.1741
 4968TIP3    H136319   0.702   0.260  13.693 -0.1916 -0.2323 -0.3801
 4968TIP3    H236320   0.785   0.201  13.581  1.1865 -2.0589  1.5272
 4969TIP3   OH236321   0.853   0.140   0.178 -0.8200 -0.0054  0.3653
 4969TIP3    H136322   0.792   0.154   0.106 -0.6712 -0.5903  0.1173
 4969TIP3    H236323   0.824   0.058   0.219  0.9560 -1.4085 -1.0000
 4970TIP3   OH236324   6.592   3.080  11.498 -0.9250  0.3740  0.0332
 4970TIP3    H136325   6.548   3.020  11.558 -2.5220  0.0325 -1.4135
 4970TIP3    H236326   6.677   3.040  11.482 -0.1111  0.8491  2.5790
 4971TIP3   OH236327   0.233   0.505  12.748  0.5634  0.2696  0.1311
 4971TIP3    H136328   0.246   0.419  12.789  0.0289 -0.1935 -0.6549
 4971TIP3    H236329   0.288   0.503  12.670  0.4762  0.6023  0.0614
 4972TIP3   OH236330   5.846   2.795   1.600 -0.6554 -0.3546 -0.0245
 4972TIP3    H136331   5.941   2.806   1.598 -0.6774 -0.2431 -1.2327
 4972TIP3    H236332   5.832   2.704   1.574 -0.9080 -0.1240 -0.7033
 4973TIP3   OH236333   5.795   1.999   1.530  0.3189 -0.1984 -0.2234
 4973TIP3    H136334   5.755   1.951   1.602  0.0752 -1.7393 -1.3506
 4973TIP3    H236335   5.857   1.938   1.490 -1.4094 -0.3614 -2.9265
 4974TIP3   OH236336   0.521   3.149   1.205  0.0301  0.1726  0.3492
 4974TIP3    H136337   0.493   3.080   1.266  0.0109  0.4735  0.6823
 4974TIP3    H236338   0.444   3.205   1.195 -0.4763 -0.7265 -1.1662
 4975TIP3   OH236339   2.428   1.051   5.390  0.5219 -0.1413 -0.6404
 4975TIP3    H136340   2.513   1.033   5.429  0.2897 -0.3267 -0.2237
 4975TIP3    H236341   2.440   1.134   5.344  0.6602  0.3259  0.2280
 4976TIP3   OH236342   0.239   0.900   0.333  0.3018  0.0298  0.7828
 4976TIP3    H136343   0.185   0.821   0.329  1.3806 -0.7829  1.6823
 4976TIP3    H236344   0.307   0.887   0.267 -0.3818  0.9183 -0.1350
 4977TIP3   OH236345   1.623   5.502  13.276  0.5571 -0.0666  0.0631
 4977TIP3    H136346   1.616   5.407  13.277 -1.3776  0.0466  0.6898
 4977TIP3    H236347   1.536   5.534  13.301  0.7767  1.8857 -1.3420
 4978TIP3   OH236348   1.111   5.945   2.872 -0.1960 -0.0645 -0.0047
 4978TIP3    H136349   1.199   5.909   2.886 -0.2859  0.7866  3.9309
 4978TIP3    H236350   1.119   6.037   2.895 -2.0285  0.1461 -0.0704
 4979TIP3   OH236351   4.705   0.834  13.367  0.0586  0.0470 -0.1582
 4979TIP3    H136352   4.798   0.828  13.341 -0.3704 -2.1858 -1.4652
 4979TIP3    H236353   4.679   0.922  13.340  1.6372  0.5068 -0.3252
 4980TIP3   OH236354   1.759   5.632   4.462  0.3349  0.2302  0.1257
 4980TIP3    H136355   1.706   5.662   4.535  1.1048  2.8628 -0.2819
 4980TIP3    H236356   1.711   5.660   4.384  1.3492  0.9604 -0.2661
 4981TIP3   OH236357   1.271   0.482   4.595  0.1592  0.4701  0.1915
 4981TIP3    H136358   1.263   0.563   4.544 -2.4492  0.6589  0.7605
 4981TIP3    H236359   1.229   0.502   4.679 -2.2024 -1.9261 -0.2946
 4982TIP3   OH236360   2.410   4.117  15.262 -0.0883 -0.4449  0.4221
 4982TIP3    H136361   2.460   4.165  15.328  1.4388  0.3503 -1.2129
 4982TIP3    H236362   2.378   4.039  15.307  1.1024 -0.0584  2.0208
 4983TIP3   OH236363   3.079   4.056   1.670  0.2173 -0.0581 -0.5601
 4983TIP3    H136364   3.131   4.136   1.657  2.2513 -1.1068  0.6840
 4983TIP3    H236365   3.045   4.064   1.759  2.8302 -1.7548  0.7290
 4984TIP3   OH236366   1.005   1.020   2.781  0.1512  0.0404 -0.3649
 4984TIP3    H136367   0.952   0.940   2.775 -0.8022  0.5683  0.6536
 4984TIP3    H236368   1.047   1.015   2.867  1.7234 -0.3254 -1.1272
 4985TIP3   OH236369   2.496   3.318   2.290 -0.3063  0.2502  0.3065
 4985TIP3    H136370   2.479   3.254   2.359 -1.2786  0.9397  0.7512
 4985TIP3    H236371   2.410   3.332   2.250 -0.2695  1.7922  0.7079
 4986TIP3   OH236372   1.574   4.615  16.291 -0.1936  0.7416  0.4653
 4986TIP3    H136373   1.632   4.623  16.215  0.3131  1.5466  0.9184
 4986TIP3    H236374   1.548   4.705  16.310  0.7652  0.7167  2.0596
 4987TIP3   OH236375   4.601   1.452  16.336 -0.6527 -0.2834  0.5875
 4987TIP3    H136376   4.541   1.377  16.330  0.2979 -1.2411  2.3007
 4987TIP3    H236377   4.687   1.413  16.352  0.5101  1.0487 -1.8300
 4988TIP3   OH236378   3.085   6.554   3.990 -0.2311 -0.4728 -0.4781
 4988TIP3    H136379   3.115   6.645   3.988 -0.4757 -0.3992 -1.2519
 4988TIP3    H236380   3.095   6.527   4.082  1.2894 -0.1651 -0.5327
 4989TIP3   OH236381   3.017   1.255  16.125 -0.1448  0.2753  0.0729
 4989TIP3    H136382   2.925   1.247  16.152 -0.5864  3.1131 -0.3545
 4989TIP3    H236383   3.064   1.276  16.206  0.1852 -1.1580  0.2885
 4990TIP3   OH236384   5.622   6.746  13.795 -0.3019 -0.6934  0.1269
 4990TIP3    H136385   5.630   6.752  13.700 -0.3990 -1.7685  0.0330
 4990TIP3    H236386   5.622   6.836  13.825  0.2765 -0.3546 -0.8511
 4991TIP3   OH236387   0.423   5.921   3.016 -0.5955  0.3485  0.1163
 4991TIP3    H136388   0.480   5.944   3.089 -0.8190 -0.3530  0.5202
 4991TIP3    H236389   0.357   5.863   3.054 -2.0561  1.7443 -0.1717
 4992TIP3   OH236390   5.681   5.959  12.776  0.7529 -0.1360  0.3213
 4992TIP3    H136391   5.618   5.958  12.847  1.4834  0.9348  1.0221
 4992TIP3    H236392   5.656   6.035  12.723  1.1292 -0.0106  0.3165
 4993TIP3   OH236393   2.413   0.791   0.915 -1.2869  0.2694  0.1499
 4993TIP3    H136394   2.480   0.859   0.928  0.8343 -2.1275  3.0152
 4993TIP3    H236395   2.345   0.812   0.978 -2.1148  1.3238 -1.0504
 4994TIP3   OH236396   3.966   2.082   2.961  0.1975 -0.1740 -0.3155
 4994TIP3    H136397   3.916   2.001   2.958 -0.7790  0.4132 -0.6095
 4994TIP3    H236398   4.057   2.055   2.952 -0.0492 -1.2870  0.3618
 4995TIP3   OH236399   5.064   5.761   3.327 -0.5302  0.4229  0.3060
 4995TIP3    H136400   5.065   5.766   3.232 -1.2484  1.6597  0.3343
 4995TIP3    H236401   5.096   5.673   3.348  0.9299  0.6027 -1.0140
 4996TIP3   OH236402   0.258   1.451  15.932 -0.6781 -0.0237  0.1657
 4996TIP3    H136403   0.311   1.376  15.955  4.7675  2.4387 -2.4861
 4996TIP3    H236404   0.220   1.429  15.847  1.3444  0.2400 -0.8644
 4997TIP3   OH236405   1.908   1.614  11.221  0.3057 -0.0194 -0.4925
 4997TIP3    H136406   1.846   1.607  11.149 -0.7501 -0.3642  0.4281
 4997TIP3    H236407   1.964   1.688  11.198  0.1475 -0.2767 -1.7742
 4998TIP3   OH236408   0.174   3.938  10.698 -0.5522  0.8395 -0.1185
 4998TIP3    H136409   0.122   4.016  10.676  1.1871  3.0234  2.8439
 4998TIP3    H236410   0.265   3.968  10.694  0.1132 -0.5870  2.5088
 4999TIP3   OH236411   4.880   5.985  16.623  0.1181 -0.6187 -0.6619
 4999TIP3    H136412   4.871   5.933  16.543 -0.5763 -0.9383 -0.3870
 4999TIP3    H236413   4.922   5.925  16.685 -0.7816 -0.9002 -0.3115
 5000TIP3   OH236414   1.850   1.824  12.932 -0.0434 -0.0115 -0.3705
 5000TIP3    H136415   1.872   1.914  12.955 -1.0168  0.2899 -0.5810
 5000TIP3    H236416   1.899   1.771  12.995 -1.7897  0.7514  1.7686
 5001TIP3   OH236417   4.741   4.981   3.180  0.0732  0.9165  0.0560
 5001TIP3    H136418   4.731   5.017   3.268 -0.4209  1.0965 -0.0709
 5001TIP3    H236419   4.781   5.052   3.129 -0.0998  0.9868  0.0168
 5002TIP3   OH236420   6.569   3.704   2.973 -0.4102 -0.1612 -0.3277
 5002TIP3    H136421   6.494   3.740   2.925 -0.7810 -0.9791 -0.3761
 5002TIP3    H236422   6.543   3.706   3.065 -0.0754  0.5248 -0.2468
 5003TIP3   OH236423   5.866   0.902   0.207  0.2583 -0.1852 -1.0462
 5003TIP3    H136424   5.954   0.928   0.182  0.9004 -1.0173  0.2524
 5003TIP3    H236425   5.868   0.806   0.207  0.2871 -0.2730  1.9080
 5004TIP3   OH236426   4.008   3.434  12.274  0.2911  0.2506 -0.1959
 5004TIP3    H136427   3.965   3.490  12.338 -1.3940 -1.9590  0.7323
 5004TIP3    H236428   3.938   3.405  12.216  0.7298 -2.1588  0.3644
 5005TIP3   OH236429   6.176   4.750  13.598  0.1024  0.3811  0.2204
 5005TIP3    H136430   6.170   4.665  13.642 -4.3426  0.2345 -0.1818
 5005TIP3    H236431   6.222   4.731  13.516  2.8336 -0.6452  1.8466
 5006TIP3   OH236432   6.138   1.236   4.129  0.1289 -0.5517 -0.2987
 5006TIP3    H136433   6.079   1.169   4.095  1.1392 -1.3289 -0.6095
 5006TIP3    H236434   6.120   1.313   4.076 -1.0477 -0.5645  0.0526
 5007TIP3   OH236435   0.143   6.482   0.838 -0.9229  0.0044 -0.0156
 5007TIP3    H136436   0.072   6.466   0.776 -1.0042 -0.1182  0.1061
 5007TIP3    H236437   0.138   6.576   0.857  0.8983  0.6495 -2.3591
 5008TIP3   OH236438   0.954   5.220   1.664  0.2354  0.4172 -0.8047
 5008TIP3    H136439   1.014   5.266   1.605  0.0342  2.7742  0.7046
 5008TIP3    H236440   1.011   5.172   1.724  0.5356  0.5566 -0.9769
 5009TIP3   OH236441   1.302   1.508   1.663 -0.6488 -0.0483  0.1681
 5009TIP3    H136442   1.256   1.425   1.646  0.7728 -0.7125 -0.6564
 5009TIP3    H236443   1.393   1.481   1.681  0.0297  1.3774 -0.9556
 5010TIP3   OH236444   6.298   1.216  16.105  0.2095 -0.5514 -0.2609
 5010TIP3    H136445   6.339   1.162  16.173 -2.9390 -1.7832  0.8202
 5010TIP3    H236446   6.267   1.154  16.039 -1.7827  0.0442  0.0574
 5011TIP3   OH236447   3.872   4.884  17.055 -0.1714 -0.3180  0.6529
 5011TIP3    H136448   3.788   4.927  17.070 -0.0993 -0.4532  1.4861
 5011TIP3    H236449   3.869   4.856  16.963 -1.5326 -1.4500  1.0268
 5012TIP3   OH236450   5.399   4.692   0.660 -0.6655 -0.2185 -0.1824
 5012TIP3    H136451   5.406   4.607   0.703 -1.8561  0.7344  2.0690
 5012TIP3    H236452   5.388   4.671   0.568  0.2735 -2.4504  0.1334
 5013TIP3   OH236453   4.332   4.119  13.789  0.0160 -0.0277  0.3135
 5013TIP3    H136454   4.379   4.036  13.783 -0.4583 -0.3362  0.7553
 5013TIP3    H236455   4.351   4.151  13.877 -0.5837 -0.1529  0.4967
 5014TIP3   OH236456   4.878   5.667   1.876  0.2328  0.2058 -0.6239
 5014TIP3    H136457   4.837   5.632   1.955 -1.4060  2.4365 -0.3884
 5014TIP3    H236458   4.866   5.598   1.810  1.8558 -1.8066  1.0481
 5015TIP3   OH236459   4.345   0.357   4.769  0.2013 -0.6453  0.1254
 5015TIP3    H136460   4.352   0.262   4.756  2.3831 -0.3632 -1.3727
 5015TIP3    H236461   4.329   0.367   4.863 -2.2064 -2.5088  0.0084
 5016TIP3   OH236462   1.380   0.182   2.619  0.1213 -0.3727  0.3953
 5016TIP3    H136463   1.423   0.120   2.677  2.0576 -0.2568 -0.8291
 5016TIP3    H236464   1.323   0.128   2.564 -0.0678 -0.7444  0.9476
 5017TIP3   OH236465   6.541   3.965   0.390 -0.0865 -0.0217  0.5707
 5017TIP3    H136466   6.471   3.972   0.325  0.3619 -0.2628  0.0500
 5017TIP3    H236467   6.542   3.873   0.415 -0.7842  0.2265  1.5197
 5018TIP3   OH236468   2.948   0.875  16.464 -0.4952 -0.1324 -0.0910
 5018TIP3    H136469   2.873   0.823  16.493 -1.1884  1.0750  0.3144
 5018TIP3    H236470   2.924   0.903  16.375 -0.0340 -0.6452 -0.3871
 5019TIP3   OH236471   6.552   0.522  10.860  0.4078  0.8568 -0.4857
 5019TIP3    H136472   6.531   0.613  10.841 -0.8520  0.9072  0.9017
 5019TIP3    H236473   6.636   0.526  10.906  1.5497  1.0564 -2.4745
 5020TIP3   OH236474   4.014   4.700  12.390  0.4843  0.1884 -0.4133
 5020TIP3    H136475   3.950   4.765  12.419 -0.5193 -0.8009 -0.3773
 5020TIP3    H236476   4.073   4.750  12.332  0.0679  1.2461  0.0383
 5021TIP3   OH236477   5.606   6.067   2.328 -0.3727 -0.1047  0.0296
 5021TIP3    H136478   5.609   6.115   2.410  0.9023 -0.2817  0.1215
 5021TIP3    H236479   5.544   6.115   2.273 -0.0793  0.9176  0.5646
 5022TIP3   OH236480   1.531   4.300   5.619 -0.5512 -0.2455  0.5004
 5022TIP3    H136481   1.609   4.343   5.653 -0.3288 -1.0043  0.9607
 5022TIP3    H236482   1.475   4.287   5.696 -1.1591  0.3171  0.1745
 5023TIP3   OH236483   2.099   2.203   3.275  0.5667 -0.3924 -0.2630
 5023TIP3    H136484   2.012   2.202   3.314  0.6706 -0.1868 -0.0247
 5023TIP3    H236485   2.158   2.214   3.349  0.9362 -2.5480 -0.1753
 5024TIP3   OH236486   0.537   4.199   1.359  0.3047 -0.3728 -0.0482
 5024TIP3    H136487   0.531   4.177   1.266  1.7502 -0.9523 -0.0266
 5024TIP3    H236488   0.617   4.156   1.389 -0.1595 -0.2218  1.4793
 5025TIP3   OH236489   2.910   2.517   0.740  0.2777  0.7492 -0.0871
 5025TIP3    H136490   2.961   2.562   0.673 -2.3700  2.3348 -1.2061
 5025TIP3    H236491   2.933   2.561   0.822  1.5900  0.5602 -0.3354
 5026TIP3   OH236492   5.505   6.706  11.898  0.2721  0.2824 -0.1199
 5026TIP3    H136493   5.550   6.682  11.817 -0.2600 -0.2413 -0.2665
 5026TIP3    H236494   5.458   6.787  11.876  0.1233  0.1390 -0.3334
 5027TIP3   OH236495   5.399   3.757   5.859 -0.1692  0.0641  0.1635
 5027TIP3    H136496   5.340   3.683   5.841  0.5391 -0.7959  1.2362
 5027TIP3    H236497   5.473   3.717   5.905  3.4231  0.2335 -4.6467
 5028TIP3   OH236498   3.609   3.689  10.354 -0.2432 -0.3187 -0.0827
 5028TIP3    H136499   3.649   3.760  10.404  0.3579 -1.4179  1.0625
 5028TIP3    H236500   3.532   3.728  10.314 -0.1384  0.8812  0.8251
 5029TIP3   OH236501   1.966   0.829  12.633 -0.0432  0.1259  0.0938
 5029TIP3    H136502   1.968   0.734  12.645  0.1437  0.3729  2.5241
 5029TIP3    H236503   1.873   0.848  12.622 -0.2238 -0.2434  0.8562
 5030TIP3   OH236504   1.304   2.750   5.367 -0.4355  0.2099 -0.4921
 5030TIP3    H136505   1.353   2.727   5.446  0.9429 -1.3464 -1.7321
 5030TIP3    H236506   1.369   2.785   5.307 -1.6899  2.7389 -0.5216
 5031TIP3   OH236507   0.484   5.440  14.291  0.4411  0.8102  0.3325
 5031TIP3    H136508   0.442   5.452  14.206 -0.1496  0.2723  0.5422
 5031TIP3    H236509   0.550   5.373  14.277 -1.2842 -1.0883  0.8062
 5032TIP3   OH236510   0.521   1.727  14.464 -0.0254 -0.6908 -0.0030
 5032TIP3    H136511   0.480   1.812  14.446  0.2192 -0.5744 -0.0191
 5032TIP3    H236512   0.594   1.748  14.522 -0.0438 -0.9082  0.1003
 5033TIP3   OH236513   2.819   6.622   3.572 -0.8081 -0.4390 -0.4019
 5033TIP3    H136514   2.747   6.685   3.580 -1.0084 -0.7053 -0.0545
 5033TIP3    H236515   2.898   6.675   3.577 -0.9741 -0.2180 -0.0293
 5034TIP3   OH236516   2.509   3.117  17.091 -0.1376 -0.2072 -0.3286
 5034TIP3    H136517   2.457   3.118  17.010 -0.1446  0.8395 -0.3216
 5034TIP3    H236518   2.549   3.030  17.092 -1.3317 -0.7902 -0.6888
 5035TIP3   OH236519   4.854   1.939   0.481 -0.2714 -0.2678 -0.1400
 5035TIP3    H136520   4.933   1.990   0.502 -0.6105 -0.5291  2.0073
 5035TIP3    H236521   4.792   2.003   0.447 -0.2024  0.5498  1.1914
 5036TIP3   OH236522   2.872   0.252  13.473  0.1735 -0.5250  0.1093
 5036TIP3    H136523   2.891   0.295  13.556  0.9723 -2.6734  1.1060
 5036TIP3    H236524   2.950   0.268  13.419 -0.0969  0.3706 -0.0211
 5037TIP3   OH236525   4.493   3.702  15.869  0.0360  0.0471  0.6400
 5037TIP3    H136526   4.579   3.734  15.842  0.1302  0.7924  1.7922
 5037TIP3    H236527   4.431   3.751  15.816  0.3066 -1.0194 -0.7397
 5038TIP3   OH236528   0.899   2.320  15.265  0.0665 -0.6274 -0.4023
 5038TIP3    H136529   0.883   2.344  15.174 -1.4854  1.5985  0.3566
 5038TIP3    H236530   0.814   2.290  15.297 -0.9955  3.7095  1.6105
 5039TIP3   OH236531   2.031   1.465   0.463  0.2861  0.4241  0.4856
 5039TIP3    H136532   2.001   1.519   0.535  2.0653 -0.3780  1.9029
 5039TIP3    H236533   2.030   1.375   0.497 -1.7051 -0.4017 -1.5027
 5040TIP3   OH236534   3.950   0.467   1.356 -0.1944  0.0361 -0.1782
 5040TIP3    H136535   4.021   0.441   1.414 -0.6941 -0.1041  0.3885
 5040TIP3    H236536   3.959   0.562   1.348  1.1769 -0.1778 -1.6380
 5041TIP3   OH236537   6.317   5.796  11.964 -0.3797  0.9405 -0.4122
 5041TIP3    H136538   6.330   5.885  11.931 -0.4113  0.7428 -0.9804
 5041TIP3    H236539   6.226   5.794  11.993 -0.9444  0.5863 -2.0873
 5042TIP3   OH236540   2.329   1.957   5.623 -0.6613 -0.5816  0.5042
 5042TIP3    H136541   2.316   1.984   5.532 -1.2619 -1.9400  0.1514
 5042TIP3    H236542   2.240   1.949   5.658 -0.5707 -2.7214  0.3599
 5043TIP3   OH236543   6.142   6.119   2.142  0.1192  0.0381  0.4714
 5043TIP3    H136544   6.173   6.209   2.133  2.0147 -0.6364 -0.2955
 5043TIP3    H236545   6.059   6.116   2.094  0.7084  1.0669 -0.6552
 5044TIP3   OH236546   6.308   3.523  12.183 -0.0407  0.8887  0.0042
 5044TIP3    H136547   6.333   3.472  12.260 -0.3189 -1.6594 -1.4638
 5044TIP3    H236548   6.382   3.511  12.122 -0.9384  0.6656 -1.0746
 5045TIP3   OH236549   3.751   0.792  14.253  0.5394  0.0173 -0.2873
 5045TIP3    H136550   3.681   0.803  14.190 -0.1409 -0.1142  0.4298
 5045TIP3    H236551   3.707   0.762  14.333  1.3050  0.7398  0.4293
 5046TIP3   OH236552   5.547   6.026   4.347  0.1487 -0.5114  0.3197
 5046TIP3    H136553   5.626   6.034   4.401 -0.3329 -0.1892  0.9986
 5046TIP3    H236554   5.576   5.984   4.267  0.7249 -1.8172  1.1847
 5047TIP3   OH236555   1.876   0.849  11.866  0.0864  0.6332 -0.1564
 5047TIP3    H136556   1.814   0.916  11.837  0.1143  0.8080  0.1864
 5047TIP3    H236557   1.863   0.777  11.805 -0.5972  0.5888  0.0333
 5048TIP3   OH236558   5.236   4.521   5.521 -0.3635  0.0977 -0.1763
 5048TIP3    H136559   5.331   4.518   5.536 -0.3436  1.7313  0.2079
 5048TIP3    H236560   5.197   4.502   5.606 -0.3288  1.5822  0.2019
 5049TIP3   OH236561   5.841   3.933   1.207 -0.4133 -0.4903 -1.1326
 5049TIP3    H136562   5.914   3.948   1.267 -2.3777  1.9167  0.8902
 5049TIP3    H236563   5.797   3.855   1.242 -1.8587  1.1948  1.1001
 5050TIP3   OH236564   6.584   2.076  17.174 -0.5973 -0.3852  0.4614
 5050TIP3    H136565   6.544   2.162  17.189  0.3438  0.2398 -0.4055
 5050TIP3    H236566   6.511   2.018  17.156 -1.2033  0.4364  0.1984
 5051TIP3   OH236567   0.516   4.575  12.216  0.4787 -0.0858  0.4268
 5051TIP3    H136568   0.456   4.648  12.232  0.2865  0.1046 -1.0027
 5051TIP3    H236569   0.468   4.497  12.242 -0.8272 -0.0350 -1.5831
 5052TIP3   OH236570   0.674   4.029  16.684 -0.6724 -0.0897 -0.2258
 5052TIP3    H136571   0.584   4.062  16.675 -1.1018 -1.2716 -0.4798
 5052TIP3    H236572   0.697   3.998  16.597 -0.8860 -1.8492  0.2926
 5053TIP3   OH236573   4.371   1.189  17.140  0.1217  0.4486  0.6912
 5053TIP3    H136574   4.321   1.234  17.071 -0.3363  0.6058  1.1192
 5053TIP3    H236575   4.457   1.174  17.101 -0.1159  0.5787  0.0996
 5054TIP3   OH236576   2.422   1.909  15.946  0.0989  0.6962 -0.1328
 5054TIP3    H136577   2.352   1.928  16.009  0.9390  0.4977  0.8730
 5054TIP3    H236578   2.375   1.877  15.869 -0.8867 -0.3801  0.8591
 5055TIP3   OH236579   2.094   4.048   6.689 -0.2092 -0.0674  0.1927
 5055TIP3    H136580   2.176   4.003   6.672 -0.1192  0.2807 -0.3199
 5055TIP3    H236581   2.037   3.981   6.727 -0.0082 -0.5596 -0.3666
 5056TIP3   OH236582   5.627   4.606   1.083  0.0806  0.1465  0.4713
 5056TIP3    H136583   5.537   4.593   1.112  0.2294 -1.8159  0.2363
 5056TIP3    H236584   5.632   4.559   0.999  1.8778 -1.8880  1.6081
 5057TIP3   OH236585   0.285   5.344   2.173  0.0591 -0.6909  0.0098
 5057TIP3    H136586   0.250   5.349   2.085 -0.1716  0.0783  0.1330
 5057TIP3    H236587   0.228   5.283   2.219 -0.6934 -0.0002  0.0117
 5058TIP3   OH236588   5.248   3.063   0.039 -0.3373 -0.2575  0.3652
 5058TIP3    H136589   5.159   3.070   0.072 -0.1367  0.1813  0.8266
 5058TIP3    H236590   5.300   3.120   0.096 -0.2131  1.6761 -1.5856
 5059TIP3   OH236591   6.044   6.308   3.946  0.2178 -0.0645  0.0355
 5059TIP3    H136592   5.962   6.258   3.946  0.2855 -0.1888 -0.7569
 5059TIP3    H236593   6.016   6.399   3.959 -0.1500  0.0207 -1.1868
 5060TIP3   OH236594   4.771   4.364   6.222  0.2883  0.5781 -0.1989
 5060TIP3    H136595   4.772   4.305   6.147 -1.4379 -0.0082  0.1896
 5060TIP3    H236596   4.757   4.451   6.184  1.1491  0.5261 -0.6562
 5061TIP3   OH236597   3.649   5.000   4.728 -0.2958  0.3766 -0.1546
 5061TIP3    H136598   3.645   5.081   4.780 -0.3484 -0.1632  0.7011
 5061TIP3    H236599   3.564   4.994   4.687 -0.8534 -0.0300  1.0150
 5062TIP3   OH236600   3.551   2.364   3.950  0.2677 -0.2311  0.0338
 5062TIP3    H136601   3.581   2.350   3.860 -2.9867  2.6877 -1.7779
 5062TIP3    H236602   3.466   2.407   3.940  0.0283  0.8430  4.5623
 5063TIP3   OH236603   4.517   5.372  13.528  0.5280  0.2496  0.4240
 5063TIP3    H136604   4.602   5.401  13.495  0.2014 -0.4309 -1.0907
 5063TIP3    H236605   4.518   5.277  13.518 -0.5451  0.2678  0.0551
 5064TIP3   OH236606   3.931   6.426  17.022 -0.2510  0.1353 -0.3357
 5064TIP3    H136607   3.862   6.445  16.957 -1.3018  2.2469  1.2805
 5064TIP3    H236608   4.003   6.484  16.998  0.7909 -1.5445 -1.5729
 5065TIP3   OH236609   1.717   0.396   1.949 -0.2871  0.0385  0.2014
 5065TIP3    H136610   1.778   0.334   1.988 -0.9963 -1.5314 -1.0632
 5065TIP3    H236611   1.751   0.413   1.861 -0.7109  0.5599  0.1268
 5066TIP3   OH236612   6.135   6.341   2.461 -0.0447  0.4222  0.2362
 5066TIP3    H136613   6.144   6.365   2.553  0.4416 -3.6657  1.4329
 5066TIP3    H236614   6.061   6.282   2.459 -1.1282  1.7052 -2.4081
 5067TIP3   OH236615   5.188   3.220   4.731 -0.6269  0.3039  0.3877
 5067TIP3    H136616   5.140   3.164   4.670 -1.3143  0.7120  0.5338
 5067TIP3    H236617   5.265   3.248   4.683 -1.4980  1.1670 -0.5498
 5068TIP3   OH236618   3.468   4.896  13.613 -0.0919 -0.0284 -0.1961
 5068TIP3    H136619   3.399   4.874  13.551  0.0525 -1.7251  0.1990
 5068TIP3    H236620   3.535   4.829  13.600  0.4555  0.2516  0.9989
 5069TIP3   OH236621   1.164   1.067   0.272  0.8319 -0.0174 -0.0217
 5069TIP3    H136622   1.194   1.033   0.356  0.3592  0.1777  0.2300
 5069TIP3    H236623   1.205   1.153   0.265 -0.7765  0.8799  0.9962
 5070TIP3   OH236624   1.996   4.924  15.449  0.3072 -0.4651  0.3225
 5070TIP3    H136625   2.074   4.975  15.426 -0.0638 -0.4773 -1.0179
 5070TIP3    H236626   1.974   4.876  15.370 -2.3298  1.1684 -0.0701
 5071TIP3   OH236627   0.552   1.168   5.734 -0.0172  1.0005  0.0170
 5071TIP3    H136628   0.579   1.081   5.763 -1.4853  1.1083  1.8936
 5071TIP3    H236629   0.634   1.216   5.722  0.7998  0.7401  3.5554
 5072TIP3   OH236630   3.781   1.656  13.947  0.0586  0.4737 -0.2424
 5072TIP3    H136631   3.762   1.746  13.921 -3.4474  0.3303  1.2420
 5072TIP3    H236632   3.698   1.609  13.935  0.7387 -1.6589  2.3431
 5073TIP3   OH236633   6.404   1.796  15.848  0.3412 -0.3359 -0.1514
 5073TIP3    H136634   6.483   1.743  15.855 -1.0030 -2.2751  2.3705
 5073TIP3    H236635   6.347   1.747  15.789 -0.5432 -1.3161  1.4389
 5074TIP3   OH236636   5.949   5.119  11.702 -0.3975  0.2907  0.8641
 5074TIP3    H136637   6.019   5.122  11.768  0.5563 -0.4195 -0.0890
 5074TIP3    H236638   5.940   5.210  11.672  0.8815  0.2174  0.2222
 5075TIP3   OH236639   2.501   4.791   0.544  0.4389 -0.2370 -0.5806
 5075TIP3    H136640   2.457   4.836   0.616 -0.6802 -0.1564 -1.2828
 5075TIP3    H236641   2.439   4.722   0.518  0.6261 -0.0087 -1.7118
 5076TIP3   OH236642   1.807   0.670   0.575 -0.8048  0.5207 -0.5747
 5076TIP3    H136643   1.865   0.626   0.513  0.4543  0.6155  0.4871
 5076TIP3    H236644   1.735   0.608   0.589  1.8879 -2.3158  2.4001
 5077TIP3   OH236645   3.909   5.141  14.247  0.1271 -0.2124 -0.0224
 5077TIP3    H136646   3.822   5.149  14.286  0.1635 -0.0739  0.0315
 5077TIP3    H236647   3.921   5.223  14.198  0.6331  0.2222  0.7978
 5078TIP3   OH236648   1.291   5.596  12.208  0.6212  0.0889 -0.1869
 5078TIP3    H136649   1.299   5.549  12.125 -0.2490 -1.7912  0.7238
 5078TIP3    H236650   1.380   5.617  12.233  1.1137 -1.5713 -0.4113
 5079TIP3   OH236651   1.798   0.287   0.803  0.0948 -0.3401 -0.0039
 5079TIP3    H136652   1.758   0.258   0.885 -0.0745  1.7115  0.7030
 5079TIP3    H236653   1.835   0.207   0.765  1.2593 -1.2054  2.6548
 5080TIP3   OH236654   5.424   4.277  15.991 -0.0659  0.0490 -0.2379
 5080TIP3    H136655   5.333   4.248  15.994 -0.2706  0.7076 -0.0187
 5080TIP3    H236656   5.466   4.217  15.929 -0.6883 -0.1338 -0.4915
 5081TIP3   OH236657   6.001   5.500   6.469  0.2557  0.2412 -0.1580
 5081TIP3    H136658   6.007   5.524   6.377 -2.1352 -0.8735 -0.6851
 5081TIP3    H236659   5.910   5.518   6.493  0.0548 -2.0816  1.1729
 5082TIP3   OH236660   0.967   6.415  16.132 -0.6407  0.1396  0.2927
 5082TIP3    H136661   0.935   6.332  16.095 -0.6733  0.2907 -0.0198
 5082TIP3    H236662   0.949   6.480  16.064 -2.8039  0.8568  1.4594
 5083TIP3   OH236663   1.478   3.573   1.373  0.3134  0.4248  0.1737
 5083TIP3    H136664   1.532   3.632   1.320  1.3541  0.7803  1.5884
 5083TIP3    H236665   1.392   3.576   1.331  0.7269  1.7843 -0.6523
 5084TIP3   OH236666   1.414   5.589  11.957 -0.2916  0.0890 -0.3991
 5084TIP3    H136667   1.493   5.612  11.909  0.3920 -1.7427 -0.2179
 5084TIP3    H236668   1.343   5.605  11.895  0.4291 -0.5936 -1.4238
 5085TIP3   OH236669   0.038   2.129  13.904 -0.3384 -0.2029 -0.1167
 5085TIP3    H136670   0.114   2.076  13.880 -0.3109 -0.5168  0.6400
 5085TIP3    H236671   0.056   2.215  13.864  1.2678  0.2728  1.4890
 5086TIP3   OH236672   3.572   5.364  15.428  0.1571  0.2578  0.2551
 5086TIP3    H136673   3.642   5.396  15.485  0.9129  0.4688 -0.7408
 5086TIP3    H236674   3.503   5.336  15.487  1.8250 -1.7851  1.4114
 5087TIP3   OH236675   2.669   2.320   4.060 -0.3435  0.1050 -0.3399
 5087TIP3    H136676   2.677   2.270   3.979 -1.4053  0.6769 -0.8180
 5087TIP3    H236677   2.716   2.402   4.042 -1.8504  0.8770 -0.9562
 5088TIP3   OH236678   3.766   2.631  12.293  0.0523  0.0647  0.5060
 5088TIP3    H136679   3.789   2.700  12.356  0.5653  0.5195 -0.1647
 5088TIP3    H236680   3.764   2.551  12.345  0.6749  0.4041  1.0697
 5089TIP3   OH236681   3.163   0.940  13.045  0.0166 -0.1995  0.0341
 5089TIP3    H136682   3.096   0.913  12.982 -1.3741 -0.4568  1.5542
 5089TIP3    H236683   3.226   0.989  12.993 -0.9878 -0.5450 -1.5869
 5090TIP3   OH236684   6.354   0.174  15.901  0.5118  0.5108 -0.4748
 5090TIP3    H136685   6.407   0.122  15.841  0.8195 -0.8873  0.9410
 5090TIP3    H236686   6.272   0.127  15.909  0.8795  0.0382  1.0099
 5091TIP3   OH236687   4.401   3.776  13.153  0.1913 -0.2687  0.1534
 5091TIP3    H136688   4.451   3.699  13.127 -0.5971 -0.9980  0.7349
 5091TIP3    H236689   4.441   3.804  13.235  0.7214  0.1864 -0.2506
 5092TIP3   OH236690   3.131   5.641  16.923  0.6449 -0.3689 -0.3415
 5092TIP3    H136691   3.173   5.609  17.003 -2.2609  0.7131  1.7824
 5092TIP3    H236692   3.092   5.725  16.947 -2.0800 -0.9319 -2.2522
 5093TIP3   OH236693   0.155   6.750  17.290  0.2215  0.4369  0.3121
 5093TIP3    H136694   0.219   6.680  17.304  2.3352  1.8542 -1.6687
 5093TIP3    H236695   0.176   6.816  17.356 -0.3221  0.1948  0.7377
 5094TIP3   OH236696   4.833   6.108  10.836 -0.0141  0.3238  0.0211
 5094TIP3    H136697   4.746   6.089  10.800 -0.1359  1.2552 -0.2004
 5094TIP3    H236698   4.857   6.029  10.884 -1.7624  0.7118  1.6089
 5095TIP3   OH236699   2.944   1.438  14.058 -0.3123  0.0601 -0.3115
 5095TIP3    H136700   2.982   1.358  14.021 -1.8474 -1.1219  0.5776
 5095TIP3    H236701   3.020   1.487  14.091  0.5466 -1.8607  0.7159
 5096TIP3   OH236702   2.858   5.059   0.968  0.3320  0.9914  0.0721
 5096TIP3    H136703   2.847   5.130   1.031  1.1839  0.8885  0.3523
 5096TIP3    H236704   2.950   5.034   0.975  0.4589  1.0034 -1.2432
 5097TIP3   OH236705   4.034   2.910  11.968 -0.2749 -0.7403 -0.1685
 5097TIP3    H136706   3.986   2.993  11.960 -1.4188 -1.4929 -1.8695
 5097TIP3    H236707   4.107   2.930  12.026 -1.0320  1.2139  0.2109
 5098TIP3   OH236708   2.449   0.397  12.395  0.4466 -0.0711  0.5569
 5098TIP3    H136709   2.395   0.440  12.462  1.1026  0.3589  0.8239
 5098TIP3    H236710   2.518   0.353  12.445  1.7333  1.3609  0.1188
 5099TIP3   OH236711   5.171   4.067   3.255 -0.1565 -0.7726  0.2099
 5099TIP3    H136712   5.118   4.009   3.310 -0.3201 -0.1526  0.7201
 5099TIP3    H236713   5.109   4.133   3.225 -0.0965 -1.1697 -0.8379
 5100TIP3   OH236714   5.137   3.196  10.675  0.2558  0.3330 -0.1792
 5100TIP3    H136715   5.086   3.165  10.750 -2.1743 -0.1669 -1.9103
 5100TIP3    H236716   5.079   3.258  10.630  3.1309  3.8323  0.4462
 5101TIP3   OH236717   3.355   4.362  13.257 -0.0895 -0.4104  0.2507
 5101TIP3    H136718   3.389   4.438  13.304 -1.0678 -0.6431  1.3768
 5101TIP3    H236719   3.262   4.381  13.243 -0.5370 -1.6877  1.2192
 5102TIP3   OH236720   2.275   1.596  15.234 -0.2509 -0.2857 -0.5342
 5102TIP3    H136721   2.360   1.636  15.214 -0.5145  0.2627 -0.5759
 5102TIP3    H236722   2.216   1.670  15.247  0.0229 -0.5381  3.0296
 5103TIP3   OH236723   4.665   1.499  10.498 -0.1029 -0.6633  0.2067
 5103TIP3    H136724   4.626   1.552  10.567 -0.6025 -0.8197  0.0481
 5103TIP3    H236725   4.628   1.534  10.417  1.7497  0.6362 -0.1501
 5104TIP3   OH236726   3.330   0.390   3.953 -0.2331  0.7943  0.2768
 5104TIP3    H136727   3.305   0.335   4.027 -0.5704 -1.1708 -1.2151
 5104TIP3    H236728   3.263   0.374   3.887  0.1696  2.3203 -0.5591
 5105TIP3   OH236729   5.713   0.527  14.827 -0.0899 -0.1582 -0.2161
 5105TIP3    H136730   5.759   0.578  14.893 -0.4785  0.6971 -0.5820
 5105TIP3    H236731   5.626   0.567  14.822  0.2392  0.4532 -1.9212
 5106TIP3   OH236732   2.617   5.792  16.647 -0.5156 -0.2404 -0.1626
 5106TIP3    H136733   2.687   5.857  16.651 -1.3448  0.6143  1.0264
 5106TIP3    H236734   2.618   5.749  16.732 -2.4216  0.8793  0.4898
 5107TIP3   OH236735   1.295   1.864   6.311 -0.6062 -0.2359 -0.1474
 5107TIP3    H136736   1.225   1.852   6.374 -2.3279 -0.5431 -2.0243
 5107TIP3    H236737   1.260   1.927   6.247  0.9081 -0.2148 -1.0123
 5108TIP3   OH236738   0.851   1.023   4.877 -0.1007  0.3021 -0.5238
 5108TIP3    H136739   0.808   0.997   4.796 -0.2161  0.9987 -0.6915
 5108TIP3    H236740   0.826   0.955   4.940  1.1923 -1.0642 -1.4185
 5109TIP3   OH236741   3.369   4.251   4.483  0.5389  0.0522 -0.4061
 5109TIP3    H136742   3.321   4.234   4.564  0.1959  0.0318 -0.6097
 5109TIP3    H236743   3.429   4.177   4.474  1.3027  0.5649  0.3552
 5110TIP3   OH236744   3.861   3.531   1.486 -0.0126  0.2740  0.0533
 5110TIP3    H136745   3.937   3.525   1.544  0.3105  0.8067 -0.3020
 5110TIP3    H236746   3.893   3.581   1.411 -0.4236 -0.3967 -0.5829
 5111TIP3   OH236747   2.908   5.005   3.664  0.4646  0.4920 -0.0918
 5111TIP3    H136748   2.930   5.076   3.603  1.3269 -2.3168 -3.3078
 5111TIP3    H236749   2.989   4.991   3.713  0.8925  0.4563 -0.8027
 5112TIP3   OH236750   0.797   3.437   6.432  0.1671  0.1918 -0.4506
 5112TIP3    H136751   0.885   3.469   6.451  0.3922 -0.1853 -0.8350
 5112TIP3    H236752   0.786   3.361   6.489  0.0658  0.2856 -0.3474
 5113TIP3   OH236753   0.953   4.779  16.323  0.5264 -0.0974 -0.2710
 5113TIP3    H136754   1.033   4.730  16.305  0.3812 -0.0863 -0.9904
 5113TIP3    H236755   0.883   4.727  16.284  0.3844  0.7356 -1.1730
 5114TIP3   OH236756   3.525   2.029  13.129  0.4760 -0.0895 -0.0324
 5114TIP3    H136757   3.440   2.046  13.170  0.3582 -0.4960 -0.1025
 5114TIP3    H236758   3.531   2.094  13.059 -0.1494 -0.5871 -0.5586
 5115TIP3   OH236759   3.807   5.391   4.376 -0.1555  0.1876 -0.0669
 5115TIP3    H136760   3.725   5.345   4.392  0.2639 -0.2386  0.9615
 5115TIP3    H236761   3.833   5.363   4.288 -0.6654 -0.3724 -0.0455
 5116TIP3   OH236762   2.098   1.406  12.723 -0.5333  0.3447 -0.4495
 5116TIP3    H136763   2.028   1.413  12.788 -1.8829 -0.7383 -1.7198
 5116TIP3    H236764   2.136   1.319  12.738 -1.0029 -0.0037 -1.2271
 5117TIP3   OH236765   1.766   6.329   3.098 -0.1286 -0.1966 -0.3603
 5117TIP3    H136766   1.807   6.243   3.085  0.7735  0.2431 -0.5267
 5117TIP3    H236767   1.811   6.366   3.174  0.2961  0.5865 -0.9767
 5118TIP3   OH236768   3.559   3.087   1.594 -0.3949  0.1241  0.6444
 5118TIP3    H136769   3.624   3.149   1.627 -0.1914  0.3054 -0.0727
 5118TIP3    H236770   3.554   3.019   1.661 -0.4466  0.7855  1.3369
 5119TIP3   OH236771   0.848   6.679  16.091 -0.2271 -0.5292  0.6562
 5119TIP3    H136772   0.753   6.670  16.101 -0.3367  0.5675  0.7723
 5119TIP3    H236773   0.882   6.673  16.181 -0.4070  1.0730  0.8716
 5120TIP3   OH236774   0.337   2.711  12.046  0.5246 -0.5117  0.0329
 5120TIP3    H136775   0.290   2.783  12.087  1.5722 -0.2448  0.7970
 5120TIP3    H236776   0.311   2.634  12.097  1.7071 -0.2039  1.1667
 5121TIP3   OH236777   2.770   1.273  14.592  0.2413  0.3107  0.0524
 5121TIP3    H136778   2.793   1.331  14.520 -3.4234  0.2802 -1.3825
 5121TIP3    H236779   2.795   1.186  14.562 -0.3006  0.4243 -0.7618
 5122TIP3   OH236780   4.703   5.865   6.013  0.2118  0.6939  0.1837
 5122TIP3    H136781   4.740   5.887   6.099 -0.6157  0.2310  0.6709
 5122TIP3    H236782   4.699   5.770   6.013 -0.4396  0.7168 -0.0807
 5123TIP3   OH236783   5.995   2.268  11.286 -0.2396  0.0405  0.3224
 5123TIP3    H136784   5.966   2.240  11.199  1.3421 -1.8554  0.3616
 5123TIP3    H236785   6.042   2.350  11.270  1.3519 -1.0421 -0.8740
 5124TIP3   OH236786   0.669   3.358   0.824 -0.6093 -0.1152  0.2943
 5124TIP3    H136787   0.753   3.404   0.833 -0.9181  0.2588  1.4809
 5124TIP3    H236788   0.676   3.311   0.741  0.3266  0.8362 -0.1955
 5125TIP3   OH236789   0.416   5.639  16.172  0.3349 -0.0905 -0.8683
 5125TIP3    H136790   0.418   5.551  16.134  1.9885 -0.7410  0.5903
 5125TIP3    H236791   0.333   5.643  16.219  1.9589 -2.6130  2.6904
 5126TIP3   OH236792   5.424   3.263   4.616  0.0997 -0.2527  0.1218
 5126TIP3    H136793   5.442   3.343   4.567  2.4045 -1.7005 -1.5913
 5126TIP3    H236794   5.450   3.192   4.557 -0.0381 -2.2192  2.2801
 5127TIP3   OH236795   1.196   2.611  16.843 -0.2359  0.6356 -0.0474
 5127TIP3    H136796   1.285   2.623  16.876  0.3815  0.6213 -1.6459
 5127TIP3    H236797   1.148   2.573  16.917  0.5982  2.3569  1.4308
 5128TIP3   OH236798   2.553   4.037   4.755  0.8824 -0.1471  0.2415
 5128TIP3    H136799   2.632   4.090   4.765  0.1601  0.9457  0.2752
 5128TIP3    H236800   2.530   4.044   4.663  0.6587 -0.2084  0.2910
 5129TIP3   OH236801   3.618   2.558  15.855  0.0608 -0.0512  0.5417
 5129TIP3    H136802   3.647   2.648  15.836  0.0284 -0.4098 -1.4914
 5129TIP3    H236803   3.699   2.507  15.857 -0.0361 -0.2284  0.0575
 5130TIP3   OH236804   6.403   5.634  16.331 -0.1873  0.3445  0.8335
 5130TIP3    H136805   6.474   5.692  16.359 -0.9588  1.4110  0.6475
 5130TIP3    H236806   6.440   5.583  16.259  0.5392  0.5235  1.0701
 5131TIP3   OH236807   0.730   0.955   2.990 -0.2982  0.2567  0.7324
 5131TIP3    H136808   0.693   0.967   2.903 -1.6312  1.4671  1.4261
 5131TIP3    H236809   0.757   1.042   3.017  2.7556 -0.5090  0.4626
 5132TIP3   OH236810   5.616   3.437   4.741 -0.2594 -0.1258  0.3448
 5132TIP3    H136811   5.583   3.526   4.754  0.0626  0.1974 -0.9632
 5132TIP3    H236812   5.537   3.383   4.735 -0.5169  0.3471 -0.7291
 5133TIP3   OH236813   3.252   3.861   3.538 -0.1096 -0.6553 -0.1890
 5133TIP3    H136814   3.254   3.779   3.587 -0.1166 -0.4924  0.0851
 5133TIP3    H236815   3.232   3.928   3.604  0.8467 -0.3068 -0.2282
 5134TIP3   OH236816   6.668   6.605   4.515 -0.1772 -0.2237  0.2111
 5134TIP3    H136817   6.653   6.513   4.494  1.7791 -0.7172  0.7969
 5134TIP3    H236818   6.602   6.625   4.583 -1.3467 -0.8377 -0.7124
 5135TIP3   OH236819   1.742   2.559   1.247 -0.4927 -0.0875  0.2264
 5135TIP3    H136820   1.686   2.510   1.308 -1.0497 -0.7535 -0.7877
 5135TIP3    H236821   1.814   2.499   1.227 -0.5997 -0.0881 -0.1738
 5136TIP3   OH236822   0.306   3.096  12.227  0.4355  0.4813 -0.4545
 5136TIP3    H136823   0.398   3.120  12.217  0.8846 -1.2644 -0.8811
 5136TIP3    H236824   0.287   3.040  12.151  0.2680 -2.6375  1.6558
 5137TIP3   OH236825   4.322   6.346  11.532 -0.0950  0.2054  0.1052
 5137TIP3    H136826   4.400   6.291  11.529 -0.3054 -0.0551 -0.7835
 5137TIP3    H236827   4.354   6.434  11.550  0.3936  0.0886 -0.1941
 5138TIP3   OH236828   2.560   1.090   6.201  0.4108  0.5536 -0.0431
 5138TIP3    H136829   2.484   1.111   6.147  0.1069 -0.8052 -0.1851
 5138TIP3    H236830   2.548   0.998   6.225  1.4621  0.6201  0.8375
 5139TIP3   OH236831   5.781   5.603  12.049 -0.3113  0.1544  0.2291
 5139TIP3    H136832   5.871   5.569  12.059 -0.9351 -2.4173 -1.7124
 5139TIP3    H236833   5.777   5.633  11.958 -2.0113 -2.1696 -0.5812
 5140TIP3   OH236834   0.153   1.358  12.060 -0.0892  0.4374  0.2401
 5140TIP3    H136835   0.129   1.349  11.967  0.6122 -0.7215  0.1506
 5140TIP3    H236836   0.070   1.372  12.105 -0.5674 -0.1424 -0.4383
 5141TIP3   OH236837   1.450   2.354  11.288  0.0416  0.2130 -0.5847
 5141TIP3    H136838   1.379   2.382  11.347 -1.2663 -1.4687 -1.2718
 5141TIP3    H236839   1.454   2.259  11.299  1.9050  0.2310 -0.9226
 5142TIP3   OH236840   2.083   0.568  10.751 -0.2650  0.0488 -0.2969
 5142TIP3    H136841   2.026   0.509  10.703 -1.4591 -0.5808  1.7840
 5142TIP3    H236842   2.029   0.645  10.769  0.3356  0.5087 -0.4348
 5143TIP3   OH236843   0.774   2.687   3.304 -0.2881 -0.2870 -0.1298
 5143TIP3    H136844   0.723   2.689   3.222 -0.1700 -0.8793 -0.2200
 5143TIP3    H236845   0.843   2.622   3.288  0.2927  0.2596  0.1170
 5144TIP3   OH236846   0.309   3.477  11.667  0.2571 -0.3428 -0.2838
 5144TIP3    H136847   0.401   3.484  11.640 -0.1011 -0.8816 -1.7548
 5144TIP3    H236848   0.310   3.410  11.735  1.2938  1.5527  1.7003
 5145TIP3   OH236849   0.929   5.023   0.977  0.4716 -0.0249  0.4528
 5145TIP3    H136850   0.977   5.092   1.022 -0.3835  2.8986 -2.7156
 5145TIP3    H236851   0.995   4.957   0.956  1.8809  1.0544  1.3477
 5146TIP3   OH236852   4.841   2.462  10.504 -0.2467  0.1639  0.4173
 5146TIP3    H136853   4.861   2.436  10.594 -0.0137 -1.0358  0.0445
 5146TIP3    H236854   4.904   2.532  10.485  0.6746 -0.5656  0.7167
 5147TIP3   OH236855   0.555   3.250  12.208 -0.2236 -0.3552  0.1613
 5147TIP3    H136856   0.567   3.290  12.294 -3.5287 -0.0641  0.6124
 5147TIP3    H236857   0.577   3.319  12.146  1.3459 -0.2959  0.7395
 5148TIP3   OH236858   0.857   6.320  15.456  0.1591  0.0806 -0.0584
 5148TIP3    H136859   0.787   6.263  15.486  0.7561  0.5829  2.5581
 5148TIP3    H236860   0.812   6.396  15.418 -0.6337 -1.0941 -1.5868
 5149TIP3   OH236861   5.025   2.179   1.869  0.2690 -0.6772  0.5768
 5149TIP3    H136862   5.025   2.085   1.886  1.2765 -0.8245 -0.1381
 5149TIP3    H236863   5.080   2.216   1.938 -0.4966 -0.5423  1.1301
 5150TIP3   OH236864   0.699   6.239   3.086 -0.4847 -0.2224 -0.4143
 5150TIP3    H136865   0.734   6.315   3.039 -1.3505  1.4586  1.5180
 5150TIP3    H236866   0.761   6.224   3.157 -2.4643  1.4936  1.8099
 5151TIP3   OH236867   2.423   3.681   3.971 -0.3096  0.4084  0.5474
 5151TIP3    H136868   2.373   3.601   3.957  0.7113 -0.1326 -0.1391
 5151TIP3    H236869   2.433   3.719   3.884 -0.2946  0.9953  0.7949
 5152TIP3   OH236870   2.759   6.135  16.842 -0.3831 -0.3939 -0.6342
 5152TIP3    H136871   2.735   6.113  16.932  0.8028  2.4223  0.4760
 5152TIP3    H236872   2.679   6.170  16.803 -0.0399  2.0288  0.6628
 5153TIP3   OH236873   3.449   2.655  16.871 -0.1551  0.3468  0.2485
 5153TIP3    H136874   3.426   2.731  16.925 -0.6179 -1.0962  2.2329
 5153TIP3    H236875   3.425   2.580  16.925 -1.0737 -1.2505 -2.2086
 5154TIP3   OH236876   1.939   5.365   5.639 -0.0672  0.1385  0.8233
 5154TIP3    H136877   1.962   5.378   5.547 -3.0143 -0.4917 -0.0993
 5154TIP3    H236878   1.870   5.429   5.656 -1.7294 -1.7671  1.6344
 5155TIP3   OH236879   3.482   2.853   5.201  0.5271  0.1600  0.3254
 5155TIP3    H136880   3.539   2.878   5.129  0.2385  0.0457  0.0530
 5155TIP3    H236881   3.540   2.815   5.267  0.7509 -0.0260  0.0193
 5156TIP3   OH236882   6.357   2.468  15.683 -0.4081 -0.3192  0.2258
 5156TIP3    H136883   6.444   2.432  15.670 -0.9339 -1.0921 -1.3293
 5156TIP3    H236884   6.336   2.510  15.600 -0.9363  1.1861  1.0818
 5157TIP3   OH236885   2.645   0.463   4.665 -0.1370 -0.0809 -0.0446
 5157TIP3    H136886   2.618   0.521   4.736 -1.8944  0.1884 -0.8751
 5157TIP3    H236887   2.704   0.516   4.612  1.4990 -0.4127  1.3891
 5158TIP3   OH236888   6.136   0.555  14.445  0.3554 -0.0489  0.2607
 5158TIP3    H136889   6.074   0.529  14.512  0.9603  1.6936  1.5799
 5158TIP3    H236890   6.105   0.512  14.365 -1.5754 -0.5409  1.2167
 5159TIP3   OH236891   0.980   0.482   5.521 -0.2144  0.1945 -0.1680
 5159TIP3    H136892   0.970   0.396   5.561 -0.0302  0.0982 -0.3269
 5159TIP3    H236893   1.071   0.507   5.539  0.2701 -0.4100 -1.6034
 5160TIP3   OH236894   5.746   6.028  13.319 -0.3924 -0.2923  0.0180
 5160TIP3    H136895   5.687   6.022  13.394  1.7254  0.2573  1.8728
 5160TIP3    H236896   5.834   6.022  13.358  0.8019 -0.4979 -2.5006
 5161TIP3   OH236897   3.862   2.317  16.919  0.4522 -0.8582  0.1842
 5161TIP3    H136898   3.798   2.246  16.924 -0.3331 -0.3771 -1.8327
 5161TIP3    H236899   3.818   2.391  16.960  0.4898 -1.0247  0.5291
 5162TIP3   OH236900   2.851   4.934   1.747  0.1989  0.3858  0.5337
 5162TIP3    H136901   2.794   4.877   1.695 -0.9800  2.8937 -1.0684
 5162TIP3    H236902   2.933   4.936   1.698  1.1707 -1.8002  1.9110
 5163TIP3   OH236903   5.208   1.507   4.012 -0.4534 -0.0692  0.2975
 5163TIP3    H136904   5.249   1.588   3.980  1.2201 -0.8761  0.3537
 5163TIP3    H236905   5.193   1.523   4.105 -0.0889  0.1652  0.3193
 5164TIP3   OH236906   2.186   4.014   5.083  0.1574 -0.7611 -0.2666
 5164TIP3    H136907   2.196   4.030   5.177  1.2922 -1.1060 -0.3133
 5164TIP3    H236908   2.111   3.954   5.077  1.4539 -2.5790  0.6219
 5165TIP3   OH236909   3.585   2.638  12.875 -0.6308 -0.0621  0.2430
 5165TIP3    H136910   3.624   2.562  12.832  0.2571  0.3854  0.2254
 5165TIP3    H236911   3.594   2.620  12.969 -1.9089 -0.7086  0.2598
 5166TIP3   OH236912   2.980   1.604  15.604 -0.3233 -0.5331 -0.1594
 5166TIP3    H136913   2.964   1.691  15.640 -1.5219 -0.2061 -1.3592
 5166TIP3    H236914   3.074   1.592  15.609 -0.3091  0.1216  1.5807
 5167TIP3   OH236915   1.514   4.556  15.116 -0.3287 -0.5603 -0.1971
 5167TIP3    H136916   1.596   4.537  15.162  0.0206 -0.2313 -0.6793
 5167TIP3    H236917   1.509   4.652  15.114 -1.8686 -0.5289  1.8413
 5168TIP3   OH236918   1.798   3.193  16.662 -0.2403 -0.0217 -0.2904
 5168TIP3    H136919   1.727   3.176  16.600 -0.5599  0.4199 -0.0501
 5168TIP3    H236920   1.755   3.227  16.740  0.3325  1.5671 -0.6256
 5169TIP3   OH236921   3.528   3.879  15.824 -0.0507 -0.3745 -0.2810
 5169TIP3    H136922   3.513   3.868  15.730 -1.0416 -1.8014  0.0163
 5169TIP3    H236923   3.609   3.831  15.840  0.2564  0.0861 -0.4483
 5170TIP3   OH236924   1.826   1.253  12.032  0.4164  0.1332 -0.3197
 5170TIP3    H136925   1.875   1.229  12.111 -1.1748 -0.7378  0.4615
 5170TIP3    H236926   1.735   1.258  12.061 -0.0965  0.7490 -1.9143
 5171TIP3   OH236927   1.661   1.680  11.340 -0.1800  0.2554 -0.0232
 5171TIP3    H136928   1.740   1.657  11.291  0.5224  2.2497  0.0867
 5171TIP3    H236929   1.632   1.762  11.301 -1.2006  0.4468  1.1031
 5172TIP3   OH236930   2.918   4.807  15.191 -0.8204  0.2038 -0.0023
 5172TIP3    H136931   2.927   4.728  15.137  0.2322  0.2116  0.1394
 5172TIP3    H236932   2.900   4.877  15.128 -0.1128  0.1240 -0.3027
 5173TIP3   OH236933   4.664   3.053  15.041 -0.1162  0.2840 -0.2215
 5173TIP3    H136934   4.679   3.028  14.950  1.8534 -2.1930  0.6450
 5173TIP3    H236935   4.570   3.040  15.055 -0.3426  0.1248 -1.7323
 5174TIP3   OH236936   2.196   5.437  11.762  0.4429  0.1529 -0.0283
 5174TIP3    H136937   2.130   5.404  11.702  1.4032 -1.2177 -0.3814
 5174TIP3    H236938   2.239   5.508  11.715 -1.3703  1.7138  0.5702
 5175TIP3   OH236939   4.534   1.785  12.198 -0.1384 -0.0183 -0.0689
 5175TIP3    H136940   4.584   1.867  12.209  1.2638 -0.5772 -1.9291
 5175TIP3    H236941   4.513   1.782  12.105 -1.2014 -1.2219  0.1929
 5176TIP3   OH236942   2.649   5.456   1.517 -0.2582 -0.1406  0.8813
 5176TIP3    H136943   2.591   5.512   1.569 -1.0094  0.1877 -0.2647
 5176TIP3    H236944   2.592   5.385   1.486 -0.2000  0.4404 -0.6485
 5177TIP3   OH236945   5.985   4.708   0.373 -0.0866 -0.3079 -0.0482
 5177TIP3    H136946   6.046   4.754   0.315 -0.3816 -1.2114 -1.0882
 5177TIP3    H236947   5.943   4.778   0.423 -1.8195  0.7930 -2.8221
 5178TIP3   OH236948   0.912   2.591   1.454  0.5081 -0.6984 -0.0433
 5178TIP3    H136949   0.879   2.505   1.478  1.4624 -1.1483 -0.2798
 5178TIP3    H236950   0.980   2.573   1.389  0.4367  0.2621 -0.3963
 5179TIP3   OH236951   3.537   0.515  16.307  0.5718  0.1753  0.1605
 5179TIP3    H136952   3.501   0.430  16.281 -0.2169 -0.0157  1.7338
 5179TIP3    H236953   3.464   0.576  16.300  1.0769  0.7072 -0.7416
 5180TIP3   OH236954   2.898   4.010   0.942  0.1529 -0.2161  0.2095
 5180TIP3    H136955   2.946   4.091   0.959  1.7739 -1.1823  0.4669
 5180TIP3    H236956   2.956   3.940   0.975 -1.9973 -1.3968  1.7196
 5181TIP3   OH236957   4.262   5.214   2.200 -0.0342  0.8853 -0.7169
 5181TIP3    H136958   4.346   5.216   2.246  1.0835  0.8098 -2.6686
 5181TIP3    H236959   4.227   5.126   2.216  0.3287  0.8624 -0.0379
 5182TIP3   OH236960   3.887   2.143   1.039 -0.1243 -0.8530  0.6383
 5182TIP3    H136961   3.955   2.076   1.043 -0.5531 -1.4828 -1.4328
 5182TIP3    H236962   3.916   2.202   0.970 -1.3866 -0.8231  0.1101
 5183TIP3   OH236963   0.650   5.895  17.252  0.0648 -0.3156 -0.1490
 5183TIP3    H136964   0.579   5.898  17.187 -0.2778 -0.2030  0.2290
 5183TIP3    H236965   0.724   5.855  17.205  0.6465  2.0392 -1.4182
 5184TIP3   OH236966   3.187   3.768  15.650  0.8722  0.1048 -0.0393
 5184TIP3    H136967   3.213   3.734  15.735  1.7231  0.1287 -0.2808
 5184TIP3    H236968   3.269   3.781  15.603  0.3674 -1.2682 -1.3841
 5185TIP3   OH236969   2.663   1.378   0.689  0.0945 -0.9578 -0.0860
 5185TIP3    H136970   2.683   1.435   0.615 -0.1070 -0.3551  0.3141
 5185TIP3    H236971   2.659   1.290   0.651  0.9671 -0.7863 -0.6153
 5186TIP3   OH236972   2.822   4.491   1.269 -0.0958  0.5614 -0.0574
 5186TIP3    H136973   2.730   4.502   1.291 -0.6979 -2.5564 -0.5652
 5186TIP3    H236974   2.862   4.458   1.349  0.1555  0.0611 -0.3870
 5187TIP3   OH236975   4.684   0.516  16.233 -0.1478 -0.4431 -0.2847
 5187TIP3    H136976   4.675   0.577  16.160  0.0415 -0.3303 -0.2120
 5187TIP3    H236977   4.709   0.433  16.192 -0.8930 -0.6037 -0.4323
 5188TIP3   OH236978   3.437   4.272  13.570 -0.6358  0.1239 -0.5504
 5188TIP3    H136979   3.408   4.347  13.518  1.7782  1.6710  0.2037
 5188TIP3    H236980   3.390   4.280  13.653  0.9431  1.9402  0.2313
 5189TIP3   OH236981   0.496   2.009  14.961  0.1412  0.4436 -0.1029
 5189TIP3    H136982   0.573   2.066  14.972 -0.7878  1.7683 -0.2894
 5189TIP3    H236983   0.422   2.063  14.989 -1.0681  0.2522 -2.7029
 5190TIP3   OH236984   4.623   4.559  10.532 -0.1063 -0.4292 -0.1434
 5190TIP3    H136985   4.598   4.474  10.495 -0.0377 -0.0185 -1.1629
 5190TIP3    H236986   4.641   4.614  10.456 -1.9755  1.0757  0.4380
 5191TIP3   OH236987   1.207   4.838  12.569 -0.2390 -0.0463 -0.0332
 5191TIP3    H136988   1.280   4.819  12.628 -1.0188  0.4355  1.1286
 5191TIP3    H236989   1.214   4.932  12.552 -0.6409  0.0240  0.1729
 5192TIP3   OH236990   1.252   4.221  11.502 -0.6226 -0.2446 -0.0366
 5192TIP3    H136991   1.213   4.305  11.480 -1.9181 -0.7149  0.3529
 5192TIP3    H236992   1.336   4.242  11.541 -1.2476  0.9129  0.7471
 5193TIP3   OH236993   5.378   3.958  14.587 -0.3992 -0.1015  1.0019
 5193TIP3    H136994   5.465   3.917  14.593 -0.4397 -0.2025  0.9038
 5193TIP3    H236995   5.368   4.004  14.671 -0.5412 -0.6701  1.3013
 5194TIP3   OH236996   1.968   5.733  14.651 -0.0677 -0.3004  0.6866
 5194TIP3    H136997   1.915   5.772  14.720  0.9451  1.0498  0.7451
 5194TIP3    H236998   1.965   5.796  14.579  0.6971 -0.6351  0.3486
 5195TIP3   OH236999   4.330   1.228  15.553 -0.2769 -0.3398  0.4030
 5195TIP3    H137000   4.322   1.320  15.528 -0.0537  0.3734  2.6917
 5195TIP3    H237001   4.329   1.180  15.471 -0.7191  1.6862 -0.8314
 5196TIP3   OH237002   5.247   2.555  13.589  0.3832 -0.4295 -0.6646
 5196TIP3    H137003   5.187   2.504  13.643  1.5554  1.7034  2.9761
 5196TIP3    H237004   5.325   2.568  13.643  0.8145  3.7686 -1.8577
 5197TIP3   OH237005   6.020   5.559  16.520  0.5285  0.1430 -0.1513
 5197TIP3    H137006   6.012   5.503  16.598  1.2887 -2.5623 -1.8820
 5197TIP3    H237007   6.058   5.502  16.454  0.5403  2.5418 -2.3475
 5198TIP3   OH237008   2.136   5.685   3.451 -0.1912  0.5054 -0.1139
 5198TIP3    H137009   2.152   5.776   3.425 -1.5058  1.0008  0.7112
 5198TIP3    H237010   2.211   5.636   3.416 -0.7760  1.4461 -2.9627
 5199TIP3   OH237011   1.488   6.151   6.323 -0.4358  0.5206  0.3581
 5199TIP3    H137012   1.450   6.094   6.391 -0.1687 -0.1638 -0.0559
 5199TIP3    H237013   1.507   6.233   6.368 -0.2405  0.0664  1.1193
 5200TIP3   OH237014   4.666   3.891   0.690 -0.2333  0.1544 -0.2551
 5200TIP3    H137015   4.659   3.901   0.595  2.8837  2.9609 -0.3740
 5200TIP3    H237016   4.614   3.964   0.725  0.3208  0.3803  0.1040
 5201TIP3   OH237017   3.607   3.308  13.202  0.1875 -0.1166  0.1020
 5201TIP3    H137018   3.637   3.305  13.111  0.9491 -1.0492  0.3677
 5201TIP3    H237019   3.541   3.378  13.203 -0.5336 -0.7372 -1.3620
 5202TIP3   OH237020   6.364   6.259  12.308 -0.2690  0.5718  0.1713
 5202TIP3    H137021   6.320   6.323  12.365  0.9493  1.2198  0.4245
 5202TIP3    H237022   6.331   6.278  12.220 -1.4707  0.1692  0.5127
 5203TIP3   OH237023   2.855   5.268   1.147  0.2636  0.2005 -0.2154
 5203TIP3    H137024   2.790   5.225   1.202 -0.2992  0.9580 -0.2603
 5203TIP3    H237025   2.910   5.318   1.208 -0.1205  0.7320 -0.2945
 5204TIP3   OH237026   5.528   0.571   5.000  0.3259 -0.0004  0.0331
 5204TIP3    H137027   5.488   0.656   4.979  0.3032 -0.2739 -1.1024
 5204TIP3    H237028   5.484   0.543   5.080  0.9586  1.4615  0.9342
 5205TIP3   OH237029   5.949   4.853   2.823 -0.7160  0.4407 -0.1348
 5205TIP3    H137030   5.953   4.889   2.911 -2.1027  0.9937 -0.2701
 5205TIP3    H237031   5.926   4.761   2.836  0.1809  0.2422  0.1096
 5206TIP3   OH237032   5.669   5.332  17.181 -0.0127 -0.2411  0.4362
 5206TIP3    H137033   5.579   5.358  17.159  0.2553 -0.0863 -0.5567
 5206TIP3    H237034   5.724   5.401  17.142  0.5770 -0.8704  0.1286
 5207TIP3   OH237035   1.138   3.579   4.596 -0.4718  0.0144  0.1966
 5207TIP3    H137036   1.054   3.545   4.625 -0.8190  0.2306 -0.5411
 5207TIP3    H237037   1.154   3.537   4.512  1.3719 -1.9748  1.4337
 5208TIP3   OH237038   4.151   1.137   3.903 -0.0751  0.3843  0.3042
 5208TIP3    H137039   4.153   1.206   3.970 -0.2729  1.5522 -0.8418
 5208TIP3    H237040   4.067   1.094   3.916 -0.0144  0.4433  0.9405
 5209TIP3   OH237041   1.230   6.766  14.281 -0.0406  0.1884  0.2800
 5209TIP3    H137042   1.212   6.825  14.354 -1.3624 -0.3350  0.3924
 5209TIP3    H237043   1.172   6.796  14.210  0.1442 -0.2433 -0.0603
 5210TIP3   OH237044   2.201   2.197  14.825 -0.1888 -0.2265 -0.1720
 5210TIP3    H137045   2.177   2.210  14.917  1.2043  1.6735 -0.0239
 5210TIP3    H237046   2.130   2.144  14.789 -2.8852  2.2919  1.0101
 5211TIP3   OH237047   2.467   3.610   1.012  0.1976 -0.1208  0.6256
 5211TIP3    H137048   2.413   3.531   1.010 -1.2983  0.8809  0.2315
 5211TIP3    H237049   2.501   3.613   1.102 -1.3258 -0.1813  1.2296
 5212TIP3   OH237050   2.475   4.712  13.398  0.0445 -0.0648  0.5660
 5212TIP3    H137051   2.413   4.690  13.328  0.0249 -0.1097  0.5973
 5212TIP3    H237052   2.528   4.632  13.409 -0.2603 -0.2216  0.9215
 5213TIP3   OH237053   0.569   1.782  13.169  0.3123 -0.2649 -0.1602
 5213TIP3    H137054   0.492   1.799  13.224  1.4594  1.7806  0.9297
 5213TIP3    H237055   0.572   1.856  13.108  1.3132 -0.4042 -0.2985
 5214TIP3   OH237056   5.048   4.377   4.065  0.0294  0.0492 -0.7631
 5214TIP3    H137057   4.982   4.424   4.116  0.7640  0.7155 -0.4087
 5214TIP3    H237058   4.997   4.324   4.003 -0.8500 -0.2317  0.1815
 5215TIP3   OH237059   0.897   2.611   1.088  0.6429 -0.3751 -0.3437
 5215TIP3    H137060   0.808   2.620   1.121  0.2745 -1.5947 -0.9827
 5215TIP3    H237061   0.936   2.541   1.140  2.0581  1.6813  1.5815
 5216TIP3   OH237062   4.297   2.140  15.482 -0.0558 -0.5492  0.2097
 5216TIP3    H137063   4.361   2.210  15.491 -0.4258  0.1623 -2.0295
 5216TIP3    H237064   4.339   2.064  15.521  1.8021  0.1064 -0.3950
 5217TIP3   OH237065   5.817   4.550  15.244 -0.2468  0.6060  0.5184
 5217TIP3    H137066   5.789   4.529  15.155 -0.7641  1.2552  0.5223
 5217TIP3    H237067   5.737   4.547  15.296  0.1740 -0.6096  1.1401
 5218TIP3   OH237068   3.165   5.553  16.536 -0.5177  0.0423 -0.0675
 5218TIP3    H137069   3.171   5.482  16.600 -1.1223 -1.2748 -1.4044
 5218TIP3    H237070   3.256   5.570  16.510 -0.1768  1.2105  1.7336
 5219TIP3   OH237071   1.675   2.565   2.718 -0.5409  0.3441 -0.0591
 5219TIP3    H137072   1.702   2.655   2.699  1.3089 -0.0650  0.4885
 5219TIP3    H237073   1.580   2.566   2.703 -0.8937  2.8172  1.6041
 5220TIP3   OH237074   5.830   2.114   4.699  0.3858  0.1119 -0.2876
 5220TIP3    H137075   5.859   2.042   4.755  1.6086  0.4380 -0.4816
 5220TIP3    H237076   5.777   2.072   4.631  0.1542 -0.4602  0.2358
 5221TIP3   OH237077   4.148   4.287  14.639  0.4396 -0.0195  0.0564
 5221TIP3    H137078   4.211   4.310  14.707  1.9197 -0.1044 -1.2532
 5221TIP3    H237079   4.065   4.275  14.687  1.5609 -0.7283  1.9202
 5222TIP3   OH237080   5.008   0.620  13.075 -0.9204  0.1321 -0.1503
 5222TIP3    H137081   5.054   0.542  13.045 -0.4675  0.4804 -0.3920
 5222TIP3    H237082   5.047   0.691  13.023 -0.9150  0.5950  0.4825
 5223TIP3   OH237083   4.357   2.805  16.629 -0.4270  0.2817  0.4661
 5223TIP3    H137084   4.390   2.886  16.589 -0.0714  0.6140  1.3996
 5223TIP3    H237085   4.420   2.786  16.698 -1.9467  0.7167  2.0476
 5224TIP3   OH237086   0.400   5.424   1.093 -0.2195 -0.0529 -0.4774
 5224TIP3    H137087   0.440   5.411   1.007  0.3417 -1.2001 -0.0631
 5224TIP3    H237088   0.383   5.336   1.126 -0.9445  0.3812  0.3558
 5225TIP3   OH237089   4.589   0.233  16.343 -0.0394  0.1777  0.4769
 5225TIP3    H137090   4.584   0.221  16.438  0.5903 -0.7545  0.3993
 5225TIP3    H237091   4.498   0.241  16.315 -0.2989 -0.8219  0.9992
 5226TIP3   OH237092   2.377   4.559   3.285  0.3803 -0.4732  0.2157
 5226TIP3    H137093   2.317   4.633   3.299  0.2638 -0.4707 -0.3085
 5226TIP3    H237094   2.444   4.571   3.353  0.5106  0.2653 -0.0343
 5227TIP3   OH237095   5.854   6.558   4.379  0.1117 -0.0656 -0.0935
 5227TIP3    H137096   5.904   6.518   4.450  2.7561  0.5862 -1.4584
 5227TIP3    H237097   5.804   6.486   4.342  0.8290 -1.0078  0.7060
 5228TIP3   OH237098   5.341   4.991   5.137  0.0654 -0.3514  0.1068
 5228TIP3    H137099   5.340   4.906   5.182  1.5978 -1.3652 -1.6173
 5228TIP3    H237100   5.424   5.030   5.163  0.4169 -0.4263 -0.8570
 5229TIP3   OH237101   4.190   3.075   0.158  0.4746  0.8158 -0.4079
 5229TIP3    H137102   4.129   3.087   0.231  0.7868  1.9095 -0.3000
 5229TIP3    H237103   4.207   3.164   0.126  1.7025  0.5073 -0.6846
 5230TIP3   OH237104   2.182   0.219  13.498  0.6012  0.5834 -0.2909
 5230TIP3    H137105   2.164   0.134  13.538 -0.0117  0.1731 -1.3724
 5230TIP3    H237106   2.163   0.283  13.566 -3.0482  0.0785 -0.6531
 5231TIP3   OH237107   5.217   6.306   5.870  0.3369 -0.2953 -0.1625
 5231TIP3    H137108   5.168   6.249   5.811  0.4495 -1.5468  0.8967
 5231TIP3    H237109   5.201   6.269   5.957 -0.2488  1.7994  0.6780
 5232TIP3   OH237110   3.675   5.533   3.002 -1.1394  0.3893  0.2406
 5232TIP3    H137111   3.728   5.605   2.969  0.5765 -1.4188 -1.2454
 5232TIP3    H237112   3.587   5.550   2.969 -0.6908  1.6416 -0.3489
 5233TIP3   OH237113   0.137   6.620   5.829  0.0443  0.4132 -0.2530
 5233TIP3    H137114   0.125   6.656   5.741  2.6475 -0.4432 -1.0605
 5233TIP3    H237115   0.102   6.531   5.823 -0.5297  0.6248 -0.1485
 5234TIP3   OH237116   6.276   1.438  12.833 -0.2872 -0.0282  0.9215
 5234TIP3    H137117   6.217   1.410  12.903 -0.7916 -0.2182  0.4331
 5234TIP3    H237118   6.292   1.358  12.782  1.1336 -0.1854  1.5649
 5235TIP3   OH237119   2.748   3.049  12.628  0.3162 -0.3252 -0.1640
 5235TIP3    H137120   2.832   3.068  12.670 -0.7597  2.2191  1.0008
 5235TIP3    H237121   2.764   3.067  12.535  1.2631 -0.7430 -0.0981
 5236TIP3   OH237122   4.670   6.200  15.374 -0.0675 -0.4913  0.1907
 5236TIP3    H137123   4.624   6.143  15.312 -0.9946 -1.2770  1.5487
 5236TIP3    H237124   4.611   6.275  15.385  0.3544 -0.0859 -0.2950
 5237TIP3   OH237125   2.928   1.415   4.890 -0.1907 -1.1663  0.0399
 5237TIP3    H137126   2.970   1.338   4.851 -0.2612 -0.5309 -1.3391
 5237TIP3    H237127   2.846   1.381   4.927 -0.3009 -1.7366 -0.6932
 5238TIP3   OH237128   6.156   5.345  16.393  0.6275 -0.5755  0.7649
 5238TIP3    H137129   6.188   5.259  16.365  1.1686 -0.5704  1.3310
 5238TIP3    H237130   6.235   5.390  16.424  0.1334 -0.4018  1.8078
 5239TIP3   OH237131   2.834   3.618  16.872 -0.1412  0.0109 -0.2614
 5239TIP3    H137132   2.756   3.577  16.910  0.7763  0.5388  2.3397
 5239TIP3    H237133   2.907   3.580  16.920  1.0014  1.6751 -0.6149
 5240TIP3   OH237134   0.330   0.536   0.526  0.2014  0.5959 -0.0161
 5240TIP3    H137135   0.309   0.456   0.574 -1.6010  0.3902 -1.0801
 5240TIP3    H237136   0.302   0.607   0.584 -3.3739  0.3414 -1.2188
 5241TIP3   OH237137   6.677   1.034   3.404  0.3005  0.0378 -0.7121
 5241TIP3    H137138   6.713   1.122   3.392  0.0860  0.5648  1.8260
 5241TIP3    H237139   6.744   0.976   3.368  1.0737  1.2050 -1.2417
 5242TIP3   OH237140   3.956   6.298   1.682 -0.5144  0.7633 -0.4984
 5242TIP3    H137141   3.935   6.380   1.727 -0.8360  0.6943 -0.5165
 5242TIP3    H237142   3.882   6.241   1.702  0.7482 -0.3099  1.4076
 5243TIP3   OH237143   4.196   2.829  16.364 -0.6541 -0.4324 -0.5964
 5243TIP3    H137144   4.147   2.797  16.288  0.1144 -0.8148 -0.9467
 5243TIP3    H237145   4.165   2.775  16.437 -1.8284  0.3383 -0.5061
 5244TIP3   OH237146   3.154   4.667  12.598 -0.3936  0.5296  0.2448
 5244TIP3    H137147   3.156   4.694  12.506 -0.7459  1.9865  0.6533
 5244TIP3    H237148   3.239   4.623  12.611 -0.4260  0.1074 -0.8182
 5245TIP3   OH237149   4.298   6.429   5.379  0.1667 -0.3193  0.3080
 5245TIP3    H137150   4.249   6.471   5.449 -0.9293 -1.1091  0.0298
 5245TIP3    H237151   4.292   6.336   5.398 -0.6401 -0.5859 -1.1565
 5246TIP3   OH237152   6.703   4.834  13.154 -0.5137  0.3935 -0.1834
 5246TIP3    H137153   6.628   4.782  13.127  0.0807 -0.0275 -1.0643
 5246TIP3    H237154   6.741   4.786  13.227  0.4616 -0.8341 -1.4554
 5247TIP3   OH237155   0.877   6.017  14.003  0.3584 -0.5522  0.3335
 5247TIP3    H137156   0.846   6.005  13.913 -4.3337  1.7440  1.3143
 5247TIP3    H237157   0.855   5.936  14.047  0.1736 -0.7232 -0.0630
 5248TIP3   OH237158   0.891   1.660  12.407  0.4588 -0.7324  0.1302
 5248TIP3    H137159   0.804   1.657  12.447 -0.3809 -2.0547 -1.6170
 5248TIP3    H237160   0.910   1.754  12.398 -0.1767 -0.4217  1.7131
 5249TIP3   OH237161   2.916   5.456   2.317  0.2506  0.1247  0.7622
 5249TIP3    H137162   2.958   5.375   2.288  0.4263  1.0067 -1.7642
 5249TIP3    H237163   2.988   5.507   2.356  0.6873 -0.0155  0.1721
 5250TIP3   OH237164   4.702   1.477   0.819  0.5038 -0.3365 -0.0769
 5250TIP3    H137165   4.784   1.467   0.771  0.9684 -0.8876  0.7889
 5250TIP3    H237166   4.653   1.397   0.801  0.5689 -0.4308  0.1609
 5251TIP3   OH237167   3.347   5.300   1.221 -0.2925  0.1594 -0.6661
 5251TIP3    H137168   3.322   5.314   1.130  0.1762  0.2308 -0.7816
 5251TIP3    H237169   3.299   5.221   1.247 -1.7981  1.0956 -0.4575
 5252TIP3   OH237170   2.925   2.966   0.436 -0.4967 -0.3207  0.7711
 5252TIP3    H137171   2.985   2.933   0.368  0.1099  1.3517  0.4307
 5252TIP3    H237172   2.975   2.958   0.517 -1.1344 -2.1001  1.0434
 5253TIP3   OH237173   4.869   4.205  12.233 -0.6114 -0.1785 -0.0672
 5253TIP3    H137174   4.784   4.237  12.202 -0.6038 -1.3308 -1.3339
 5253TIP3    H237175   4.932   4.270  12.201 -0.8056 -0.4063 -0.9399
 5254TIP3   OH237176   0.638   5.223  11.743 -0.1711 -0.1766  0.0513
 5254TIP3    H137177   0.724   5.186  11.763  1.1647  2.2783 -0.7080
 5254TIP3    H237178   0.619   5.278  11.820  1.6958  3.6967 -1.9493
 5255TIP3   OH237179   2.566   0.708  12.261  0.3019  0.4175 -0.4867
 5255TIP3    H137180   2.638   0.668  12.309  0.0189 -0.0089 -0.4100
 5255TIP3    H237181   2.507   0.741  12.329 -1.4178 -2.5027 -0.4233
 5256TIP3   OH237182   2.913   0.317   2.884 -0.4392  0.4264 -0.1866
 5256TIP3    H137183   2.860   0.396   2.879  1.4754  1.9409  1.3536
 5256TIP3    H237184   2.972   0.323   2.809  1.5184  2.0244  1.3352
 5257TIP3   OH237185   5.239   2.372   1.961  0.5707  0.0770 -0.1315
 5257TIP3    H137186   5.321   2.376   1.911  0.7364 -0.0705  0.1308
 5257TIP3    H237187   5.266   2.347   2.049  0.2746  0.3233  0.0302
 5258TIP3   OH237188   5.190   5.575   6.672 -0.0302 -0.5664 -0.4569
 5258TIP3    H137189   5.122   5.549   6.733 -1.7074  0.2853 -1.8517
 5258TIP3    H237190   5.249   5.500   6.667 -0.6375 -1.1815  1.0822
 5259TIP3   OH237191   0.549   4.602  16.983  0.2736 -0.4136 -0.2983
 5259TIP3    H137192   0.604   4.523  16.987  1.5609  0.3971 -1.0800
 5259TIP3    H237193   0.485   4.583  16.915 -0.8592 -1.6068  1.0381
 5260TIP3   OH237194   5.621   0.305   0.270 -0.5179 -0.4377  0.3906
 5260TIP3    H137195   5.699   0.360   0.269  0.5177 -1.8766  0.2589
 5260TIP3    H237196   5.549   0.366   0.288  0.2870  1.3405 -1.9465
 5261TIP3   OH237197   0.519   5.685   1.200 -0.0435 -0.1338 -0.3474
 5261TIP3    H137198   0.592   5.652   1.148  0.0043  1.5064 -1.3570
 5261TIP3    H237199   0.455   5.613   1.198  0.7675 -0.8699 -0.9833
 5262TIP3   OH237200   5.221   1.826   5.501  0.3553 -0.3700  0.0463
 5262TIP3    H137201   5.234   1.863   5.589 -0.0638 -1.4673  0.5807
 5262TIP3    H237202   5.309   1.801   5.472  0.4673 -0.1912  0.2239
 5263TIP3   OH237203   0.853   3.001  13.714  0.2088  0.3423 -0.1837
 5263TIP3    H137204   0.933   2.948  13.716  0.2261  0.3481  1.9981
 5263TIP3    H237205   0.836   3.022  13.806 -3.3059 -1.1819 -0.3200
 5264TIP3   OH237206   5.058   3.199   2.409  0.1008  0.7897 -0.1409
 5264TIP3    H137207   5.050   3.270   2.473 -1.1398  0.5781 -0.0237
 5264TIP3    H237208   5.024   3.236   2.328 -1.1072  0.1880  0.0617
 5265TIP3   OH237209   5.062   3.007   3.353  0.5821  0.0876 -0.4082
 5265TIP3    H137210   5.119   3.037   3.424  0.6185  2.9114 -1.5047
 5265TIP3    H237211   5.121   2.969   3.289  0.7603 -0.7141  0.2263
 5266TIP3   OH237212   6.081   2.440  16.093  0.2517 -0.0472  0.4088
 5266TIP3    H137213   6.157   2.426  16.149  0.2764  0.2311  0.4467
 5266TIP3    H237214   6.030   2.507  16.138  0.7198  0.8311 -0.3405
 5267TIP3   OH237215   5.022   0.934  14.304 -0.3890 -0.2581 -0.3894
 5267TIP3    H137216   5.059   0.919  14.391 -0.2856 -0.0945 -0.4047
 5267TIP3    H237217   4.934   0.897  14.309 -0.1871 -0.7503 -0.3848
 5268TIP3   OH237218   1.463   3.647  17.070 -0.3115 -1.0491  0.8205
 5268TIP3    H137219   1.545   3.603  17.094 -0.5289 -1.3655  0.9879
 5268TIP3    H237220   1.491   3.731  17.033  0.0501 -0.7986  1.6546
 5269TIP3   OH237221   6.189   5.386   5.405  0.1953  0.6141  0.2500
 5269TIP3    H137222   6.233   5.326   5.465 -1.5504 -1.3447 -0.3337
 5269TIP3    H237223   6.136   5.442   5.462 -0.7436 -0.6291  0.6361
 5270TIP3   OH237224   4.617   6.430   3.204  0.1084  0.0805  0.7720
 5270TIP3    H137225   4.571   6.360   3.249  0.9801 -0.6303  0.5834
 5270TIP3    H237226   4.608   6.506   3.262 -1.1817 -0.0642  0.7834
 5271TIP3   OH237227   0.116   4.792   4.903 -0.1948  0.3046 -0.2019
 5271TIP3    H137228   0.172   4.761   4.974  0.6434  0.6732 -0.6825
 5271TIP3    H237229   0.037   4.740   4.909  0.6466 -1.0056 -0.1827
 5272TIP3   OH237230   6.422   2.607  11.758 -0.1665  0.5898 -0.1140
 5272TIP3    H137231   6.371   2.685  11.780 -0.3342  0.5713 -0.4213
 5272TIP3    H237232   6.390   2.582  11.671  0.6553  0.8132 -0.4837
 5273TIP3   OH237233   0.076   6.280   2.103  0.5799 -0.5096  0.1403
 5273TIP3    H137234   0.029   6.252   2.024 -1.1800 -1.6091  1.4848
 5273TIP3    H237235   0.157   6.229   2.102 -0.6578 -2.6133  0.3641
 5274TIP3   OH237236   0.394   2.962  16.424  0.0715  0.4638  0.2057
 5274TIP3    H137237   0.369   2.893  16.363 -1.0267  0.6313  0.4416
 5274TIP3    H237238   0.489   2.953  16.433 -0.0031 -0.7668 -0.0555
 5275TIP3   OH237239   6.259   4.972   2.486 -0.3732  0.2950  0.3936
 5275TIP3    H137240   6.323   4.901   2.487 -0.7572 -0.0570  1.0969
 5275TIP3    H237241   6.284   5.027   2.560  1.9610  2.8015 -2.0374
 5276TIP3   OH237242   0.215   1.628  15.233 -0.0285 -0.1203 -1.0564
 5276TIP3    H137243   0.284   1.566  15.256 -0.8301 -0.1065  1.7608
 5276TIP3    H237244   0.134   1.586  15.264 -0.9599  1.0616 -1.7827
 5277TIP3   OH237245   3.372   6.674   1.489  0.4144  0.1879  0.4778
 5277TIP3    H137246   3.365   6.714   1.402 -1.1334  1.1096  0.9805
 5277TIP3    H237247   3.333   6.587   1.478  0.0641  0.3683  0.2856
 5278TIP3   OH237248   1.078   5.677  16.750 -0.1324  0.2940 -0.9034
 5278TIP3    H137249   1.031   5.598  16.777  0.5379  0.4360  0.8733
 5278TIP3    H237250   1.016   5.748  16.765 -0.4990  0.1729 -1.8318
 5279TIP3   OH237251   6.101   6.058  13.348  0.2299 -0.0990  0.0776
 5279TIP3    H137252   6.177   6.031  13.295  0.4252  0.3968  0.1047
 5279TIP3    H237253   6.128   6.041  13.439 -0.4258 -1.7717 -0.0004
 5280TIP3   OH237254   5.167   4.104  13.279 -0.1278 -0.5459 -0.2878
 5280TIP3    H137255   5.230   4.142  13.218  0.5760  0.4210  0.9847
 5280TIP3    H237256   5.093   4.166  13.279 -1.2610 -1.8016 -1.9655
 5281TIP3   OH237257   6.086   0.411   3.945  0.0232  0.2273  0.1356
 5281TIP3    H137258   6.093   0.488   4.001  0.8187 -0.2307  0.6798
 5281TIP3    H237259   6.137   0.343   3.989  0.1886 -0.3159 -0.8427
 5282TIP3   OH237260   0.756   3.107   3.539 -0.0887 -0.6011  0.0627
 5282TIP3    H137261   0.675   3.071   3.575  0.1466 -2.0127 -0.7574
 5282TIP3    H237262   0.798   3.150   3.614  0.3123 -3.3214  1.5461
 5283TIP3   OH237263   2.585   2.666  16.254  0.1412  0.3150  0.8868
 5283TIP3    H137264   2.660   2.621  16.216  0.0206  0.9553 -0.1392
 5283TIP3    H237265   2.603   2.759  16.239 -0.8463  0.4733  0.6422
 5284TIP3   OH237266   5.482   6.658   5.870 -0.5980  0.3775  0.1959
 5284TIP3    H137267   5.436   6.690   5.792 -0.1105  1.1802  0.2358
 5284TIP3    H237268   5.572   6.688   5.859 -1.0044  2.5923  2.1826
 5285TIP3   OH237269   1.116   3.606  12.113  0.2676 -0.4284  0.0381
 5285TIP3    H137270   1.021   3.611  12.111  0.3011  0.6165 -1.4530
 5285TIP3    H237271   1.136   3.525  12.159 -1.3468 -0.8468  0.0405
 5286TIP3   OH237272   4.034   2.355  16.064 -0.1357  0.2898  0.4846
 5286TIP3    H137273   4.103   2.382  16.125  0.7641 -2.1405  0.6698
 5286TIP3    H237274   4.023   2.262  16.082 -0.7860 -0.2039 -2.1775
 5287TIP3   OH237275   4.435   3.400   3.615 -0.3113 -0.2635 -0.3952
 5287TIP3    H137276   4.497   3.331   3.596 -0.7707 -0.3784 -1.5448
 5287TIP3    H237277   4.405   3.431   3.529  0.5524  1.9863  0.0346
 5288TIP3   OH237278   1.502   5.954   5.128 -0.1020  0.0838  0.3851
 5288TIP3    H137279   1.451   5.923   5.203  1.5955 -0.8473  1.1989
 5288TIP3    H237280   1.562   5.883   5.108  1.5828  1.5210  0.1130
 5289TIP3   OH237281   4.835   5.635  10.743  0.1455  0.0109 -0.0121
 5289TIP3    H137282   4.757   5.635  10.687 -0.5287  0.5362  0.9049
 5289TIP3    H237283   4.821   5.707  10.804  1.7530  0.6592 -0.3544
 5290TIP3   OH237284   1.901   0.589   6.298  0.0812 -0.2613  0.9057
 5290TIP3    H137285   1.861   0.504   6.279 -1.5752  0.4490  1.1013
 5290TIP3    H237286   1.926   0.584   6.390 -3.1642  0.6183  1.9326
 5291TIP3   OH237287   5.935   1.284  13.254  0.0848 -0.3128 -0.5260
 5291TIP3    H137288   6.003   1.263  13.190  0.8938 -0.8746  0.4667
 5291TIP3    H237289   5.981   1.280  13.339 -1.0558 -0.0965  0.1237
 5292TIP3   OH237290   4.217   0.595   0.622 -0.1236 -0.3004  0.3587
 5292TIP3    H137291   4.247   0.535   0.554 -0.6036 -0.4360  0.2622
 5292TIP3    H237292   4.122   0.580   0.627 -0.1720  0.0962  0.6771
 5293TIP3   OH237293   0.155   1.729  13.959 -0.1550  0.3579  0.1028
 5293TIP3    H137294   0.213   1.683  13.898  2.6551  2.1302  1.2741
 5293TIP3    H237295   0.125   1.660  14.018  2.5250 -0.3776  0.7491
 5294TIP3   OH237296   1.083   0.643  16.377 -0.6114  0.4291  0.2710
 5294TIP3    H137297   1.096   0.686  16.461 -0.1919  0.6729  0.0824
 5294TIP3    H237298   1.030   0.566  16.397 -0.0379  0.1787  0.8364
 5295TIP3   OH237299   5.205   3.918  17.123  0.1799 -0.0588 -0.0901
 5295TIP3    H137300   5.235   3.932  17.034  0.9617  1.4527  0.3828
 5295TIP3    H237301   5.191   4.006  17.158  2.7367 -0.4369  2.2005
 5296TIP3   OH237302   0.533   3.354   6.115 -0.4572 -0.2128 -0.1577
 5296TIP3    H137303   0.592   3.280   6.119  0.2385  0.3684  0.7285
 5296TIP3    H237304   0.507   3.360   6.023  1.1384 -0.2655 -0.6274
 5297TIP3   OH237305   1.140   0.619   1.416 -0.3112  0.6061  0.2305
 5297TIP3    H137306   1.203   0.642   1.485  0.7382  1.5891 -1.0104
 5297TIP3    H237307   1.163   0.530   1.392  1.9161  1.5440 -1.4794
 5298TIP3   OH237308   5.610   4.529  13.743  0.0723 -0.2357  0.5397
 5298TIP3    H137309   5.618   4.493  13.655  1.2716  2.3670 -0.5193
 5298TIP3    H237310   5.539   4.479  13.783  0.9068 -2.9431 -1.1033
 5299TIP3   OH237311   6.420   0.755  16.900  0.4217 -0.7435  0.2665
 5299TIP3    H137312   6.437   0.757  16.806 -0.4380  0.2946  0.1088
 5299TIP3    H237313   6.455   0.839  16.932 -0.8722 -0.2847  0.5522
 5300TIP3   OH237314   5.374   2.884   1.358 -0.2597  0.2389 -0.5270
 5300TIP3    H137315   5.404   2.971   1.331  1.6229 -0.4216 -0.7324
 5300TIP3    H237316   5.454   2.840   1.390 -1.6616 -0.3616  2.5283
 5301TIP3   OH237317   3.440   4.479   5.901  0.1693  0.2290 -0.2344
 5301TIP3    H137318   3.532   4.488   5.874 -0.2627 -2.2314 -2.9743
 5301TIP3    H237319   3.445   4.463   5.995  2.4055  1.4578 -0.0524
 5302TIP3   OH237320   2.879   3.998  15.318  0.3181  0.4634  0.2652
 5302TIP3    H137321   2.805   3.940  15.337  0.7367 -0.1202  0.1669
 5302TIP3    H237322   2.933   3.995  15.398  0.0886  1.1174  0.4473
 5303TIP3   OH237323   5.772   4.283   2.654 -0.0218  0.4285 -0.2745
 5303TIP3    H137324   5.741   4.338   2.725 -0.0458  0.7987 -0.5702
 5303TIP3    H237325   5.840   4.229   2.693 -0.5893  0.0591  0.2265
 5304TIP3   OH237326   5.535   4.093  15.829  0.6349  0.7479  0.0692
 5304TIP3    H137327   5.563   4.002  15.830  2.3508  1.2616  0.5699
 5304TIP3    H237328   5.493   4.104  15.743  0.0183 -0.5995  0.1746
 5305TIP3   OH237329   3.546   1.645   4.695 -0.2084  0.1127 -0.1575
 5305TIP3    H137330   3.529   1.580   4.627 -0.7488  1.6595 -1.5569
 5305TIP3    H237331   3.640   1.640   4.710 -0.1686 -0.6261 -0.6186
 5306TIP3   OH237332   2.086   4.336   4.377 -0.4212  0.1122 -0.0600
 5306TIP3    H137333   2.138   4.263   4.411 -0.0661  1.1355  1.7200
 5306TIP3    H237334   2.143   4.379   4.313 -0.1345 -0.3773 -0.1348
 5307TIP3   OH237335   0.529   6.687   3.303 -0.2344 -0.2422  0.0974
 5307TIP3    H137336   0.516   6.743   3.380  1.9920  0.4021  0.0877
 5307TIP3    H237337   0.448   6.637   3.295  0.1793 -1.9374  4.1794
 5308TIP3   OH237338   5.366   6.194   2.779 -0.6562  0.0680  0.0160
 5308TIP3    H137339   5.434   6.182   2.845 -1.8759  0.8795  1.4871
 5308TIP3    H237340   5.284   6.190   2.828 -1.6403 -0.0580 -1.5792
 5309TIP3   OH237341   5.730   2.234  14.159  0.5567  0.0617  0.1631
 5309TIP3    H137342   5.730   2.143  14.191  0.9679 -0.5121 -1.3898
 5309TIP3    H237343   5.819   2.264  14.172  0.7363 -0.1880 -0.4643
 5310TIP3   OH237344   4.422   3.777  13.417 -0.2927 -0.0264 -0.1060
 5310TIP3    H137345   4.381   3.783  13.504 -0.4546  0.7426 -0.2305
 5310TIP3    H237346   4.486   3.848  13.416 -0.2179 -0.1007 -0.5759
 5311TIP3   OH237347   3.573   3.266  12.304 -0.3172  0.3189 -0.8713
 5311TIP3    H137348   3.552   3.359  12.311 -0.9214  0.3125 -2.2524
 5311TIP3    H237349   3.648   3.262  12.245  0.2138 -0.0339 -0.1947
 5312TIP3   OH237350   1.681   6.511   0.735 -0.1272 -0.9327  0.4415
 5312TIP3    H137351   1.650   6.598   0.711 -0.0777 -1.8497 -3.7687
 5312TIP3    H237352   1.619   6.481   0.802  0.2785  2.4667  2.5429
 5313TIP3   OH237353   5.653   0.164   5.190  0.1156  0.5616  0.5118
 5313TIP3    H137354   5.576   0.218   5.207  0.5884  1.2054  0.6042
 5313TIP3    H237355   5.707   0.216   5.130  0.5442  0.1714  0.5513
 5314TIP3   OH237356   1.607   2.578  12.574  0.4380 -0.5008  0.3942
 5314TIP3    H137357   1.674   2.646  12.577 -1.2875  1.2663  3.0205
 5314TIP3    H237358   1.525   2.624  12.593 -0.7733 -3.2823  2.7310
 5315TIP3   OH237359   4.868   5.982  15.551  0.6091 -0.1789 -0.2556
 5315TIP3    H137360   4.941   5.922  15.534  0.1834 -1.2929  1.5479
 5315TIP3    H237361   4.860   6.034  15.471  1.4792 -2.0288 -1.6149
 5316TIP3   OH237362   3.883   0.734   1.308 -0.1407  0.0485 -0.4348
 5316TIP3    H137363   3.822   0.793   1.352 -0.3913 -0.6057  0.1118
 5316TIP3    H237364   3.879   0.760   1.216 -1.4609 -0.1597 -0.4605
 5317TIP3   OH237365   3.434   0.164   1.810  0.2922  0.2590  0.4465
 5317TIP3    H137366   3.426   0.078   1.770 -1.1786  1.2664 -1.5907
 5317TIP3    H237367   3.529   0.178   1.819  0.5549 -1.3579  0.4086
 5318TIP3   OH237368   1.230   1.131   4.487 -0.9297  0.0829 -0.1153
 5318TIP3    H137369   1.302   1.174   4.441  0.1451  0.8820  2.1511
 5318TIP3    H237370   1.274   1.071   4.548 -2.1202  0.7641  1.4848
 5319TIP3   OH237371   2.321   3.372   2.035 -0.0911  0.2375  0.2987
 5319TIP3    H137372   2.323   3.353   1.942  1.6093 -0.1404  0.3841
 5319TIP3    H237373   2.321   3.468   2.041  1.9401  0.3132 -0.1262
 5320TIP3   OH237374   2.182   6.552   2.614 -0.1665  0.1765 -0.3527
 5320TIP3    H137375   2.255   6.490   2.609  1.8998  2.5630 -2.8040
 5320TIP3    H237376   2.196   6.599   2.696  0.2416 -0.3369 -0.1255
 5321TIP3   OH237377   1.469   1.387  12.649 -0.1913 -0.8234  0.1294
 5321TIP3    H137378   1.455   1.409  12.557 -0.3529  0.2587  0.3970
 5321TIP3    H237379   1.382   1.397  12.689  0.0026 -0.6526  0.5139
 5322TIP3   OH237380   0.040   0.081   3.797  0.3871  0.1807  0.4812
 5322TIP3    H137381   0.036   0.022   3.872  1.1968 -0.0018  0.3845
 5322TIP3    H237382  -0.051   0.090   3.768  0.3806 -2.1956 -0.4269
 5323TIP3   OH237383   0.632   1.055   5.369  0.1395  0.2938 -0.3840
 5323TIP3    H137384   0.537   1.046   5.381  0.4292 -0.3314  2.0533
 5323TIP3    H237385   0.653   0.998   5.296 -1.2283 -0.5107 -0.1794
 5324TIP3   OH237386   1.317   6.724  13.259  0.2008  0.8916 -0.1302
 5324TIP3    H137387   1.375   6.790  13.297  3.9154 -1.2957 -1.5335
 5324TIP3    H237388   1.303   6.754  13.169 -0.4339  1.1303  0.0427
 5325TIP3   OH237389   3.377   5.523   3.084 -0.4022 -0.2773 -0.0802
 5325TIP3    H137390   3.399   5.613   3.110 -1.4996 -0.2587  0.8818
 5325TIP3    H237391   3.384   5.473   3.166 -0.5246 -0.9326 -0.4665
 5326TIP3   OH237392   3.193   0.166   1.452 -0.5180 -0.0504 -0.4628
 5326TIP3    H137393   3.259   0.131   1.392 -0.1721 -0.5403  0.1912
 5326TIP3    H237394   3.125   0.098   1.456  0.5382 -1.0807  1.4383
 5327TIP3   OH237395   0.393   4.795   0.748  0.1087  0.5686  0.3589
 5327TIP3    H137396   0.404   4.885   0.718 -0.1245  0.0005 -1.5451
 5327TIP3    H237397   0.298   4.786   0.761  0.2237  0.8671  1.5520
 5328TIP3   OH237398   1.536   4.809  11.643 -0.4079  0.1051 -0.0105
 5328TIP3    H137399   1.584   4.727  11.635 -0.6478 -0.0878  0.4960
 5328TIP3    H237400   1.604   4.875  11.657 -0.2337 -0.0416 -0.1556
 5329TIP3   OH237401   3.311   0.582   1.469 -0.3137 -0.2684  0.3012
 5329TIP3    H137402   3.225   0.623   1.473 -0.2105  0.1554 -1.3010
 5329TIP3    H237403   3.299   0.497   1.512 -1.1871  0.3184  1.2733
 5330TIP3   OH237404   2.149   2.596  12.024 -0.0880 -0.0452  0.3653
 5330TIP3    H137405   2.130   2.548  11.943  0.4030  0.5680 -0.1184
 5330TIP3    H237406   2.151   2.528  12.091  0.7901 -0.7522 -0.3445
 5331TIP3   OH237407   4.926   4.193  15.382  0.0620  0.4635 -0.6213
 5331TIP3    H137408   4.841   4.207  15.341  0.2223  1.7915 -0.5571
 5331TIP3    H237409   4.963   4.281  15.391  1.4502 -0.0845 -0.6568
 5332TIP3   OH237410   5.163   1.517   2.114 -0.1378 -0.0184 -0.4090
 5332TIP3    H137411   5.214   1.593   2.144 -1.5520  0.1172  1.8732
 5332TIP3    H237412   5.212   1.441   2.147  1.6899 -0.2377 -3.3444
 5333TIP3   OH237413   1.770   0.714  13.580  0.0955  0.1015 -0.0732
 5333TIP3    H137414   1.722   0.729  13.498  0.5939  0.5850 -0.2783
 5333TIP3    H237415   1.808   0.799  13.602 -0.3487  0.0638  0.8708
 5334TIP3   OH237416   4.948   3.181  10.904  0.1794  0.6023  0.8653
 5334TIP3    H137417   4.890   3.231  10.961 -1.0450 -0.2015  0.3432
 5334TIP3    H237418   4.891   3.122  10.857  1.1527  1.2077 -1.1867
 5335TIP3   OH237419   4.640   4.722   2.820  0.7103  0.3802  0.0256
 5335TIP3    H137420   4.590   4.752   2.896 -0.4017 -2.0598  0.3362
 5335TIP3    H237421   4.586   4.746   2.744  0.0860 -0.3382  0.2346
 5336TIP3   OH237422   5.677   4.249   3.194  0.1717 -0.1105 -0.2463
 5336TIP3    H137423   5.609   4.184   3.175  1.0952 -0.7012 -1.6382
 5336TIP3    H237424   5.701   4.233   3.286 -0.9871 -0.4173  0.0149
 5337TIP3   OH237425   5.508   5.296   0.618 -0.3849 -0.2741  0.7507
 5337TIP3    H137426   5.498   5.244   0.539 -1.0076 -1.4108  1.5571
 5337TIP3    H237427   5.510   5.387   0.586 -0.5687 -0.7064 -0.5662
 5338TIP3   OH237428   6.514   6.092   3.611 -0.0581  0.2357 -0.8352
 5338TIP3    H137429   6.418   6.090   3.609 -0.0839  0.3715 -0.1286
 5338TIP3    H237430   6.537   6.184   3.597 -0.1307  0.6220  1.2042
 5339TIP3   OH237431   2.695   1.339  15.989  0.5659 -0.3721  0.0918
 5339TIP3    H137432   2.737   1.334  16.075  2.4135 -1.7281 -0.8149
 5339TIP3    H237433   2.747   1.404  15.941  1.5539 -1.9062 -0.9795
 5340TIP3   OH237434   2.724   6.026   5.418 -0.4546  0.2973 -0.6949
 5340TIP3    H137435   2.707   5.970   5.343  1.2663 -0.4452 -0.5878
 5340TIP3    H237436   2.645   6.020   5.472 -0.6046 -1.4297 -1.0610
 5341TIP3   OH237437   0.273   2.405   3.748 -0.4032 -0.3164 -0.1441
 5341TIP3    H137438   0.346   2.353   3.784 -0.2198 -0.7641 -1.1253
 5341TIP3    H237439   0.290   2.406   3.654 -0.3173  1.6694 -0.1410
 5342TIP3   OH237440   0.035   5.061   0.314  0.5057  0.4756 -0.3932
 5342TIP3    H137441  -0.028   5.133   0.315  0.7081  0.6600  1.2771
 5342TIP3    H237442  -0.019   4.982   0.310  0.0459  0.5870  2.0077
 5343TIP3   OH237443   6.192   1.201   5.452  0.5214 -0.2679 -0.6090
 5343TIP3    H137444   6.115   1.198   5.508  0.0315  1.3523 -1.1391
 5343TIP3    H237445   6.191   1.117   5.405  0.7363 -1.4970  1.4598
 5344TIP3   OH237446   0.684   0.547   2.004  0.2899  0.2779 -0.2915
 5344TIP3    H137447   0.607   0.490   2.006  0.0199  0.5288 -1.9805
 5344TIP3    H237448   0.648   0.636   2.007  0.6608  0.4071  1.2435
 5345TIP3   OH237449   0.343   5.161  13.417  0.2681  0.6646  0.5087
 5345TIP3    H137450   0.317   5.214  13.342 -1.0085  0.9612  1.1458
 5345TIP3    H237451   0.293   5.080  13.408  1.0202  0.2047  0.3958
 5346TIP3   OH237452   2.720   5.818   6.478  0.1492 -0.0024  0.1916
 5346TIP3    H137453   2.653   5.805   6.411  0.0307 -2.2964  0.6894
 5346TIP3    H237454   2.796   5.852   6.429 -0.7320  0.7951 -0.6642
 5347TIP3   OH237455   0.916   0.818  12.770  0.0246 -0.0409 -0.0922
 5347TIP3    H137456   0.923   0.729  12.804  1.5147  0.4487  0.9986
 5347TIP3    H237457   0.929   0.808  12.676 -3.2612 -1.3152 -0.5578
 5348TIP3   OH237458   2.701   5.862  11.638 -0.9369 -0.6707  0.6134
 5348TIP3    H137459   2.638   5.822  11.698 -1.3514 -2.3073 -0.8630
 5348TIP3    H237460   2.727   5.792  11.580  1.1094  0.3606  0.2028
 5349TIP3   OH237461   1.436   0.940   1.777  0.0717 -0.6307  0.8238
 5349TIP3    H137462   1.461   0.897   1.695  0.1815 -1.3379  1.2276
 5349TIP3    H237463   1.347   0.972   1.761  0.8194  1.0693 -0.2898
 5350TIP3   OH237464   1.666   0.756  14.423  0.2019 -0.5468 -0.0134
 5350TIP3    H137465   1.621   0.727  14.503 -0.0618 -2.4056 -0.7764
 5350TIP3    H237466   1.721   0.682  14.399  1.0009  0.3563 -1.0477
 5351TIP3   OH237467   0.848   2.576   1.894 -0.0529  0.2662  0.3589
 5351TIP3    H137468   0.795   2.534   1.961 -0.4965  0.8129  0.3500
 5351TIP3    H237469   0.938   2.561   1.922 -0.2365  1.5357  1.7332
 5352TIP3   OH237470   3.396   1.219   0.887  0.2756 -0.2362  0.0305
 5352TIP3    H137471   3.455   1.207   0.962 -1.4573  0.6980  1.6352
 5352TIP3    H237472   3.428   1.298   0.844  1.1920 -0.6909 -0.1506
 5353TIP3   OH237473   4.520   6.078  12.787 -0.2277 -0.3730  0.4755
 5353TIP3    H137474   4.480   6.001  12.746  0.1590 -0.7792  0.8416
 5353TIP3    H237475   4.583   6.041  12.850  1.4959  0.2128 -0.8046
 5354TIP3   OH237476   0.222   0.896   2.284 -0.3969  0.1893  0.0919
 5354TIP3    H137477   0.174   0.932   2.359  1.0090  0.8044  0.7374
 5354TIP3    H237478   0.229   0.970   2.223  1.0627  0.5893  0.6984
 5355TIP3   OH237479   4.980   4.297  13.269 -0.7437  0.4419 -0.3967
 5355TIP3    H137480   4.969   4.384  13.230 -0.7089  0.5191 -0.2354
 5355TIP3    H237481   4.905   4.288  13.328 -0.7335  0.3708 -0.3944
 5356TIP3   OH237482   3.430   2.041   3.662  0.1542 -0.2270  0.3095
 5356TIP3    H137483   3.493   1.987   3.710 -0.5521 -0.7334  0.6831
 5356TIP3    H237484   3.361   2.060   3.726  0.3148  1.0062  0.1442
 5357TIP3   OH237485   1.033   5.612   1.800  0.7615  0.3147  0.4236
 5357TIP3    H137486   1.104   5.623   1.737  1.3436 -1.1980  0.7690
 5357TIP3    H237487   0.977   5.688   1.786  0.6358 -0.1714 -2.1904
 5358TIP3   OH237488   5.734   1.032   1.215 -0.0104  0.1247 -0.3983
 5358TIP3    H137489   5.757   1.030   1.308  0.3151 -4.0910 -0.3675
 5358TIP3    H237490   5.678   1.109   1.205  1.5778  1.9032  2.7787
 5359TIP3   OH237491   2.456   1.548   2.407  0.2935  0.3000  0.0411
 5359TIP3    H137492   2.394   1.533   2.478 -0.0355  0.0853 -0.2893
 5359TIP3    H237493   2.425   1.492   2.335 -0.1471  1.4801 -0.7294
 5360TIP3   OH237494   2.647   2.576  14.084 -0.3168  0.0793  0.5362
 5360TIP3    H137495   2.611   2.491  14.058  0.5989 -0.2046  0.1685
 5360TIP3    H237496   2.730   2.583  14.036  0.3606  0.5048  1.7225
 5361TIP3   OH237497   5.107   6.086   5.081 -0.0517 -0.3718 -0.6165
 5361TIP3    H137498   5.163   6.013   5.107  0.1346 -0.1719 -0.4551
 5361TIP3    H237499   5.023   6.068   5.123 -0.0746 -0.6066 -0.7571
 5362TIP3   OH237500   1.831   1.337   1.351 -0.2701 -0.7230  0.2199
 5362TIP3    H137501   1.862   1.427   1.342  1.0716 -1.3184 -1.6564
 5362TIP3    H237502   1.886   1.299   1.419  0.6744 -0.7361 -0.5406
 5363TIP3   OH237503   0.218   0.573  14.331 -0.1207  0.2893 -0.4978
 5363TIP3    H137504   0.188   0.601  14.244  1.1638  2.9816 -0.1808
 5363TIP3    H237505   0.307   0.608  14.338  0.9461 -2.3980  0.8294
 5364TIP3   OH237506   5.067   3.082  14.737  0.0805 -0.7821 -0.4288
 5364TIP3    H137507   5.114   3.088  14.821  0.6210  0.6885 -0.8223
 5364TIP3    H237508   5.040   3.171  14.718 -2.1379 -1.4350 -0.6798
 5365TIP3   OH237509   6.009   4.977   1.867 -0.3524  0.0047 -0.3433
 5365TIP3    H137510   6.086   5.027   1.891 -1.1845  0.3863  1.7168
 5365TIP3    H237511   5.956   5.038   1.815  0.5924 -0.2092 -1.6230
 5366TIP3   OH237512   2.900   5.915  16.734  0.1060  0.0151  0.3198
 5366TIP3    H137513   2.844   5.983  16.772 -0.3748  0.2330 -0.7364
 5366TIP3    H237514   2.981   5.921  16.784 -1.0303 -0.8309  2.4388
 5367TIP3   OH237515   5.725   0.440  16.301 -0.1463 -0.2901 -0.1889
 5367TIP3    H137516   5.764   0.377  16.361 -0.5378  0.9479  1.4296
 5367TIP3    H237517   5.631   0.424  16.307 -0.2223  0.1837 -0.0473
 5368TIP3   OH237518   4.872   3.307  15.340 -0.3094  0.0885  0.4257
 5368TIP3    H137519   4.856   3.221  15.301  0.0070  0.0649  0.3463
 5368TIP3    H237520   4.956   3.335  15.303  1.1420 -0.9075  2.7387
 5369TIP3   OH237521   0.754   3.868   2.325  0.5932  0.4106  0.5666
 5369TIP3    H137522   0.715   3.793   2.370  1.4391 -1.1745 -1.2031
 5369TIP3    H237523   0.711   3.944   2.363 -1.0783 -1.0253  1.6885
 5370TIP3   OH237524   2.779   5.022  12.841  0.0452  0.0695  0.3410
 5370TIP3    H137525   2.711   4.982  12.787 -1.0128  1.4793  0.5717
 5370TIP3    H237526   2.820   5.087  12.783  1.5301 -1.0643  0.0619
 5371TIP3   OH237527   2.435   2.713   6.548 -0.2450 -0.3583  0.0133
 5371TIP3    H137528   2.368   2.744   6.608  0.0195 -3.8943  2.4623
 5371TIP3    H237529   2.507   2.776   6.557 -1.4862  1.0123  0.7799
 5372TIP3   OH237530   0.241   1.070   2.883  0.2931  0.3745 -0.1893
 5372TIP3    H137531   0.184   1.086   2.808  0.4261 -0.6550 -0.5286
 5372TIP3    H237532   0.291   0.992   2.859 -0.0346 -0.2824  1.1712
 5373TIP3   OH237533   2.407   5.991   2.666 -0.2840  0.1088  0.8987
 5373TIP3    H137534   2.495   6.012   2.696 -0.1637 -0.1664  0.7417
 5373TIP3    H237535   2.381   5.916   2.719 -0.0866 -0.3542  0.3556
 5374TIP3   OH237536   3.959   0.951   2.626 -0.1500  0.0866  0.1732
 5374TIP3    H137537   3.980   1.010   2.553  0.3027  0.8319  0.8853
 5374TIP3    H237538   3.869   0.925   2.610  0.9617 -2.6023 -2.5652
 5375TIP3   OH237539   5.172   4.987  15.814 -0.1388 -0.2711 -0.0010
 5375TIP3    H137540   5.188   5.081  15.802  1.2858 -0.5618 -0.6452
 5375TIP3    H237541   5.151   4.956  15.726 -1.9178 -0.3732  0.4126
 5376TIP3   OH237542   5.113   4.473   5.757 -0.5897 -0.3459 -0.2614
 5376TIP3    H137543   5.093   4.565   5.773  0.3690 -0.0680 -0.6330
 5376TIP3    H237544   5.080   4.428   5.835  0.2733  0.4924  0.6174
 5377TIP3   OH237545   6.480   1.682  11.214 -0.1406 -0.0092  0.3259
 5377TIP3    H137546   6.448   1.592  11.206  2.8718 -1.1098 -0.8297
 5377TIP3    H237547   6.435   1.730  11.144  0.3072 -1.3529 -0.9336
 5378TIP3   OH237548   5.532   2.748  13.065  0.2226 -0.1293  0.5272
 5378TIP3    H137549   5.588   2.752  13.142  0.0075 -0.6242  0.7161
 5378TIP3    H237550   5.519   2.654  13.050 -0.0592 -0.0288  0.1269
 5379TIP3   OH237551   3.436   0.567  14.217 -0.2611  0.4538 -0.0732
 5379TIP3    H137552   3.350   0.530  14.240 -0.9886  1.4974 -1.0453
 5379TIP3    H237553   3.462   0.616  14.295 -1.6273  2.0133 -0.5373
 5380TIP3   OH237554   2.756   0.952  13.722  0.2039  0.1777 -0.1056
 5380TIP3    H137555   2.761   1.044  13.697 -1.3242  0.7409  1.4344
 5380TIP3    H237556   2.663   0.930  13.714 -0.3553  0.2218  4.0002
 5381TIP3   OH237557   0.610   4.986   2.535  0.5418 -0.3823  0.1223
 5381TIP3    H137558   0.623   4.961   2.444  0.9125  1.8569 -0.4914
 5381TIP3    H237559   0.563   4.912   2.574 -0.6528 -0.8990 -2.1478
 5382TIP3   OH237560   2.923   1.953   3.542  0.1254 -0.7367 -0.4776
 5382TIP3    H137561   3.007   1.908   3.553  0.2067 -0.5242 -0.1871
 5382TIP3    H237562   2.927   2.026   3.605 -0.4983 -1.0502 -0.0619
 5383TIP3   OH237563   4.801   2.700  16.952  0.2731 -0.0438  0.2057
 5383TIP3    H137564   4.757   2.648  17.019 -1.0585 -0.0377 -0.6321
 5383TIP3    H237565   4.839   2.773  17.000 -3.4954  1.8506  0.6850
 5384TIP3   OH237566   3.565   5.834   0.650  0.0576 -0.2327 -0.1528
 5384TIP3    H137567   3.496   5.784   0.606  1.1069 -1.0790 -0.8789
 5384TIP3    H237568   3.590   5.901   0.586 -1.0674  1.0310  0.6650
 5385TIP3   OH237569   5.064   2.438   2.334  0.3583  0.0418 -0.3274
 5385TIP3    H137570   5.094   2.349   2.319  0.3576  0.0077 -0.1352
 5385TIP3    H237571   5.107   2.464   2.416  0.4164  0.2420 -0.4209
 5386TIP3   OH237572   2.519   3.678  17.135  0.1488  0.0362 -0.1027
 5386TIP3    H137573   2.614   3.685  17.141  0.1764 -1.4276  2.9199
 5386TIP3    H237574   2.498   3.595  17.178 -2.3682 -1.0104 -2.9613
 5387TIP3   OH237575   4.033   6.646  13.710 -0.3296  0.2924  0.2936
 5387TIP3    H137576   3.986   6.682  13.785 -2.3736 -2.5117  0.5418
 5387TIP3    H237577   4.018   6.552  13.715  2.2404 -0.3800 -1.8429
 5388TIP3   OH237578   5.927   5.557   4.056  0.3740  0.0271  0.2842
 5388TIP3    H137579   5.971   5.617   3.997  1.5831 -0.3936  0.7362
 5388TIP3    H237580   5.978   5.560   4.137 -1.7575  1.2825  1.6719
 5389TIP3   OH237581   4.857   0.857   0.693  0.1293 -0.1596  0.3751
 5389TIP3    H137582   4.917   0.814   0.631 -1.1212 -0.3515 -0.7350
 5389TIP3    H237583   4.789   0.895   0.638  0.5628  2.2895  1.4145
 5390TIP3   OH237584   0.952   2.451   5.970 -0.0571 -0.1241  0.0602
 5390TIP3    H137585   1.016   2.395   6.014 -0.8567 -1.7551 -0.7760
 5390TIP3    H237586   0.984   2.459   5.880 -0.8741 -0.7609 -0.3020
 5391TIP3   OH237587   1.273   4.414   2.845  0.5701  0.1288 -0.0333
 5391TIP3    H137588   1.261   4.468   2.767 -0.4977  1.0192  0.7072
 5391TIP3    H237589   1.368   4.401   2.851  1.1543  3.6491  0.8381
 5392TIP3   OH237590   6.665   3.922  12.498  0.1600 -0.7067 -0.1195
 5392TIP3    H137591   6.632   3.833  12.482  1.3935 -1.2936  0.4823
 5392TIP3    H237592   6.724   3.939  12.426 -0.3611 -0.2090 -0.4379
 5393TIP3   OH237593   4.978   5.707   1.385  0.4252 -0.5331  0.0485
 5393TIP3    H137594   5.016   5.672   1.465  1.5021 -1.4392 -0.8166
 5393TIP3    H237595   4.959   5.629   1.332  0.8461  0.0856 -1.0533
 5394TIP3   OH237596   2.329   2.616   3.905  0.6069  0.7607 -0.3191
 5394TIP3    H137597   2.369   2.639   3.988  0.1797  1.4983 -0.3110
 5394TIP3    H237598   2.234   2.621   3.921  0.5135  0.0453 -0.6111
 5395TIP3   OH237599   2.077   6.646  12.060  0.2525  0.1477  0.4173
 5395TIP3    H137600   2.157   6.638  12.112 -0.7299 -1.1147  1.8189
 5395TIP3    H237601   2.087   6.580  11.991  0.7309  0.5280  0.1089
 5396TIP3   OH237602   6.130   1.881   3.488 -0.1664 -0.8895  0.1500
 5396TIP3    H137603   6.042   1.919   3.485  0.2457  0.0420 -1.3939
 5396TIP3    H237604   6.116   1.790   3.512 -1.5707 -0.7854 -0.1664
 5397TIP3   OH237605   3.984   5.258   1.313  0.4507 -0.1400 -0.5698
 5397TIP3    H137606   3.910   5.214   1.270  1.0384 -2.5148  0.6537
 5397TIP3    H237607   3.965   5.251   1.406  0.8959  1.7618 -0.3043
 5398TIP3   OH237608   0.895   5.692  12.641 -0.1021  0.5640  0.1400
 5398TIP3    H137609   0.847   5.738  12.709 -4.2982 -0.5791 -1.7495
 5398TIP3    H237610   0.906   5.757  12.571 -0.0941  0.4720  0.0550
 5399TIP3   OH237611   0.006   5.289   5.263 -0.1269  0.0521  0.2561
 5399TIP3    H137612  -0.030   5.338   5.189 -2.6941 -0.0680  1.3145
 5399TIP3    H237613  -0.007   5.197   5.239 -1.5880  0.0207  1.0972
 5400TIP3   OH237614   4.481   4.335  16.875  0.4186 -0.0781  0.5600
 5400TIP3    H137615   4.567   4.328  16.835  0.3763  0.8006  0.3159
 5400TIP3    H237616   4.442   4.248  16.863  0.8265 -0.1465 -0.3210
 5401TIP3   OH237617   5.750   1.032   2.982 -0.2814 -0.0134 -0.4315
 5401TIP3    H137618   5.821   0.980   2.945 -2.6137 -2.1639 -2.2745
 5401TIP3    H237619   5.729   1.096   2.914  0.1780  0.9361  0.3050
 5402TIP3   OH237620   3.771   0.790  15.150  0.0232 -0.1161 -0.1332
 5402TIP3    H137621   3.723   0.869  15.176 -1.4808 -0.5952 -1.3100
 5402TIP3    H237622   3.862   0.819  15.143 -0.4571  1.4479 -0.2686
 5403TIP3   OH237623   3.081   0.599   2.641  0.6515 -0.5907 -0.2411
 5403TIP3    H137624   3.102   0.530   2.579 -0.9453 -0.4207 -1.0258
 5403TIP3    H237625   3.154   0.660   2.635  2.0267 -2.1078  0.3705
 5404TIP3   OH237626   6.301   4.236  13.124 -0.6799  0.0433  0.2101
 5404TIP3    H137627   6.282   4.183  13.201 -0.5528  0.6955  0.6978
 5404TIP3    H237628   6.396   4.249  13.127 -0.5850 -0.4572 -0.4076
 5405TIP3   OH237629   4.798   6.651  11.413  0.3486  0.5438 -0.2799
 5405TIP3    H137630   4.808   6.733  11.461 -0.6385 -0.8288  2.4980
 5405TIP3    H237631   4.880   6.604  11.427 -0.8577 -0.9614  2.5326
 5406TIP3   OH237632   6.681   5.211  15.291  0.2308  0.3341  0.3289
 5406TIP3    H137633   6.613   5.151  15.260  0.5458 -0.9932  2.0637
 5406TIP3    H237634   6.760   5.182  15.246  0.7163 -1.6832  2.2973
 5407TIP3   OH237635   4.219   4.906   3.297  0.1896 -0.1650  0.0513
 5407TIP3    H137636   4.301   4.942   3.263  1.1329 -1.8947  0.3955
 5407TIP3    H237637   4.239   4.815   3.317 -2.0786 -0.9031 -0.7158
 5408TIP3   OH237638   1.295   0.860   3.750 -0.1448  0.7715 -0.1648
 5408TIP3    H137639   1.274   0.886   3.839 -1.1181  0.7754 -0.3865
 5408TIP3    H237640   1.217   0.883   3.699  0.6483  1.3848 -1.1430
 5409TIP3   OH237641   2.178   3.249   0.698 -0.2963 -0.0122 -0.4287
 5409TIP3    H137642   2.140   3.333   0.724  0.0183  0.3389 -1.0706
 5409TIP3    H237643   2.272   3.260   0.714 -0.5115 -1.2554  2.2051
 5410TIP3   OH237644   3.571   4.792   1.094 -0.5287 -0.8656  0.6672
 5410TIP3    H137645   3.522   4.794   1.176 -1.5641 -1.8464  0.0989
 5410TIP3    H237646   3.653   4.838   1.114  0.2227 -2.9278  2.9022
 5411TIP3   OH237647   2.242   1.188   2.703  0.1543  0.3649  0.6381
 5411TIP3    H137648   2.285   1.176   2.787  3.4306  1.7709 -0.6851
 5411TIP3    H237649   2.298   1.141   2.641 -1.5576  0.2929 -0.9325
 5412TIP3   OH237650   3.140   0.623  12.388  0.3953  0.5592 -0.3392
 5412TIP3    H137651   3.126   0.717  12.399  0.6687  0.5684 -0.0528
 5412TIP3    H237652   3.205   0.617  12.317  0.9648  0.6184  0.1710
 5413TIP3   OH237653   6.705   1.982  12.518 -0.2936  0.2738  0.8069
 5413TIP3    H137654   6.637   1.915  12.531  0.3039 -0.4158  0.4883
 5413TIP3    H237655   6.744   1.960  12.434 -0.6767  1.5825  0.2598
 5414TIP3   OH237656   1.631   0.825   4.892 -0.0100  0.3688  0.3661
 5414TIP3    H137657   1.599   0.789   4.974 -0.9450  1.1937  0.3931
 5414TIP3    H237658   1.565   0.891   4.868  1.5048  1.8779  0.2084
 5415TIP3   OH237659   3.673   0.387   4.847 -0.1234  0.0743 -0.0112
 5415TIP3    H137660   3.633   0.443   4.914 -0.4035  1.0908 -0.9990
 5415TIP3    H237661   3.643   0.298   4.869 -1.0751  0.5315  0.5985
 5416TIP3   OH237662   3.084   6.133   2.469 -0.1150 -0.7577  0.4312
 5416TIP3    H137663   3.135   6.089   2.538 -0.5924 -0.4209  1.0034
 5416TIP3    H237664   3.045   6.062   2.420 -0.4813 -0.9912  1.0497
 5417TIP3   OH237665   1.513   0.707  13.871 -0.4530  0.3689  0.1239
 5417TIP3    H137666   1.574   0.636  13.852 -0.6797  0.6128 -1.7384
 5417TIP3    H237667   1.539   0.777  13.810 -0.9118  1.4902  1.1703
 5418TIP3   OH237668   5.651   6.700  13.182  0.2133 -0.0810 -0.7191
 5418TIP3    H137669   5.581   6.751  13.225  0.3103  0.7441 -1.5154
 5418TIP3    H237670   5.700   6.765  13.131  0.7290 -0.8808 -1.2560
 5419TIP3   OH237671   1.995   1.786   3.023 -0.2532  0.1030 -0.4562
 5419TIP3    H137672   2.085   1.779   3.056 -0.2204  0.0909 -0.5467
 5419TIP3    H237673   1.954   1.704   3.049 -0.2766  0.1649 -0.2991
 5420TIP3   OH237674   4.113   6.655  15.324 -0.2941 -0.8412 -0.5417
 5420TIP3    H137675   4.073   6.722  15.268 -0.2008 -0.3545 -0.0267
 5420TIP3    H237676   4.063   6.576  15.305 -0.1591 -0.7246 -1.4384
 5421TIP3   OH237677   4.184   1.382   1.588 -0.0257  0.3038 -0.2886
 5421TIP3    H137678   4.249   1.452   1.594 -0.5947  0.8725 -0.5820
 5421TIP3    H237679   4.198   1.328   1.665  0.4346  0.7350 -0.0706
 5422TIP3   OH237680   1.733   4.416  11.442  0.2718  0.1501 -0.0231
 5422TIP3    H137681   1.662   4.467  11.481  0.0032  0.1585 -0.5142
 5422TIP3    H237682   1.789   4.393  11.516 -0.1829  0.2358  0.3563
 5423TIP3   OH237683   0.227   1.313   0.680  0.0561 -0.0120  0.2275
 5423TIP3    H137684   0.275   1.266   0.611 -1.4044 -0.0134 -0.8438
 5423TIP3    H237685   0.176   1.379   0.633  1.7729  2.5126  1.6608
 5424TIP3   OH237686   5.178   5.999   1.764  0.7916 -0.2179  0.1584
 5424TIP3    H137687   5.229   6.033   1.691  1.0392 -0.6842  0.1118
 5424TIP3    H237688   5.145   6.077   1.809 -0.3128  0.0886 -1.1141
 5425TIP3   OH237689   2.437   6.455  11.626 -0.5893  1.1929  0.0368
 5425TIP3    H137690   2.489   6.434  11.548 -1.6483 -0.4675 -0.2915
 5425TIP3    H237691   2.494   6.508  11.680  0.2460  2.2294 -1.7866
 5426TIP3   OH237692   0.087   3.263   3.930  0.3440 -0.0212  0.3796
 5426TIP3    H137693   0.165   3.317   3.916 -0.1715  0.6668  0.0843
 5426TIP3    H237694   0.025   3.322   3.974  0.4714 -0.9678  1.8815
 5427TIP3   OH237695   2.074   4.499   1.560 -0.4201 -1.0719  0.6080
 5427TIP3    H137696   2.148   4.461   1.609 -0.5369 -2.0209  0.0824
 5427TIP3    H237697   2.026   4.423   1.527 -2.0327 -0.4913  1.4962
 5428TIP3   OH237698   3.791   4.935  13.848  0.6129  0.1753 -0.2877
 5428TIP3    H137699   3.713   4.959  13.899  0.2904  3.3184 -1.9652
 5428TIP3    H237700   3.864   4.944  13.910 -0.1528 -1.0088  0.8356
 5429TIP3   OH237701   5.648   4.696   0.410 -0.9327  0.1473  0.5214
 5429TIP3    H137702   5.619   4.650   0.332  0.5222  0.2018 -0.0936
 5429TIP3    H237703   5.573   4.749   0.437 -1.2255  0.7046 -1.2768
 5430TIP3   OH237704   0.543   0.258   0.551  0.1293  0.7666  0.4780
 5430TIP3    H137705   0.540   0.343   0.509 -0.8362  0.9359  0.8686
 5430TIP3    H237706   0.489   0.268   0.630  0.9487  0.1286  1.1476
 5431TIP3   OH237707   1.292   0.655  11.575  0.0834 -0.4842 -0.1525
 5431TIP3    H137708   1.233   0.711  11.524  0.9951  0.4866 -0.1570
 5431TIP3    H237709   1.247   0.645  11.659 -0.1797  0.1012 -0.2164
 5432TIP3   OH237710   5.107   1.777   0.056  0.2009  0.1141  0.1345
 5432TIP3    H137711   5.187   1.808   0.098 -0.0775  1.5378 -0.3416
 5432TIP3    H237712   5.055   1.740   0.127  0.6642  0.4989  0.6819
 5433TIP3   OH237713   6.083   1.497  10.988  0.1081 -0.0474  0.6176
 5433TIP3    H137714   6.175   1.503  10.961 -0.5036 -1.9153 -2.4191
 5433TIP3    H237715   6.050   1.420  10.942 -3.0513  0.6726  1.4556
 5434TIP3   OH237716   6.752   2.101   5.610 -0.3636  0.0516 -0.1978
 5434TIP3    H137717   6.823   2.040   5.630  0.7009  0.8541 -1.3640
 5434TIP3    H237718   6.673   2.046   5.610  0.5397 -1.3397 -1.1526
 5435TIP3   OH237719   0.712   4.718  16.116  0.6722 -0.4363 -0.6709
 5435TIP3    H137720   0.701   4.628  16.086  1.4847 -0.9396  0.4676
 5435TIP3    H237721   0.682   4.772  16.042 -0.3305 -1.6230 -1.1604
 5436TIP3   OH237722   4.902   6.295   6.198  0.7539 -0.2812 -0.0451
 5436TIP3    H137723   4.977   6.285   6.140 -0.0114 -2.1625 -0.7724
 5436TIP3    H237724   4.891   6.210   6.240 -0.6893  0.0938  0.4142
 5437TIP3   OH237725   5.301   2.054   0.622  0.2875 -0.3458 -0.6096
 5437TIP3    H137726   5.250   2.101   0.688  2.1875  1.7320 -0.4970
 5437TIP3    H237727   5.343   1.983   0.671  1.1575  0.7732  0.3233
 5438TIP3   OH237728   0.280   5.039  12.173  0.1636 -0.0609 -0.2180
 5438TIP3    H137729   0.362   5.030  12.124  1.2246  0.8045  1.3096
 5438TIP3    H237730   0.213   5.052  12.106  1.6504  1.7652 -1.4467
 5439TIP3   OH237731   5.284   5.911   3.330  0.0374 -0.7977  0.3020
 5439TIP3    H137732   5.310   5.939   3.417  0.1787 -1.4145  0.4679
 5439TIP3    H237733   5.212   5.850   3.344  0.6856 -1.6439  0.0627
 5440TIP3   OH237734   2.601   6.114   4.331 -0.1515  0.4058 -0.0628
 5440TIP3    H137735   2.596   6.187   4.393 -2.9478  1.3240 -1.1907
 5440TIP3    H237736   2.578   6.037   4.383 -0.2198  0.8140  0.5260
 5441TIP3   OH237737   3.001   4.617  15.490 -0.2230 -0.0179 -0.0423
 5441TIP3    H137738   3.045   4.672  15.424  0.9914 -2.1247 -1.1167
 5441TIP3    H237739   3.073   4.578  15.540 -1.0421 -0.5997  0.7058
 5442TIP3   OH237740   4.045   0.028   4.587  0.1730  0.2618 -0.4533
 5442TIP3    H137741   3.962   0.030   4.634  1.7481  0.7998  2.5506
 5442TIP3    H237742   4.043   0.107   4.533 -1.1736  0.3929 -0.2480
 5443TIP3   OH237743   1.711   4.914  16.969  0.0491  0.2183  0.0193
 5443TIP3    H137744   1.749   4.827  16.960 -0.2410 -0.0274  1.0216
 5443TIP3    H237745   1.749   4.949  17.050 -1.0341  0.3749  0.4832
 5444TIP3   OH237746   1.784   0.066  13.890 -0.1450 -0.2641  0.4324
 5444TIP3    H137747   1.776   0.107  13.804 -0.0518 -0.7456  0.1936
 5444TIP3    H237748   1.721  -0.006  13.888 -1.4140  0.7758  1.3984
 5445TIP3   OH237749   5.907   4.980  14.678  0.1762  0.2007  0.4152
 5445TIP3    H137750   5.866   5.065  14.696 -0.6940  0.0303 -0.6740
 5445TIP3    H237751   5.875   4.956  14.591  1.2935 -0.7335  0.2470
 5446TIP3   OH237752   1.241   5.609   1.562 -0.0702 -0.1403  0.2177
 5446TIP3    H137753   1.204   5.606   1.474 -3.8803 -0.2668  1.6316
 5446TIP3    H237754   1.260   5.517   1.583  0.4581 -0.1564 -0.3221
 5447TIP3   OH237755   2.466   6.635   3.221  0.2687 -0.2416  0.4029
 5447TIP3    H137756   2.525   6.590   3.160 -0.2273 -0.7750  0.3177
 5447TIP3    H237757   2.452   6.721   3.181  0.5557 -0.3064  0.1558
 5448TIP3   OH237758   0.652   2.609   5.273 -0.4431  0.2581  0.2311
 5448TIP3    H137759   0.709   2.546   5.318  1.7354  1.5301 -0.5787
 5448TIP3    H237760   0.681   2.695   5.305 -0.6941  1.0435 -1.4949
 5449TIP3   OH237761   2.106   0.730  13.823  0.2571 -0.3801  0.5062
 5449TIP3    H137762   2.021   0.728  13.867  0.9114 -0.9442  1.7937
 5449TIP3    H237763   2.148   0.648  13.850  1.1858 -0.1348 -0.1790
 5450TIP3   OH237764   5.326   6.150  13.756 -0.1250 -0.2197 -0.0811
 5450TIP3    H137765   5.388   6.132  13.686  1.1054  0.0588  0.9124
 5450TIP3    H237766   5.349   6.089  13.826 -1.0393 -0.1841  0.2690
 5451TIP3   OH237767   5.421   1.324  15.903  0.4955 -0.0955  0.0440
 5451TIP3    H137768   5.361   1.274  15.959 -0.8073  0.3208 -0.9225
 5451TIP3    H237769   5.414   1.414  15.934  1.3698 -0.1852  0.5370
 5452TIP3   OH237770   5.641   3.781   2.378  0.3682  0.2103  0.0048
 5452TIP3    H137771   5.562   3.808   2.330  0.3462 -0.5927 -0.4185
 5452TIP3    H237772   5.654   3.851   2.442  0.5284  1.4383 -1.3169
 5453TIP3   OH237773   5.717   6.618  17.069 -0.0144 -0.2449 -0.2188
 5453TIP3    H137774   5.659   6.543  17.050 -0.1576 -0.2266  0.1485
 5453TIP3    H237775   5.665   6.695  17.045 -0.8044 -0.1298  1.7211
 5454TIP3   OH237776   5.292   2.291   3.938 -0.0562 -0.8989 -0.3664
 5454TIP3    H137777   5.290   2.252   4.026 -0.4277  0.7907  0.4167
 5454TIP3    H237778   5.280   2.217   3.879  1.2055 -2.2327  0.9489
 5455TIP3   OH237779   5.643   4.568  12.168 -0.2403  0.0735 -0.2155
 5455TIP3    H137780   5.703   4.636  12.139 -0.8244  0.0362 -1.5947
 5455TIP3    H237781   5.600   4.605  12.245  0.2731  0.7927 -0.2595
 5456TIP3   OH237782   0.679   0.979  12.817 -0.0699  0.2637  0.2097
 5456TIP3    H137783   0.719   1.063  12.794  0.9451 -0.0180  0.8754
 5456TIP3    H237784   0.740   0.913  12.782  0.4120 -0.1784  1.8131
 5457TIP3   OH237785   0.429   1.808  17.281 -0.1174 -0.1656  0.4030
 5457TIP3    H137786   0.504   1.860  17.309 -0.7151 -0.1057  2.0095
 5457TIP3    H237787   0.429   1.734  17.341 -0.7101 -0.7505 -0.3043
 5458TIP3   OH237788   4.387   1.869  13.958  0.4930 -0.3220 -0.6404
 5458TIP3    H137789   4.367   1.920  14.037  0.2153 -1.4221  0.0271
 5458TIP3    H237790   4.304   1.867  13.910  0.1191 -1.2919  0.0199
 5459TIP3   OH237791   3.926   0.226  13.570 -0.1489 -0.1276 -0.1580
 5459TIP3    H137792   3.988   0.221  13.642 -1.4570  0.8796  1.0888
 5459TIP3    H237793   3.970   0.180  13.498  1.5901 -0.3282  0.9629
 5460TIP3   OH237794   2.191   3.101   5.605  0.2230 -1.1554 -0.0302
 5460TIP3    H137795   2.127   3.112   5.676  1.0299  0.7254  0.4699
 5460TIP3    H237796   2.153   3.034   5.549 -1.5490 -1.0511  0.9712
 5461TIP3   OH237797   0.253   6.330   1.045 -0.5620  0.2729 -0.0063
 5461TIP3    H137798   0.345   6.351   1.062 -0.7207 -0.1735  1.5333
 5461TIP3    H237799   0.227   6.391   0.975  1.4585 -1.0170 -1.9979
 5462TIP3   OH237800   1.258   2.866   1.520 -0.5176 -0.1052  0.2186
 5462TIP3    H137801   1.228   2.834   1.606 -1.4391  0.5393  0.1524
 5462TIP3    H237802   1.343   2.905   1.538 -1.1737  1.0252  1.0867
 5463TIP3   OH237803   0.431   5.298   0.311 -0.5328 -0.7344  0.0238
 5463TIP3    H137804   0.440   5.254   0.395  0.4131 -0.1508  0.2450
 5463TIP3    H237805   0.365   5.247   0.264 -1.1765 -0.9799  1.1613
 5464TIP3   OH237806   4.744   6.622   2.375  0.1336  0.0638 -0.1870
 5464TIP3    H137807   4.653   6.612   2.347  0.4538 -2.1854 -0.6771
 5464TIP3    H237808   4.757   6.552   2.439  0.9507  1.7085  1.5280
 5465TIP3   OH237809   6.340   5.440  13.652 -0.5305 -0.0627  0.5367
 5465TIP3    H137810   6.343   5.369  13.588  2.0842 -1.1576  1.6756
 5465TIP3    H237811   6.349   5.520  13.601  0.8516 -0.8634 -0.5561
 5466TIP3   OH237812   3.421   1.020   1.531 -0.0903  0.1426 -0.0125
 5466TIP3    H137813   3.379   1.031   1.616  0.8524 -0.0526  0.4874
 5466TIP3    H237814   3.431   0.925   1.521 -2.4798 -0.0472 -1.4951
 5467TIP3   OH237815   1.712   3.538   2.636  0.7858  0.1799  0.0910
 5467TIP3    H137816   1.696   3.528   2.542 -1.2655  0.0242  0.4047
 5467TIP3    H237817   1.629   3.511   2.677  1.5488  0.5104  1.9266
 5468TIP3   OH237818   6.538   2.182   4.901  0.7476 -0.3052  0.6078
 5468TIP3    H137819   6.603   2.251   4.913 -0.1878  0.8048 -0.4562
 5468TIP3    H237820   6.524   2.179   4.806 -1.0248 -0.2344  0.8342
 5469TIP3   OH237821   0.372   0.839   5.598  1.1743  0.0365 -0.7488
 5469TIP3    H137822   0.355   0.891   5.677  1.5522 -0.0246 -0.6251
 5469TIP3    H237823   0.390   0.903   5.530 -0.9899  0.1832 -1.2606
 5470TIP3   OH237824   0.002   0.804  12.268 -0.0323 -0.2549 -0.1307
 5470TIP3    H137825   0.072   0.833  12.210  0.5065  0.0864  0.6655
 5470TIP3    H237826  -0.031   0.724  12.228  1.3005 -0.8230 -0.1611
 5471TIP3   OH237827   2.299   4.829  15.840 -0.2250 -0.4959 -0.4248
 5471TIP3    H137828   2.314   4.907  15.893 -0.2257  1.2781 -2.8828
 5471TIP3    H237829   2.377   4.776  15.854 -0.0314  0.1022  0.9782
 5472TIP3   OH237830   2.550   2.544   1.769  0.3144 -0.2509 -0.2601
 5472TIP3    H137831   2.582   2.587   1.848 -1.2502 -0.6592  0.6389
 5472TIP3    H237832   2.456   2.533   1.784  0.0980 -0.9388 -1.9021
 5473TIP3   OH237833   0.790   0.427   5.191 -0.5197  0.5418  0.7973
 5473TIP3    H137834   0.757   0.468   5.112 -0.1826 -1.8747 -0.6992
 5473TIP3    H237835   0.881   0.456   5.198  1.1191 -2.9276 -2.6470
 5474TIP3   OH237836   1.027   1.225   5.575  0.0437  0.0028  0.8761
 5474TIP3    H137837   0.957   1.258   5.519  0.8511 -0.8185 -0.6900
 5474TIP3    H237838   1.036   1.133   5.550  2.6712  0.4331 -0.1013
 5475TIP3   OH237839   4.398   3.676  12.006 -0.3631  0.0152  0.6631
 5475TIP3    H137840   4.452   3.739  12.053  1.1183 -0.6940 -0.0167
 5475TIP3    H237841   4.377   3.609  12.071  2.2901 -1.3504  0.2865
 5476TIP3   OH237842   1.193   1.764   2.900  0.0636 -0.1581 -0.1181
 5476TIP3    H137843   1.265   1.701   2.901  2.1184  2.0501  1.0662
 5476TIP3    H237844   1.223   1.833   2.840 -0.0761  1.7729  1.8953
 5477TIP3   OH237845   5.995   0.165   3.867  0.8685 -1.0229  0.1973
 5477TIP3    H137846   6.055   0.240   3.872  1.9634 -1.9683  2.2988
 5477TIP3    H237847   6.006   0.132   3.777  0.0993  1.4594 -0.9125
 5478TIP3   OH237848   4.160   0.246   4.442  0.0473  0.3320  0.3612
 5478TIP3    H137849   4.129   0.336   4.449 -1.8615 -0.3876  2.9746
 5478TIP3    H237850   4.255   0.252   4.449  0.4545  2.3390 -3.8021
 5479TIP3   OH237851   6.456   4.111  15.367 -0.0211 -0.3525 -0.0445
 5479TIP3    H137852   6.474   4.025  15.404  1.5956 -0.0330  0.0087
 5479TIP3    H237853   6.382   4.097  15.308  2.2679 -2.5504 -2.6584
 5480TIP3   OH237854   5.083   6.536   2.491 -0.4140 -0.3581 -0.2124
 5480TIP3    H137855   4.999   6.546   2.537 -0.1081 -1.0654  0.5172
 5480TIP3    H237856   5.071   6.458   2.437 -0.2114 -0.4861 -0.0731
 5481TIP3   OH237857   3.194   4.932  11.497  0.0258 -0.3376  0.1416
 5481TIP3    H137858   3.109   4.898  11.525  0.0664 -0.9392 -0.4676
 5481TIP3    H237859   3.256   4.898  11.562 -0.2425  0.4278  0.8166
 5482TIP3   OH237860   5.224   3.237   4.197  0.1117 -0.4705  0.9020
 5482TIP3    H137861   5.242   3.185   4.119 -0.1410  0.9929 -0.1546
 5482TIP3    H237862   5.242   3.327   4.171 -0.8141  0.1423  2.2721
 5483TIP3   OH237863   4.994   5.264   0.091  0.1696  0.7710 -0.0368
 5483TIP3    H137864   5.047   5.220   0.158  3.1203  1.9872 -1.4237
 5483TIP3    H237865   5.023   5.226   0.008 -2.8440 -0.1355 -0.8167
 5484TIP3   OH237866   2.246   5.956  14.984  0.4806  0.6208 -0.3699
 5484TIP3    H137867   2.263   6.048  15.001  2.3269  0.0774  1.0433
 5484TIP3    H237868   2.249   5.914  15.070  0.0006 -0.8168 -1.0112
 5485TIP3   OH237869   2.895   3.333   5.681  0.1871  0.1573  0.4009
 5485TIP3    H137870   2.948   3.313   5.604  0.9077  0.1322  0.8947
 5485TIP3    H237871   2.831   3.397   5.651 -0.4729 -0.9222 -0.5720
 5486TIP3   OH237872   2.834   5.667   5.398 -0.6309 -0.1336 -0.1291
 5486TIP3    H137873   2.741   5.687   5.394 -0.2279  2.0138 -0.1235
 5486TIP3    H237874   2.858   5.647   5.307 -0.8431  0.7457 -0.3934
 5487TIP3   OH237875   1.636   5.709  11.759 -0.6240 -0.3356  0.3121
 5487TIP3    H137876   1.699   5.638  11.771 -0.7033 -0.5610 -0.5385
 5487TIP3    H237877   1.675   5.763  11.690 -0.6773  0.3255  0.7922
 5488TIP3   OH237878   5.297   4.071   4.128  1.1317 -0.1743  0.0175
 5488TIP3    H137879   5.294   4.017   4.207 -1.8374 -1.1268 -0.6165
 5488TIP3    H237880   5.390   4.072   4.103  1.7665 -2.0860  1.9830
 5489TIP3   OH237881   0.700   5.039  12.951  0.3079  0.0763  0.3412
 5489TIP3    H137882   0.615   4.997  12.963  0.5997 -0.3586  1.0062
 5489TIP3    H237883   0.708   5.051  12.857  0.1210 -1.2212  0.1322
 5490TIP3   OH237884   5.601   1.069  15.690  0.1176 -0.4485  0.9418
 5490TIP3    H137885   5.661   1.076  15.764  0.6114  2.5258  0.3903
 5490TIP3    H237886   5.569   0.979  15.694  3.4669 -1.7475  2.1125
 5491TIP3   OH237887   0.156   4.322   6.167  0.2057  0.2083 -0.6345
 5491TIP3    H137888   0.070   4.306   6.206 -0.3798  1.3416 -1.3733
 5491TIP3    H237889   0.202   4.377   6.230 -0.0512  0.5333 -0.7260
 5492TIP3   OH237890   1.618   4.463  12.010 -0.4687 -0.1280 -0.8078
 5492TIP3    H137891   1.660   4.463  12.096 -0.3449  0.3170 -0.8644
 5492TIP3    H237892   1.616   4.555  11.984 -0.1404 -0.2999 -1.4586
 5493TIP3   OH237893   6.167   5.589   1.781  0.3937  0.2095 -0.0811
 5493TIP3    H137894   6.164   5.601   1.686 -0.8384  0.6890 -0.0071
 5493TIP3    H237895   6.081   5.553   1.803  0.5359  0.4318  0.8954
 5494TIP3   OH237896   2.628   1.266  13.911 -0.0421  0.1259 -0.4903
 5494TIP3    H137897   2.555   1.217  13.950  0.1922 -1.5987 -2.0372
 5494TIP3    H237898   2.641   1.340  13.969 -1.1953 -1.0363  1.3671
 5495TIP3   OH237899   0.460   2.470   2.843 -0.7825 -0.0006  0.5549
 5495TIP3    H137900   0.366   2.488   2.841 -1.2962 -2.3623  0.5110
 5495TIP3    H237901   0.472   2.417   2.922 -0.4134 -3.9277 -1.9250
 5496TIP3   OH237902   4.529   4.745  14.700  0.1388 -0.4966  0.3310
 5496TIP3    H137903   4.605   4.799  14.679  0.2073 -0.5476  0.4463
 5496TIP3    H237904   4.459   4.807  14.718 -0.0836 -0.4551 -0.6513
 5497TIP3   OH237905   5.585   4.521  15.393  0.0425 -0.4814 -0.2684
 5497TIP3    H137906   5.508   4.482  15.434  0.1472 -0.9040 -0.4760
 5497TIP3    H237907   5.650   4.525  15.463 -0.6567  1.3147  0.3406
 5498TIP3   OH237908   1.094   1.804   3.613 -0.3893  0.0763 -0.3327
 5498TIP3    H137909   1.126   1.767   3.695 -0.1943  0.5448 -0.1955
 5498TIP3    H237910   1.157   1.775   3.547  0.3690  1.0421 -0.0566
 5499TIP3   OH237911   0.803   1.693   1.254 -0.1143  0.0400 -0.0009
 5499TIP3    H137912   0.777   1.730   1.339  0.5394 -1.5886  0.9492
 5499TIP3    H237913   0.766   1.605   1.254  0.3742 -0.1744 -1.1746
 5500TIP3   OH237914   3.248   2.661  13.798 -0.5839 -0.4831  0.3296
 5500TIP3    H137915   3.276   2.687  13.710 -0.6270 -0.2665  0.3807
 5500TIP3    H237916   3.283   2.728  13.856 -0.5704 -0.6166  0.4785
 5501TIP3   OH237917   2.464   4.096  12.187  0.3585  0.5086  0.1666
 5501TIP3    H137918   2.452   4.002  12.177 -0.8479  0.8882 -4.5147
 5501TIP3    H237919   2.378   4.129  12.212 -0.0171  0.5531 -1.1245
 5502TIP3   OH237920   4.505   0.441  13.811  0.0451  0.5370 -0.1350
 5502TIP3    H137921   4.410   0.439  13.807  0.0391  1.5742 -0.8189
 5502TIP3    H237922   4.532   0.490  13.733  1.2381 -1.3834 -1.0340
 5503TIP3   OH237923   3.859   5.533   4.957 -0.3251  0.5773 -0.3633
 5503TIP3    H137924   3.882   5.617   4.997  1.7766 -0.5509  0.9833
 5503TIP3    H237925   3.937   5.509   4.907 -1.4018  0.0169 -1.8392
 5504TIP3   OH237926   2.925   0.631  11.577 -0.1820  0.1276  0.7557
 5504TIP3    H137927   2.876   0.566  11.527  0.1775  0.4313 -0.0095
 5504TIP3    H237928   2.909   0.608  11.669  0.6511 -1.5796  0.5117
 5505TIP3   OH237929   0.104   4.517   1.107 -0.2695 -0.8249 -0.1476
 5505TIP3    H137930   0.031   4.484   1.055 -0.6926  0.4790 -0.4243
 5505TIP3    H237931   0.164   4.555   1.043 -1.2311  1.6410  0.3011
 5506TIP3   OH237932   0.890   1.038   0.223 -0.0096 -0.5565 -0.4474
 5506TIP3    H137933   0.859   1.019   0.312  0.6148 -1.3999 -0.3894
 5506TIP3    H237934   0.982   1.062   0.236  0.0333 -0.5070 -0.8560
 5507TIP3   OH237935   0.914   0.730   4.484  0.0752  0.0566 -0.0359
 5507TIP3    H137936   0.949   0.816   4.464  0.2416 -0.3127 -1.4838
 5507TIP3    H237937   0.820   0.738   4.470  0.0922  0.0188 -0.1836
 5508TIP3   OH237938   6.167   3.522   2.769  0.1009 -0.2435 -0.5086
 5508TIP3    H137939   6.204   3.526   2.680  2.6580  1.7742  0.5290
 5508TIP3    H237940   6.089   3.577   2.764  0.0759 -0.3421 -1.5388
 5509TIP3   OH237941   0.713   3.504   0.354 -0.0908  0.7240 -0.3936
 5509TIP3    H137942   0.703   3.442   0.282 -1.4705  0.2741  0.1642
 5509TIP3    H237943   0.797   3.548   0.336  0.2178 -0.2914 -1.5534
 5510TIP3   OH237944   6.333   0.004  15.612  0.2737  0.3252  0.1927
 5510TIP3    H137945   6.301   0.014  15.523  2.2498  0.5735 -0.5529
 5510TIP3    H237946   6.270   0.051  15.666 -1.5828 -0.7949 -0.9004
 5511TIP3   OH237947   2.425   4.362  15.117 -0.0881 -0.3808 -0.1301
 5511TIP3    H137948   2.370   4.377  15.040  0.7261  0.9184 -0.4891
 5511TIP3    H237949   2.405   4.273  15.144 -3.1553  0.3358  0.3683
 5512TIP3   OH237950   4.493   2.605   1.939 -0.5383 -0.3797  0.3774
 5512TIP3    H137951   4.485   2.690   1.983  0.1991 -0.7872  1.3557
 5512TIP3    H237952   4.575   2.610   1.891 -1.1520 -0.0772 -0.6547
 5513TIP3   OH237953   5.653   3.541   0.458  0.1317  1.0102  0.2738
 5513TIP3    H137954   5.651   3.515   0.366 -0.6500 -0.7697  0.7548
 5513TIP3    H237955   5.742   3.519   0.487 -0.6491 -1.8445  0.8012
 5514TIP3   OH237956   1.931   1.388  12.941 -1.2539  0.5518  0.8433
 5514TIP3    H137957   1.977   1.312  12.976  1.4401  0.7434 -1.8923
 5514TIP3    H237958   1.840   1.359  12.934 -0.4096 -2.3552  0.2480
 5515TIP3   OH237959   1.241   4.670  14.246 -0.1005 -0.5837  0.2412
 5515TIP3    H137960   1.193   4.688  14.165 -0.4714 -2.7161 -0.0560
 5515TIP3    H237961   1.326   4.713  14.234 -0.7090  0.4237 -0.6081
 5516TIP3   OH237962   4.754   3.535   2.583 -0.2337  0.0014  0.1857
 5516TIP3    H137963   4.822   3.543   2.516  0.8752 -1.7616  1.0392
 5516TIP3    H237964   4.761   3.616   2.634  0.9691  0.0067  0.0330
 5517TIP3   OH237965   5.733   6.003   4.825  0.6357  0.4208  0.2539
 5517TIP3    H137966   5.734   5.986   4.731  1.7740  0.0795  0.3169
 5517TIP3    H237967   5.683   5.930   4.862  1.1025 -0.0183  0.0206
 5518TIP3   OH237968   0.518   0.210  12.416 -0.3313  0.1382 -0.2358
 5518TIP3    H137969   0.564   0.216  12.500  1.2751  1.6733 -1.1487
 5518TIP3    H237970   0.572   0.260  12.356 -1.8404 -0.2866 -2.0405
 5519TIP3   OH237971   2.998   3.804  13.558  0.5563  0.1581 -0.5008
 5519TIP3    H137972   2.969   3.729  13.505 -1.6746 -1.0372  2.1606
 5519TIP3    H237973   2.926   3.868  13.550  0.6282  0.3473  0.2927
 5520TIP3   OH237974   4.866   1.638   6.138  0.4038  0.2969 -0.1195
 5520TIP3    H137975   4.881   1.731   6.120 -1.4348  0.4670 -0.9091
 5520TIP3    H237976   4.912   1.623   6.221  0.8723  1.8558 -0.0559
 5521TIP3   OH237977   0.775   4.808   6.797 -0.2351  0.4918  0.1617
 5521TIP3    H137978   0.786   4.859   6.878  1.3006  0.5227 -0.0353
 5521TIP3    H237979   0.795   4.870   6.727  1.5561 -0.2983 -0.0833
 5522TIP3   OH237980   4.586   4.888   4.792 -0.1618 -0.3307 -0.0137
 5522TIP3    H137981   4.663   4.891   4.850  1.1810  1.6145 -1.7388
 5522TIP3    H237982   4.562   4.980   4.780 -0.8087 -0.7185 -1.9696
 5523TIP3   OH237983   3.651   6.644   5.486 -0.1666 -0.3701 -0.6187
 5523TIP3    H137984   3.652   6.607   5.397  2.0672 -1.4405 -0.2128
 5523TIP3    H237985   3.691   6.576   5.540  0.1112  0.9755  0.9209
 5524TIP3   OH237986   4.393   3.394  15.335 -0.8087 -0.6401  0.0228
 5524TIP3    H137987   4.396   3.487  15.314  0.6868 -0.8108 -0.6045
 5524TIP3    H237988   4.470   3.379  15.390 -0.2396 -1.7559 -1.0219
 5525TIP3   OH237989   2.622   5.244   1.978 -0.1857  0.0538  0.0205
 5525TIP3    H137990   2.655   5.289   1.901 -1.2941 -0.1912 -0.6078
 5525TIP3    H237991   2.684   5.171   1.991 -0.8112 -0.7878 -1.5298
 5526TIP3   OH237992   2.493   4.734  16.375  0.3601  0.0557 -0.4403
 5526TIP3    H137993   2.454   4.679  16.442 -0.1988  0.1257 -0.7027
 5526TIP3    H237994   2.560   4.678  16.334 -1.9055 -1.3907 -2.4413
 5527TIP3   OH237995   0.809   5.972  12.686  0.5159  0.0132 -0.1223
 5527TIP3    H137996   0.883   5.996  12.742  0.5371  1.0345 -0.5583
 5527TIP3    H237997   0.765   6.055  12.667 -2.0274 -0.7735  1.8382
 5528TIP3   OH237998   1.291   1.327   2.001 -0.2177 -0.2868 -0.6217
 5528TIP3    H137999   1.294   1.260   2.069 -0.3595 -1.0274 -1.3392
 5528TIP3    H238000   1.237   1.289   1.932  0.4841  0.1865 -1.4382
 5529TIP3   OH238001   4.864   3.915  11.969 -0.0604 -0.0170  0.0244
 5529TIP3    H138002   4.953   3.917  12.003 -0.0914 -1.6052  0.2613
 5529TIP3    H238003   4.820   3.846  12.020 -0.3330 -1.9399 -2.6076
 5530TIP3   OH238004   2.692   6.218  15.947 -0.0439 -0.3957 -0.5267
 5530TIP3    H138005   2.773   6.249  15.907  1.8704 -1.7347  1.9627
 5530TIP3    H238006   2.638   6.296  15.956  1.3276  0.7206 -1.4712
 5531TIP3   OH238007   2.141   6.519   4.094 -0.3719  0.3722  0.2887
 5531TIP3    H138008   2.192   6.591   4.130 -0.3557  0.2380  0.5381
 5531TIP3    H238009   2.052   6.553   4.087 -0.7044 -0.0964  1.9465
 5532TIP3   OH238010   5.378   6.709   4.863 -0.7081  0.5006 -0.1111
 5532TIP3    H138011   5.435   6.688   4.937 -1.0799 -0.0452  0.0294
 5532TIP3    H238012   5.423   6.674   4.786 -0.1233  1.4298 -0.2072
 5533TIP3   OH238013   5.257   0.155  13.010  0.4331  0.2107  0.2779
 5533TIP3    H138014   5.315   0.175  12.936  0.5456  0.8346  0.5267
 5533TIP3    H238015   5.224   0.067  12.991 -0.5240  0.8411 -1.1463
 5534TIP3   OH238016   1.003   2.072   3.657 -0.4415  0.2720  0.4317
 5534TIP3    H138017   1.046   2.090   3.741  1.2374 -0.9342 -0.1009
 5534TIP3    H238018   1.038   1.986   3.631  0.5348  1.3879 -2.3619
 5535TIP3   OH238019   4.507   2.481   6.032  0.0516  0.6673 -0.4373
 5535TIP3    H138020   4.426   2.527   6.054 -0.9929 -1.1898 -0.2297
 5535TIP3    H238021   4.545   2.458   6.117  0.4838  0.9845 -0.5412
 5536TIP3   OH238022   4.241   1.524   6.251  0.3845 -0.7070 -0.0664
 5536TIP3    H138023   4.189   1.447   6.275  1.4744 -1.0767  1.2019
 5536TIP3    H238024   4.219   1.589   6.317  2.6645 -1.3961  1.4592
 5537TIP3   OH238025   2.316   6.210  13.344 -0.4177  0.5528 -0.0477
 5537TIP3    H138026   2.382   6.213  13.413  0.1383 -1.5718 -0.4037
 5537TIP3    H238027   2.366   6.196  13.264 -1.2470 -1.0046 -0.3376
 5538TIP3   OH238028   5.072   0.321   4.977  0.3329  0.4573 -0.6722
 5538TIP3    H138029   5.031   0.385   5.035 -3.3656 -0.5773 -1.8777
 5538TIP3    H238030   5.084   0.243   5.031  1.5797  1.0184 -0.1017
 5539TIP3   OH238031   6.446   6.697   5.134 -0.4189  0.2358 -0.1109
 5539TIP3    H138032   6.533   6.657   5.138  0.1748  1.2775 -1.6199
 5539TIP3    H238033   6.422   6.713   5.226  1.0684  0.1229  0.3197
 5540TIP3   OH238034   6.716   3.485   4.021  0.0085  0.3300  0.1546
 5540TIP3    H138035   6.661   3.526   3.955 -1.6106 -0.1029  1.1806
 5540TIP3    H238036   6.657   3.468   4.094  0.6433 -3.4564 -0.0311
 5541TIP3   OH238037   2.802   1.700  14.335  0.3030 -0.1606 -0.0633
 5541TIP3    H138038   2.727   1.746  14.296  0.4181  0.3238  0.2789
 5541TIP3    H238039   2.779   1.607  14.328 -0.7909  0.0117  0.9429
 5542TIP3   OH238040   5.425   3.094  17.134  0.3143 -0.3895 -0.4341
 5542TIP3    H138041   5.475   3.070  17.212 -0.3449 -0.7750 -0.1229
 5542TIP3    H238042   5.335   3.104  17.165  0.2199  0.4601 -0.9589
 5543TIP3   OH238043   0.143   5.207   4.006 -0.2564  0.0262 -0.1515
 5543TIP3    H138044   0.083   5.258   4.060  1.1522 -0.4847  2.0284
 5543TIP3    H238045   0.146   5.121   4.048  0.6135 -0.5304 -1.2865
 5544TIP3   OH238046   5.167   3.708   1.933  0.4109  0.4004  0.3977
 5544TIP3    H138047   5.097   3.770   1.911 -0.5168 -0.6825  0.1960
 5544TIP3    H238048   5.157   3.637   1.870  0.7222 -0.5008  1.3351
 5545TIP3   OH238049   1.286   5.731  11.115 -0.3357 -0.0403 -0.0002
 5545TIP3    H138050   1.309   5.683  11.036 -0.6866  0.6227 -0.5209
 5545TIP3    H238051   1.329   5.816  11.105 -3.3972  1.5339 -1.3728
 5546TIP3   OH238052   3.765   3.748   5.231 -0.1070  0.2009 -0.2262
 5546TIP3    H138053   3.703   3.681   5.260 -0.7131  0.9612  0.2570
 5546TIP3    H238054   3.779   3.803   5.308  0.6685  0.4240 -0.5160
 5547TIP3   OH238055   4.377   1.060   5.239 -0.6474 -0.3225 -0.2461
 5547TIP3    H138056   4.464   1.075   5.277 -0.1999 -0.7002 -1.0820
 5547TIP3    H238057   4.395   1.034   5.148 -1.6384 -0.3882 -0.4351
 5548TIP3   OH238058   1.335   6.397  13.989 -0.1739 -0.2896  0.1103
 5548TIP3    H138059   1.299   6.349  13.915 -0.3333  0.4112 -0.2752
 5548TIP3    H238060   1.423   6.422  13.961  1.1930 -3.0445  1.5031
 5549TIP3   OH238061   2.989   2.221   1.512  0.2761  0.5033 -0.2707
 5549TIP3    H138062   2.913   2.216   1.570  0.0175  1.8650 -0.4535
 5549TIP3    H238063   3.033   2.303   1.536  2.0753 -0.5503  0.2645
 5550TIP3   OH238064   4.659   5.553   2.821 -0.2312 -0.3064 -0.2771
 5550TIP3    H138065   4.734   5.566   2.764  0.7137  0.3537  1.0571
 5550TIP3    H238066   4.613   5.636   2.820 -1.0839 -0.7758 -1.2583
 5551TIP3   OH238067   6.467   5.191  14.405  0.3914 -0.3639  0.2179
 5551TIP3    H138068   6.498   5.275  14.441  0.6652 -0.4298  0.1411
 5551TIP3    H238069   6.509   5.125  14.461  1.1367 -0.4768 -0.4623
 5552TIP3   OH238070   5.443   6.460  14.137 -0.3914 -0.0035  0.2924
 5552TIP3    H138071   5.373   6.525  14.127 -0.7336  0.0219  2.3339
 5552TIP3    H238072   5.447   6.444  14.231  1.4738 -0.9988  0.0947
 5553TIP3   OH238073   5.913   5.700  12.265  0.0927  0.5828  0.4829
 5553TIP3    H138074   5.827   5.725  12.232 -0.3907  0.2312  1.4177
 5553TIP3    H238075   5.900   5.689  12.359  0.4163 -2.3506  0.2938
 5554TIP3   OH238076   5.845   2.495  16.890 -0.0398 -0.1577 -0.0885
 5554TIP3    H138077   5.844   2.403  16.863  1.0182 -0.7288  1.6319
 5554TIP3    H238078   5.793   2.541  16.823 -1.8923 -2.2067 -0.1403
 5555TIP3   OH238079   5.315   3.407   3.578  0.3923  0.6459  0.2786
 5555TIP3    H138080   5.353   3.458   3.650 -1.1633  1.2045  0.7503
 5555TIP3    H238081   5.237   3.456   3.553 -0.6041 -0.9930  0.0573
 5556TIP3   OH238082   5.362   3.352  12.168 -0.1722  0.2584  0.2985
 5556TIP3    H138083   5.443   3.320  12.128 -0.3332  2.2938 -1.8559
 5556TIP3    H238084   5.310   3.273  12.181  0.9109 -0.7826 -1.2378
 5557TIP3   OH238085   1.527   1.230   0.149  0.1222 -0.2408  0.1729
 5557TIP3    H138086   1.442   1.269   0.171  0.7316  2.9354 -2.4439
 5557TIP3    H238087   1.508   1.171   0.077  0.1310  0.8401 -0.7429
 5558TIP3   OH238088   3.252   2.594   4.155 -0.0089  0.8766  0.2023
 5558TIP3    H138089   3.241   2.596   4.060 -1.7753  1.9799  0.3811
 5558TIP3    H238090   3.197   2.521   4.184 -0.6276  1.4292  0.4642
 5559TIP3   OH238091   2.791   1.776  14.667 -0.3210  0.1366 -0.1054
 5559TIP3    H138092   2.851   1.784  14.593 -0.7007 -0.4793 -0.4896
 5559TIP3    H238093   2.835   1.822  14.739  0.2033  0.4514 -0.6189
 5560TIP3   OH238094   2.194   2.792  14.061  0.2681 -0.1355 -0.1465
 5560TIP3    H138095   2.246   2.712  14.070 -0.3392 -0.4443  0.7213
 5560TIP3    H238096   2.219   2.845  14.136  1.2808  0.8696 -1.1553
 5561TIP3   OH238097   2.406   6.092   5.028  0.6847  0.3932  0.6453
 5561TIP3    H138098   2.372   6.066   4.942  1.4301  0.5143  0.3044
 5561TIP3    H238099   2.400   6.013   5.081  0.5626  0.2166  0.3720
 5562TIP3   OH238100   4.032   4.175   0.866 -0.4053  0.2298 -0.4945
 5562TIP3    H138101   3.988   4.167   0.782  1.7100 -0.8867 -1.5638
 5562TIP3    H238102   4.100   4.241   0.852  0.8271 -0.9074 -0.0864
 5563TIP3   OH238103   6.759   1.871  11.353 -0.0344  0.5024 -0.0279
 5563TIP3    H138104   6.703   1.866  11.275  0.6492  0.9272 -0.5641
 5563TIP3    H238105   6.830   1.929  11.327  0.5869  0.0761  0.6850
 5564TIP3   OH238106   1.554   5.900  11.925  0.0389  0.4068 -0.0601
 5564TIP3    H138107   1.569   5.844  11.849 -2.1267 -0.8591  0.3537
 5564TIP3    H238108   1.619   5.872  11.990 -0.1338 -0.7149 -0.3520
 5565TIP3   OH238109   1.328   5.587  17.127 -0.0794  0.3551 -0.2937
 5565TIP3    H138110   1.387   5.588  17.052  0.8996  0.3238  0.4595
 5565TIP3    H238111   1.382   5.556  17.200 -0.6207  1.6947  0.7318
 5566TIP3   OH238112   0.416   2.034   3.392 -0.3098  0.4822  0.0869
 5566TIP3    H138113   0.419   1.942   3.418 -2.4120  1.0183  2.5467
 5566TIP3    H238114   0.423   2.083   3.474 -1.8140  2.4506 -0.8701
 5567TIP3   OH238115   3.414   1.306  15.032  0.2085 -0.0027 -0.7119
 5567TIP3    H138116   3.319   1.317  15.024  0.1946  1.2769  0.6981
 5567TIP3    H238117   3.450   1.388  14.999  0.6928  0.4113  0.7953
 5568TIP3   OH238118   6.683   6.417  11.630  0.0125 -0.5491  0.2440
 5568TIP3    H138119   6.661   6.509  11.647 -0.4345  0.0770 -2.9160
 5568TIP3    H238120   6.600   6.371  11.641  0.0404 -0.4256  0.9894
 5569TIP3   OH238121   4.785   0.866  14.930  0.4036  0.5166  0.2594
 5569TIP3    H138122   4.829   0.786  14.959  1.2170 -0.7937 -3.8695
 5569TIP3    H238123   4.832   0.892  14.851 -0.8851  4.2236  0.4773
 5570TIP3   OH238124   3.162   5.737  12.534  0.3643  0.0146 -0.3702
 5570TIP3    H138125   3.210   5.778  12.462  0.2660  0.8403  0.0213
 5570TIP3    H238126   3.075   5.775  12.530  0.2950 -0.0890  0.0601
 5571TIP3   OH238127   1.832   1.138   4.061 -0.2817  0.0953  0.1588
 5571TIP3    H138128   1.909   1.191   4.041 -0.1293 -0.7182 -1.6738
 5571TIP3    H238129   1.758   1.196   4.044 -0.1398 -0.3849 -2.5511
 5572TIP3   OH238130   0.881   1.724  16.631  0.1894 -0.2224 -0.5328
 5572TIP3    H138131   0.934   1.688  16.702  0.3568 -1.3497 -1.2237
 5572TIP3    H238132   0.819   1.782  16.676 -1.0806 -2.4614  0.8048
 5573TIP3   OH238133   4.130   2.012  16.477  0.7951  0.3329  0.7157
 5573TIP3    H138134   4.197   1.953  16.511 -1.1210 -2.1434  0.4985
 5573TIP3    H238135   4.103   1.972  16.394 -2.5769 -0.2521  1.9120
 5574TIP3   OH238136   4.867   1.912   6.112 -0.2876  0.1286 -0.1757
 5574TIP3    H138137   4.947   1.938   6.157  0.3929  0.6443 -1.6053
 5574TIP3    H238138   4.801   1.905   6.181  0.9467 -0.1712  1.0146
 5575TIP3   OH238139   4.277   3.430  16.435 -0.7939 -0.0190  0.0238
 5575TIP3    H138140   4.329   3.352  16.454 -0.7809 -0.4883 -1.7610
 5575TIP3    H238141   4.342   3.500  16.423 -0.8146  0.3380  1.7976
 5576TIP3   OH238142   1.483   2.933   4.592  0.2381 -0.2455 -0.4124
 5576TIP3    H138143   1.452   3.018   4.623  2.5922  0.8019 -0.6237
 5576TIP3    H238144   1.414   2.902   4.533 -1.2216  0.9368  0.6018
 5577TIP3   OH238145   5.350   3.955   3.771 -0.7518 -0.6319 -0.4057
 5577TIP3    H138146   5.301   4.009   3.709 -0.2350  0.8984  0.4482
 5577TIP3    H238147   5.417   3.912   3.719  0.2163  1.2924 -0.8166
 5578TIP3   OH238148   4.013   2.360   0.260  0.6454 -0.0759  0.0463
 5578TIP3    H138149   4.052   2.441   0.226  0.0197 -0.2161 -1.0291
 5578TIP3    H238150   3.992   2.381   0.351  0.0343  1.1604 -0.3531
 5579TIP3   OH238151   4.248   1.490   1.917  0.5790  0.3787 -0.3277
 5579TIP3    H138152   4.270   1.403   1.885  1.3925  0.5409 -0.2273
 5579TIP3    H238153   4.182   1.474   1.985 -0.2053 -0.0532 -1.1611
 5580TIP3   OH238154   1.381   1.370   3.260  0.0428 -0.3930  0.1207
 5580TIP3    H138155   1.396   1.453   3.304  1.2299  0.2118 -1.3499
 5580TIP3    H238156   1.331   1.318   3.323  1.5602  0.4568  2.1097
 5581TIP3   OH238157   1.724   4.797   5.250  0.3283 -0.2210 -0.0131
 5581TIP3    H138158   1.769   4.720   5.287  2.7668  0.4881 -1.3113
 5581TIP3    H238159   1.795   4.855   5.222 -1.4395  1.3896 -1.3905
 5582TIP3   OH238160   3.523   0.175   4.952  0.6282  0.0022  0.9547
 5582TIP3    H138161   3.449   0.182   4.891  2.9194 -0.8635 -2.1571
 5582TIP3    H238162   3.492   0.116   5.020 -2.3348  1.6227  1.2075
 5583TIP3   OH238163   3.097   1.377  12.375 -0.4793 -0.5396  0.7560
 5583TIP3    H138164   3.182   1.376  12.332 -0.1022  0.6707  1.4214
 5583TIP3    H238165   3.047   1.445  12.329 -1.4302 -1.8595 -0.2228
 5584TIP3   OH238166   3.806   3.653  14.208  0.0051  0.1451  0.0729
 5584TIP3    H138167   3.806   3.747  14.224 -3.8885 -0.1008  3.2130
 5584TIP3    H238168   3.729   3.638  14.152  0.3813 -1.1786 -0.1138
 5585TIP3   OH238169   1.158   5.581   4.947 -0.2359 -0.1229  0.4861
 5585TIP3    H138170   1.105   5.568   4.869 -2.3886 -2.1280  2.1390
 5585TIP3    H238171   1.144   5.502   4.999  1.9021  0.6885  2.4742
 5586TIP3   OH238172   3.071   0.881   3.923 -0.5920  0.8346  0.1188
 5586TIP3    H138173   3.065   0.874   4.018 -1.4972  2.3680  0.2051
 5586TIP3    H238174   3.046   0.971   3.904  2.3822  1.4842 -1.3608
 5587TIP3   OH238175   6.647   6.191   2.622  0.4972  0.0915  0.3625
 5587TIP3    H138176   6.621   6.104   2.652 -1.4907  0.5981  0.2238
 5587TIP3    H238177   6.697   6.174   2.542  3.8510 -1.1248  2.4744
 5588TIP3   OH238178   3.010   2.878  14.044  0.6580  0.0108 -0.2711
 5588TIP3    H138179   3.063   2.913  13.972 -0.2061  0.6481 -0.6112
 5588TIP3    H238180   3.074   2.853  14.111  1.4316  0.0413 -0.9848
 5589TIP3   OH238181   4.009   2.283  15.360  0.1003 -0.1084  0.2793
 5589TIP3    H138182   3.983   2.198  15.395  0.0593 -0.7963 -1.3731
 5589TIP3    H238183   4.038   2.265  15.271  1.6785  1.3627  0.4332
 5590TIP3   OH238184   3.783   5.066   5.006  1.3259  0.1700  0.2390
 5590TIP3    H138185   3.727   5.140   4.979 -0.4031 -1.5015 -1.0282
 5590TIP3    H238186   3.729   5.016   5.067  2.1842 -0.4753  0.4844
 5591TIP3   OH238187   3.982   3.000   1.150  0.3303 -0.4726  0.0854
 5591TIP3    H138188   3.892   2.968   1.159  0.6750 -1.4292  0.2524
 5591TIP3    H238189   3.994   3.059   1.224 -0.3219  0.0862 -0.2362
 5592TIP3   OH238190   5.188   1.498  16.265  0.1198  0.1774 -0.3417
 5592TIP3    H138191   5.227   1.459  16.187  0.4356 -0.3869  0.0833
 5592TIP3    H238192   5.166   1.422  16.321 -1.0268  0.5128 -0.3110
 5593TIP3   OH238193   1.217   2.593   0.073  0.3474 -0.2263  0.0056
 5593TIP3    H138194   1.287   2.613   0.136 -0.7316 -0.1454  1.2255
 5593TIP3    H238195   1.196   2.678   0.034  0.4071 -0.1151  0.2098
 5594TIP3   OH238196   1.445   3.335   2.035 -0.0018  0.1697  0.0047
 5594TIP3    H138197   1.420   3.406   1.977 -0.4438 -0.0844 -0.1160
 5594TIP3    H238198   1.398   3.258   2.002 -0.2490  0.0195  0.6885
 5595TIP3   OH238199   4.765   2.410  11.083  0.3079  1.1703 -0.0425
 5595TIP3    H138200   4.724   2.404  10.996  0.7886  2.4730 -0.3922
 5595TIP3    H238201   4.787   2.503  11.092  1.8144  0.7717  0.7572
 5596TIP3   OH238202   6.176   1.215   3.030 -0.6747 -0.0100  0.1165
 5596TIP3    H138203   6.205   1.158   3.102 -0.9254 -1.3755 -0.8180
 5596TIP3    H238204   6.085   1.236   3.052 -0.1070  1.4144  1.2853
 5597TIP3   OH238205   3.517   3.634   0.988 -0.4265  0.1384 -0.4468
 5597TIP3    H138206   3.552   3.717   1.022 -0.5444  0.3226 -0.7749
 5597TIP3    H238207   3.553   3.627   0.900  0.5750 -0.7614  0.0128
 5598TIP3   OH238208   3.427   6.122  14.321 -0.3362 -0.1738  0.0495
 5598TIP3    H138209   3.348   6.101  14.272  0.0058  0.7672 -0.9649
 5598TIP3    H238210   3.423   6.217  14.334  0.3424 -0.1951  0.4686
 5599TIP3   OH238211   6.091   0.940   4.151  0.1628  0.6401 -0.7500
 5599TIP3    H138212   6.071   0.979   4.066 -1.6684 -1.7961 -1.5633
 5599TIP3    H238213   6.142   0.862   4.130  0.6342  0.6049  0.4720
 5600TIP3   OH238214   1.233   0.439   2.291  0.5752 -0.0173  0.1739
 5600TIP3    H138215   1.182   0.404   2.218  0.4709  0.5030 -0.0055
 5600TIP3    H238216   1.310   0.383   2.295  0.0492 -0.7358  0.3712
 5601TIP3   OH238217   0.629   3.672   2.491 -0.9029 -0.3320  0.4103
 5601TIP3    H138218   0.651   3.639   2.578 -1.4195  0.3122  0.7948
 5601TIP3    H238219   0.544   3.714   2.502 -0.6631  0.3444 -0.2611
 5602TIP3   OH238220   0.959   4.467  11.552  0.2085  0.2519 -0.0072
 5602TIP3    H138221   0.914   4.510  11.625  1.3630  0.1549  0.7797
 5602TIP3    H238222   0.896   4.471  11.480 -1.0458  0.1425  1.0477
 5603TIP3   OH238223   1.400   1.003  11.815  0.0312 -0.2716  0.4084
 5603TIP3    H138224   1.313   0.979  11.781  0.5290  0.1749 -1.2782
 5603TIP3    H238225   1.453   1.016  11.737  1.7681 -0.9825  1.4198
 5604TIP3   OH238226   0.492   1.049   2.414 -0.3678 -0.3484  0.2769
 5604TIP3    H138227   0.413   1.098   2.436 -0.0284 -1.0801  3.8311
 5604TIP3    H238228   0.560   1.088   2.469  0.8929 -1.9902 -0.0496
 5605TIP3   OH238229   5.979   4.022   2.126 -0.0433  0.1584  0.2393
 5605TIP3    H138230   5.939   4.029   2.213  0.7534  3.0607  0.4693
 5605TIP3    H238231   6.040   3.949   2.134  0.0305  0.3662  2.1524
 5606TIP3   OH238232   0.345   4.865   2.478  0.4341 -0.8034  0.1211
 5606TIP3    H138233   0.317   4.920   2.552  0.0446  3.1462 -2.6531
 5606TIP3    H238234   0.270   4.808   2.461  0.0468 -0.9014  1.9161
 5607TIP3   OH238235   1.793   4.432  12.225  0.0530 -0.0065  0.2044
 5607TIP3    H138236   1.849   4.474  12.290 -0.1616  0.3482  0.1642
 5607TIP3    H238237   1.793   4.339  12.250  3.8022 -0.7915 -2.0604
 5608TIP3   OH238238   2.802   3.812   5.202  0.4029 -0.2883 -0.4001
 5608TIP3    H138239   2.838   3.845   5.119  1.6983 -1.1045 -0.1959
 5608TIP3    H238240   2.866   3.839   5.268 -0.9262  0.9021  0.4720
 5609TIP3   OH238241   4.927   3.879   1.891 -0.4958  0.1530  0.2308
 5609TIP3    H138242   4.844   3.878   1.843 -0.5757 -1.4480  0.3435
 5609TIP3    H238243   4.902   3.880   1.983 -0.5031 -2.7808  0.3379
 5610TIP3   OH238244   0.056   3.078   0.697  0.3335  0.4388  0.3664
 5610TIP3    H138245   0.037   3.025   0.774  0.4119 -0.4811 -0.2393
 5610TIP3    H238246   0.100   3.156   0.732 -1.1282  0.8354  1.4118
 5611TIP3   OH238247   0.059   2.492  13.151  0.5525  0.4387 -1.4213
 5611TIP3    H138248   0.150   2.520  13.143  0.9857 -0.6241 -0.4585
 5611TIP3    H238249   0.039   2.452  13.066  0.7704  1.2382 -1.8559
 5612TIP3   OH238250   0.434   1.055   4.005 -0.0279 -0.4864 -0.6867
 5612TIP3    H138251   0.487   0.996   3.952  0.4025 -2.1535  1.4319
 5612TIP3    H238252   0.396   0.999   4.073  0.4742  1.6332  1.5305
 5613TIP3   OH238253   0.820   1.206  16.609  0.9788  0.4951 -0.1999
 5613TIP3    H138254   0.757   1.157  16.662  1.3916  0.0363 -0.1322
 5613TIP3    H238255   0.897   1.217  16.665  2.0954 -1.4799 -1.2377
 5614TIP3   OH238256   2.106   0.066   5.951  0.6892 -0.2707 -0.7568
 5614TIP3    H138257   2.039   0.113   6.002  0.3643 -0.0471 -1.3822
 5614TIP3    H238258   2.149   0.134   5.899  0.0825 -0.6723 -1.8170
 5615TIP3   OH238259   5.073   5.719   4.484 -0.0361 -0.6517  0.1525
 5615TIP3    H138260   4.980   5.743   4.476 -0.2871 -0.8527  1.9916
 5615TIP3    H238261   5.105   5.771   4.557  1.5690  0.0695 -1.0191
 5616TIP3   OH238262   5.135   0.679  17.039 -0.3847  0.3891  0.3678
 5616TIP3    H138263   5.120   0.773  17.033 -1.0444  0.3394  1.0279
 5616TIP3    H238264   5.153   0.651  16.949 -2.1885  0.8285 -0.1661
 5617TIP3   OH238265   6.162   4.233   4.187  0.4409  0.1654  0.1329
 5617TIP3    H138266   6.182   4.212   4.279 -0.4727 -1.2868  0.0396
 5617TIP3    H238267   6.076   4.274   4.190  0.2334 -0.2486 -0.1034
 5618TIP3   OH238268   6.594   3.492   2.468  0.3448 -0.0064 -0.3082
 5618TIP3    H138269   6.589   3.401   2.497 -1.4691  0.3199  0.5898
 5618TIP3    H238270   6.579   3.543   2.548 -1.7157  1.0060 -1.2641
 5619TIP3   OH238271   2.785   6.646  11.065 -0.2680 -0.1375 -0.0051
 5619TIP3    H138272   2.836   6.646  10.984  0.2388 -2.1598  0.2676
 5619TIP3    H238273   2.728   6.722  11.057  1.1002  0.8080 -1.3979
 5620TIP3   OH238274   2.886   5.609  12.566  0.2958  0.7616 -0.1358
 5620TIP3    H138275   2.865   5.529  12.518 -1.8656  0.2052  1.5601
 5620TIP3    H238276   2.890   5.678  12.499 -1.0228 -0.2361 -1.3000
 5621TIP3   OH238277   4.772   1.579  11.123 -0.3523 -0.7641  0.3143
 5621TIP3    H138278   4.859   1.548  11.147 -0.1633 -1.6675 -1.3584
 5621TIP3    H238279   4.751   1.530  11.043 -2.0855 -0.0231  0.2832
 5622TIP3   OH238280   5.527   3.237  16.641 -0.8122 -0.8748 -0.5008
 5622TIP3    H138281   5.478   3.160  16.612 -1.6113 -0.1810 -1.0544
 5622TIP3    H238282   5.548   3.219  16.732 -0.9143 -1.7834 -0.6437
 5623TIP3   OH238283   3.847   1.163   5.968 -0.5377  0.3277  0.9093
 5623TIP3    H138284   3.906   1.238   5.971  0.1293  0.0062 -1.8033
 5623TIP3    H238285   3.891   1.095   6.019 -0.6460  1.3885  2.4924
 5624TIP3   OH238286   1.540   6.082   3.788  0.0956 -0.4012 -0.0648
 5624TIP3    H138287   1.492   6.056   3.867  0.2161  0.8660  0.4397
 5624TIP3    H238288   1.632   6.074   3.814  0.1671 -1.6460 -0.6422
 5625TIP3   OH238289   2.673   2.113   4.789 -0.0530 -0.3820 -0.5477
 5625TIP3    H138290   2.636   2.053   4.855  0.1055 -0.2485 -0.3336
 5625TIP3    H238291   2.767   2.098   4.795  0.2725  1.8495  1.4916
 5626TIP3   OH238292   1.962   2.275  13.472  0.9311  0.9568  0.1951
 5626TIP3    H138293   2.005   2.193  13.448 -0.3851  0.2936  0.0223
 5626TIP3    H238294   1.873   2.267  13.438  0.1626  1.6197  1.9161
 5627TIP3   OH238295   0.141   3.781  10.911  0.3713  0.2516  0.0286
 5627TIP3    H138296   0.221   3.728  10.912  0.7540  0.7691 -1.3317
 5627TIP3    H238297   0.143   3.826  10.827 -0.8527  1.0570  0.4060
 5628TIP3   OH238298   0.829   5.273   3.745  0.5631  0.6723  0.1923
 5628TIP3    H138299   0.752   5.230   3.783  0.2486  1.7014  0.7541
 5628TIP3    H238300   0.834   5.239   3.656  1.0078 -1.4055  0.9427
 5629TIP3   OH238301   1.459   4.035   4.502  0.5162  0.0210 -0.2913
 5629TIP3    H138302   1.387   4.095   4.480 -0.6380 -1.1118  0.3112
 5629TIP3    H238303   1.443   3.958   4.448  1.2437 -0.2708 -0.0968
 5630TIP3   OH238304   0.097   5.867  11.815 -0.5130  0.2282  0.7931
 5630TIP3    H138305   0.003   5.869  11.796 -0.7759  2.0736  2.0044
 5630TIP3    H238306   0.125   5.779  11.790 -2.9561 -1.0594  2.2656
 5631TIP3   OH238307   4.819   0.869  12.956 -0.1016  0.1714 -0.1431
 5631TIP3    H138308   4.904   0.830  12.939  0.2375  0.8450 -0.0339
 5631TIP3    H238309   4.756   0.809  12.916  0.3376 -0.9316  0.7813
 5632TIP3   OH238310   6.095   1.468  12.121 -0.0466 -0.2778 -0.2612
 5632TIP3    H138311   6.181   1.490  12.085  0.6720  1.3047  2.1931
 5632TIP3    H238312   6.052   1.553  12.133 -1.3759 -0.9520 -0.0325
 5633TIP3   OH238313   2.036   6.088   1.181  0.5446  0.2656 -0.1793
 5633TIP3    H138314   2.020   5.994   1.178 -0.6056  0.4446 -0.2544
 5633TIP3    H238315   2.029   6.111   1.274 -1.3725  0.5857 -0.3445
 5634TIP3   OH238316   6.361   1.897  17.160 -0.1717 -0.2400  0.1945
 5634TIP3    H138317   6.392   1.901  17.250 -2.5342 -1.7013  1.1515
 5634TIP3    H238318   6.341   1.805  17.145  0.1048 -0.0147 -1.8251
 5635TIP3   OH238319   1.333   3.146   0.600  0.5791  0.4218  0.0576
 5635TIP3    H138320   1.276   3.161   0.676  2.5095 -0.2601  1.7174
 5635TIP3    H238321   1.349   3.052   0.600 -0.8549  0.0641 -2.4007
 5636TIP3   OH238322   0.191   1.838  12.560  0.3646 -0.1118  0.2544
 5636TIP3    H138323   0.121   1.891  12.599  0.1583  0.4571 -0.8529
 5636TIP3    H238324   0.146   1.784  12.495  0.5340 -1.8457  1.4986
 5637TIP3   OH238325   5.192   3.626  11.356 -0.1417 -0.0157 -0.0156
 5637TIP3    H138326   5.173   3.680  11.433  1.9890  0.3745  0.2929
 5637TIP3    H238327   5.106   3.609  11.317 -1.1678  0.6817  1.8332
 5638TIP3   OH238328   5.768   0.439  13.625 -0.2570 -0.1159 -0.1429
 5638TIP3    H138329   5.726   0.354  13.637 -1.3220  0.4982  0.7526
 5638TIP3    H238330   5.773   0.451  13.530 -2.4163 -0.1141 -0.3150
 5639TIP3   OH238331   1.854   6.116  14.282  0.2640 -0.0978 -0.2366
 5639TIP3    H138332   1.855   6.209  14.306  0.9582  0.1709 -1.2625
 5639TIP3    H238333   1.926   6.106  14.220 -0.0834 -1.2357 -0.4818
 5640TIP3   OH238334   1.886   1.018   4.477  0.2588  0.0928 -0.3108
 5640TIP3    H138335   1.970   1.028   4.433  0.2810  0.7661 -0.1192
 5640TIP3    H238336   1.830   1.085   4.437  0.2328  0.6112  0.5697
 5641TIP3   OH238337   2.948   5.883   3.466  0.7641  0.1488  0.5659
 5641TIP3    H138338   2.936   5.967   3.510  1.2438  0.2504  0.5046
 5641TIP3    H238339   3.039   5.859   3.484  0.3018 -0.9467  1.6170
 5642TIP3   OH238340   4.155   3.189   4.327  0.2580  0.2077  0.1143
 5642TIP3    H138341   4.094   3.261   4.342 -1.0849 -0.7642 -0.4756
 5642TIP3    H238342   4.236   3.231   4.299  0.6426  1.6934  3.0434
 5643TIP3   OH238343   6.241   4.084  14.380 -0.4963 -0.6447 -0.3367
 5643TIP3    H138344   6.332   4.109  14.366 -0.3831 -0.5766  0.4408
 5643TIP3    H238345   6.207   4.066  14.293 -0.1141  0.6199 -0.7740
 5644TIP3   OH238346   1.828   0.103   6.890 -0.2493  0.6847  0.0529
 5644TIP3    H138347   1.901   0.041   6.882  0.5059  1.4912  0.5727
 5644TIP3    H238348   1.804   0.124   6.800 -1.1659 -1.0940 -0.1598
 5645TIP3   OH238349   0.526   1.096  11.167  0.1335  0.3496 -0.4571
 5645TIP3    H138350   0.475   1.148  11.103  1.9547  2.1887 -0.5156
 5645TIP3    H238351   0.502   1.133  11.252  0.4198  0.3664 -0.3837
 5646TIP3   OH238352   5.232   5.462   4.749  0.0092  0.2501  0.1252
 5646TIP3    H138353   5.312   5.486   4.702 -0.6189  1.8558 -0.2050
 5646TIP3    H238354   5.172   5.431   4.681  0.2091 -0.5579  0.3153
 5647TIP3   OH238355   3.075   5.749   2.187  0.0022  0.0476  0.5136
 5647TIP3    H138356   3.024   5.679   2.145  1.1704 -1.1921  1.1016
 5647TIP3    H238357   3.110   5.799   2.113 -0.1661 -0.4776  0.0660
 5648TIP3   OH238358   4.427   4.319  15.092  0.3822 -0.0116  0.5569
 5648TIP3    H138359   4.423   4.276  15.178 -0.2479  1.2126  1.1775
 5648TIP3    H238360   4.364   4.271  15.038  0.1391 -0.2467  1.0419
 5649TIP3   OH238361   5.868   3.320  13.637 -0.1413  1.0514  0.1541
 5649TIP3    H138362   5.848   3.238  13.592 -1.3867  0.3529  1.9089
 5649TIP3    H238363   5.931   3.364  13.579  0.2316 -0.9242 -1.0271
 5650TIP3   OH238364   0.083   2.373   3.936 -0.4766 -0.0949 -0.7221
 5650TIP3    H138365   0.149   2.392   3.869 -1.4376  0.0513 -1.6512
 5650TIP3    H238366   0.083   2.451   3.992  0.2635 -0.1759 -0.5938
 5651TIP3   OH238367   0.103   2.118  17.016 -0.4700  0.4725  0.8118
 5651TIP3    H138368   0.016   2.129  17.054 -0.1896  1.4683  1.2027
 5651TIP3    H238369   0.161   2.171  17.071  0.2994  0.2498  0.2487
 5652TIP3   OH238370   1.992   0.484  14.186  0.3034  0.2403 -0.2053
 5652TIP3    H138371   2.075   0.511  14.226  0.5213 -0.2296 -0.3291
 5652TIP3    H238372   2.016   0.412  14.128 -0.4960 -1.3182  1.3146
 5653TIP3   OH238373   1.752   0.179   4.280  0.1664 -0.3524 -0.4426
 5653TIP3    H138374   1.722   0.183   4.189 -0.1844 -0.3327 -0.3273
 5653TIP3    H238375   1.690   0.232   4.328  0.5477 -0.0895 -0.2373
 5654TIP3   OH238376   5.264   5.056   1.079  0.3668  0.6933 -0.3514
 5654TIP3    H138377   5.233   4.995   1.013  0.6401  1.0768 -0.8451
 5654TIP3    H238378   5.273   5.003   1.159  0.7507  0.0532 -0.8087
 5655TIP3   OH238379   1.247   1.300   3.045  0.7526 -0.4724  0.8697
 5655TIP3    H138380   1.192   1.261   3.113  1.1852 -0.3893  1.2755
 5655TIP3    H238381   1.308   1.356   3.093  1.1368 -0.4995  0.4225
 5656TIP3   OH238382   4.956   4.023   5.855  0.1988 -0.0785  0.2081
 5656TIP3    H138383   4.972   3.955   5.790 -1.4339 -0.2712 -0.0485
 5656TIP3    H238384   4.947   4.104   5.804  1.4975  0.2393  0.4540
 5657TIP3   OH238385   6.189   1.858   1.710  0.7927  0.0815 -0.0303
 5657TIP3    H138386   6.215   1.787   1.768 -0.1184 -0.2090  0.0451
 5657TIP3    H238387   6.239   1.934   1.740  1.9191 -0.5683 -0.2356
 5658TIP3   OH238388   5.454   2.929  12.859  0.0784  0.2791 -0.0395
 5658TIP3    H138389   5.485   2.868  12.926  2.7473  0.3373 -1.0793
 5658TIP3    H238390   5.471   3.015  12.897 -0.5067  0.3496  0.0716
 5659TIP3   OH238391   5.573   6.060   5.156 -0.4804 -0.0192 -0.0270
 5659TIP3    H138392   5.511   6.017   5.215 -0.8510 -0.9012 -1.0287
 5659TIP3    H238393   5.521   6.090   5.082  0.3375 -1.3060 -1.1745
 5660TIP3   OH238394   0.926   3.266  11.789 -0.5868  0.0387  0.2762
 5660TIP3    H138395   0.907   3.327  11.718  0.4032  0.0076 -0.0274
 5660TIP3    H238396   0.919   3.318  11.869 -1.0085  0.2394  0.1090
 5661TIP3   OH238397   6.252   3.204  11.678 -0.5221  0.2627  0.2273
 5661TIP3    H138398   6.296   3.119  11.677 -3.8225 -1.6138  0.2159
 5661TIP3    H238399   6.218   3.212  11.767 -2.1894  0.4357 -0.4004
 5662TIP3   OH238400   2.561   0.440   4.933 -0.1450  0.2468 -0.5539
 5662TIP3    H138401   2.653   0.440   4.908 -0.2156  0.3050 -0.8114
 5662TIP3    H238402   2.560   0.397   5.019  0.1002  0.0858 -0.6299
 5663TIP3   OH238403   0.959   4.747  16.777 -0.1334  0.0222 -0.2267
 5663TIP3    H138404   0.974   4.782  16.865  0.3683  0.2818 -0.4135
 5663TIP3    H238405   0.912   4.817  16.732 -0.3930 -0.1122 -0.1673
 5664TIP3   OH238406   4.324   0.794  15.061  0.5845  0.2837 -0.3937
 5664TIP3    H138407   4.394   0.845  15.101  1.7272 -0.8227 -0.9156
 5664TIP3    H238408   4.359   0.705  15.055 -1.8956 -0.9927  1.9084
 5665TIP3   OH238409   0.836   2.356  13.703 -0.6983  0.2894  0.3390
 5665TIP3    H138410   0.859   2.440  13.742  2.2305  0.2200 -1.0058
 5665TIP3    H238411   0.803   2.379  13.616  2.0886  0.0925 -0.8805
 5666TIP3   OH238412   5.565   0.842  11.980  0.0882 -0.1569  0.4047
 5666TIP3    H138413   5.562   0.862  12.074  2.7413 -0.9564  0.7391
 5666TIP3    H238414   5.507   0.907  11.940 -0.4711  0.7283  2.5038
 5667TIP3   OH238415   2.782   0.631  12.397 -0.0250  0.3968  0.0635
 5667TIP3    H138416   2.837   0.700  12.358 -0.7133 -0.5348 -2.8357
 5667TIP3    H238417   2.791   0.643  12.491  2.6455  2.2241 -0.3255
 5668TIP3   OH238418   4.639   2.537  15.473  0.3883 -0.3360  0.5527
 5668TIP3    H138419   4.686   2.573  15.549  1.1483  1.8955 -0.8818
 5668TIP3    H238420   4.709   2.508  15.414 -0.1647 -0.8163  0.1240
 5669TIP3   OH238421   4.169   1.998  14.488 -0.0297 -0.1525  0.3864
 5669TIP3    H138422   4.090   2.049  14.502 -0.5158 -1.1681  1.4975
 5669TIP3    H238423   4.239   2.049  14.528 -0.0361  0.9038 -0.8778
 5670TIP3   OH238424   4.579   5.956  13.720 -0.3694  0.5592  0.4346
 5670TIP3    H138425   4.609   5.865  13.713  0.7229  0.9352  0.0478
 5670TIP3    H238426   4.509   5.963  13.655  1.6454  0.8004 -1.8545
 5671TIP3   OH238427   5.503   3.558  12.075  0.0272 -1.1312 -0.2085
 5671TIP3    H138428   5.434   3.496  12.100  0.0564 -0.8231  0.6363
 5671TIP3    H238429   5.567   3.554  12.146  0.2855 -0.5175 -0.3999
 5672TIP3   OH238430   5.013   1.177  11.348 -0.2080  0.2540  0.3139
 5672TIP3    H138431   5.053   1.100  11.390 -0.8281 -0.3198 -0.1253
 5672TIP3    H238432   4.974   1.142  11.268  0.7016  1.2727 -0.6062
 5673TIP3   OH238433   2.688   1.707   2.439  0.4822  0.0483  0.0463
 5673TIP3    H138434   2.630   1.633   2.452  2.1561 -1.3999 -0.4057
 5673TIP3    H238435   2.668   1.738   2.351  1.6983 -1.7098 -0.9052
 5674TIP3   OH238436   3.558   0.753  11.943  0.2501  0.5211 -0.4441
 5674TIP3    H138437   3.606   0.686  11.992  1.1893  0.3346 -1.5834
 5674TIP3    H238438   3.606   0.834  11.963 -0.6332  0.8166  0.5946
 5675TIP3   OH238439   5.189   6.120   0.547 -0.3714 -0.2330  0.0144
 5675TIP3    H138440   5.141   6.200   0.527 -1.3547 -1.0966 -1.2347
 5675TIP3    H238441   5.135   6.073   0.610 -0.3488 -0.4449 -0.1237
 5676TIP3   OH238442   2.508   2.228  14.381  0.0218  0.3661  0.5509
 5676TIP3    H138443   2.425   2.235  14.429  0.8211  0.6999  1.9457
 5676TIP3    H238444   2.561   2.301  14.414  0.9566  0.0274 -0.1510
 5677TIP3   OH238445   0.700   0.694   1.462  0.3049  0.2970 -0.5997
 5677TIP3    H138446   0.673   0.692   1.554 -0.3744 -0.0060 -0.7982
 5677TIP3    H238447   0.620   0.676   1.413  0.5854  0.8315 -1.2699
 5678TIP3   OH238448   2.508   2.170   2.863 -0.8000 -0.1625  0.4862
 5678TIP3    H138449   2.543   2.240   2.919 -1.9262  0.5981  0.2688
 5678TIP3    H238450   2.558   2.093   2.888 -0.9535  0.2553  2.2291
 5679TIP3   OH238451   2.832   3.038  14.467 -0.2468 -0.2731 -0.1001
 5679TIP3    H138452   2.772   2.975  14.506  0.1201 -2.3870 -2.6606
 5679TIP3    H238453   2.902   2.984  14.430  1.5864  1.8824  0.0017
 5680TIP3   OH238454   0.261   4.154   4.067  0.3823 -0.2443  0.3876
 5680TIP3    H138455   0.169   4.159   4.095 -0.0091 -0.0651 -0.8905
 5680TIP3    H238456   0.311   4.170   4.147 -0.7013  1.5622  0.7610
 5681TIP3   OH238457   3.992   1.154   4.768  0.6105  0.0871  0.0396
 5681TIP3    H138458   3.940   1.208   4.828 -0.4872  0.3420 -1.1102
 5681TIP3    H238459   4.070   1.206   4.749  0.3208  0.5756  0.1951
 5682TIP3   OH238460   5.733   4.860  17.048  0.2205 -0.4144  0.1198
 5682TIP3    H138461   5.793   4.786  17.037 -0.4626 -0.7121 -1.9694
 5682TIP3    H238462   5.791   4.936  17.062  0.9578 -1.1554  1.2733
 5683TIP3   OH238463   1.689   4.928   3.679  0.1555 -0.0393 -0.5074
 5683TIP3    H138464   1.617   4.975   3.721 -0.5523  0.7366 -2.4809
 5683TIP3    H238465   1.755   4.995   3.663  0.4423 -0.3345 -0.5527
 5684TIP3   OH238466   2.269   1.894  12.877  0.0738 -0.7020 -0.0182
 5684TIP3    H138467   2.244   1.805  12.854 -1.0171 -0.0943 -1.3537
 5684TIP3    H238468   2.223   1.949  12.814  1.5817  0.7511  0.0583
 5685TIP3   OH238469   1.178   2.649   3.342 -0.3122 -0.6084 -0.1720
 5685TIP3    H138470   1.157   2.707   3.268 -2.2911 -0.9662  0.0318
 5685TIP3    H238471   1.110   2.581   3.339  0.0347 -1.0848  1.4850
 5686TIP3   OH238472   0.214   1.558   1.730 -0.1967  0.3164 -0.5193
 5686TIP3    H138473   0.255   1.549   1.816 -0.2576  0.7484 -0.4406
 5686TIP3    H238474   0.196   1.468   1.703  0.7138  0.1187 -0.5160
 5687TIP3   OH238475   3.831   2.472   5.260 -0.0212  0.1408  0.1770
 5687TIP3    H138476   3.829   2.552   5.208 -1.7093 -0.6914 -1.1391
 5687TIP3    H238477   3.818   2.502   5.351 -0.6779  1.3479 -0.2900
 5688TIP3   OH238478   4.183   0.850  16.533 -0.4834  0.3047 -0.2790
 5688TIP3    H138479   4.222   0.817  16.452 -0.1609 -0.0095  0.0036
 5688TIP3    H238480   4.136   0.775  16.569 -0.7807  0.4950 -0.2639
 5689TIP3   OH238481   2.574   4.894  14.211 -0.3058  0.4252 -0.0385
 5689TIP3    H138482   2.558   4.924  14.301  2.5895 -0.0355  0.7423
 5689TIP3    H238483   2.617   4.969  14.169 -0.0194  0.0309 -0.4536
 5690TIP3   OH238484   3.659   6.698   1.489  0.3295  0.1920  0.0384
 5690TIP3    H138485   3.671   6.662   1.401 -1.4524  1.0629 -0.6144
 5690TIP3    H238486   3.564   6.691   1.505  0.5902  0.2706  1.8047
 5691TIP3   OH238487   4.215   2.413   0.555  0.7194 -0.5495  0.2718
 5691TIP3    H138488   4.184   2.334   0.600 -0.7344 -0.2555 -0.1441
 5691TIP3    H238489   4.135   2.457   0.528  1.4856  1.3600  0.9580
 5692TIP3   OH238490   2.311   3.095  15.481  0.2448  0.6658 -0.5314
 5692TIP3    H138491   2.306   3.028  15.549 -0.2374  3.7186  2.7530
 5692TIP3    H238492   2.404   3.115  15.473  0.2799  0.4837 -0.5746
 5693TIP3   OH238493   3.001   3.107  12.750  0.6356  0.1722 -0.2838
 5693TIP3    H138494   2.988   3.034  12.811 -3.3086  1.8715  1.2568
 5693TIP3    H238495   3.022   3.182  12.805 -1.9643  1.5233 -0.9406
 5694TIP3   OH238496   3.717   2.411   4.161  0.4168 -0.3402 -0.3200
 5694TIP3    H138497   3.663   2.370   4.093  1.9518 -0.7797 -1.3173
 5694TIP3    H238498   3.654   2.453   4.219 -1.0194 -1.2186 -1.1862
 5695TIP3   OH238499   1.291   0.198  16.140 -0.5767 -0.3774  0.2733
 5695TIP3    H138500   1.363   0.224  16.083  1.0229  0.3927  2.4704
 5695TIP3    H238501   1.286   0.269  16.205 -3.2363 -0.4967  0.2981
 5696TIP3   OH238502   2.280   4.042   1.647  0.1136  0.1571 -0.1029
 5696TIP3    H138503   2.190   4.067   1.625  0.7651  1.3197 -1.6113
 5696TIP3    H238504   2.302   4.096   1.723 -0.2801  0.2532 -0.0547
 5697TIP3   OH238505   4.669   0.827   6.262 -0.0306 -0.8962 -0.4525
 5697TIP3    H138506   4.628   0.741   6.263 -0.4848 -0.6960 -1.1564
 5697TIP3    H238507   4.632   0.872   6.338 -0.9532 -0.7998 -0.9442
 5698TIP3   OH238508   5.649   0.066  16.488 -0.1144 -0.5433 -0.4048
 5698TIP3    H138509   5.567   0.075  16.440  0.1864  0.9989 -0.6980
 5698TIP3    H238510   5.624   0.073  16.580 -0.6533 -3.2038 -0.2842
 5699TIP3   OH238511   4.366   3.378   2.461  0.6937 -0.7424  0.0361
 5699TIP3    H138512   4.458   3.379   2.487  0.4605 -0.4943  0.8943
 5699TIP3    H238513   4.350   3.289   2.429  1.0789 -0.9627  0.4535
 5700TIP3   OH238514   5.259   1.816   3.968  0.2695 -0.6497  0.6231
 5700TIP3    H138515   5.252   1.817   4.063  2.4603  1.5708  0.8430
 5700TIP3    H238516   5.347   1.783   3.950  1.2106  2.0690 -0.3773
 5701TIP3   OH238517   6.701   6.044  15.641  0.2017 -0.3273 -0.0472
 5701TIP3    H138518   6.616   6.080  15.612 -0.2249 -1.2024  0.0861
 5701TIP3    H238519   6.727   6.102  15.712 -1.0439 -0.9215  0.9416
 5702TIP3   OH238520   3.692   0.430   2.600 -0.0120 -0.2008 -0.6354
 5702TIP3    H138521   3.784   0.408   2.614 -0.2769 -0.8145  0.1660
 5702TIP3    H238522   3.694   0.521   2.570  0.8187 -0.0579 -0.1742
 5703TIP3   OH238523   3.391   5.295  11.180 -0.0788  0.1105 -0.0246
 5703TIP3    H138524   3.330   5.225  11.202  0.0723  0.0796  0.3065
 5703TIP3    H238525   3.472   5.250  11.158  0.3589  0.2069  1.2767
 5704TIP3   OH238526   1.996   4.750   1.769  0.2961  0.3180  0.0665
 5704TIP3    H138527   2.011   4.673   1.714  2.2746  1.2625 -0.7948
 5704TIP3    H238528   2.014   4.721   1.858  0.0521 -0.4515 -0.1321
 5705TIP3   OH238529   5.798   4.924  16.206 -0.8526  0.0968  0.6756
 5705TIP3    H138530   5.791   4.848  16.264  2.0426 -1.5795 -0.9463
 5705TIP3    H238531   5.831   4.994  16.262  0.2181 -0.9923  1.4548
 5706TIP3   OH238532   1.067   0.292   4.720 -0.5881  0.2389  0.2358
 5706TIP3    H138533   1.132   0.334   4.775  0.3945 -0.3817 -0.4145
 5706TIP3    H238534   1.004   0.361   4.700  1.1113  1.5324 -1.0123
 5707TIP3   OH238535   0.531   5.110   4.900  0.6300 -0.3089 -0.5534
 5707TIP3    H138536   0.481   5.051   4.844  0.2451 -0.1086 -0.4215
 5707TIP3    H238537   0.550   5.186   4.844  2.1803 -1.0603 -1.1173
 5708TIP3   OH238538   1.787   2.282  16.363 -0.3563  0.8502 -0.6025
 5708TIP3    H138539   1.863   2.301  16.418 -0.8660 -0.8290  0.7540
 5708TIP3    H238540   1.755   2.369  16.337  0.0188  1.7242  1.6044
 5709TIP3   OH238541   1.276   3.558  12.520  0.2958 -0.3628 -0.4366
 5709TIP3    H138542   1.301   3.650  12.504  0.0157 -0.0718  0.7711
 5709TIP3    H238543   1.359   3.514  12.540  0.4597 -0.4349 -1.2241
 5710TIP3   OH238544   3.815   4.084   1.458  0.6072 -0.0847 -0.6772
 5710TIP3    H138545   3.768   4.013   1.502 -1.9620  0.7792 -1.7945
 5710TIP3    H238546   3.762   4.162   1.477  2.3110  1.2098 -1.0274
 5711TIP3   OH238547   4.920   0.289   3.122  0.1702  0.5986 -0.6608
 5711TIP3    H138548   4.974   0.263   3.047  0.1727 -0.1618 -0.4036
 5711TIP3    H238549   4.984   0.307   3.192  0.1451  0.8736 -0.7064
 5712TIP3   OH238550   1.776   1.266  11.317 -0.1405  0.3184 -0.1724
 5712TIP3    H138551   1.704   1.262  11.254  0.5260  1.1132 -1.0222
 5712TIP3    H238552   1.843   1.319  11.273  0.7619  0.0144  0.7949
 5713TIP3   OH238553   2.912   1.016   0.850  0.5677  0.4177 -0.2822
 5713TIP3    H138554   2.852   0.942   0.849 -0.9247  1.5642 -0.3218
 5713TIP3    H238555   2.950   1.018   0.762 -0.8335  0.7868 -0.9090
 5714TIP3   OH238556   4.215   3.702   5.522  0.3818 -0.0586  0.3500
 5714TIP3    H138557   4.255   3.740   5.599  0.9378 -0.5353  0.3002
 5714TIP3    H238558   4.135   3.660   5.555 -0.1805  1.0137  0.4225
 5715TIP3   OH238559   2.965   0.339   1.454 -0.5640 -0.3577 -0.2922
 5715TIP3    H138560   3.050   0.298   1.441 -0.7444 -1.2941  1.1324
 5715TIP3    H238561   2.962   0.359   1.548 -1.0896  1.6041 -0.6870
 5716TIP3   OH238562   0.227   1.876   5.408  0.4752 -0.0745 -0.6494
 5716TIP3    H138563   0.307   1.824   5.412  0.2146 -0.5011 -0.9851
 5716TIP3    H238564   0.234   1.926   5.327  0.8682  0.6566 -0.1766
 5717TIP3   OH238565   2.080   2.068   2.923  0.6015  0.3522 -0.2314
 5717TIP3    H138566   2.025   2.074   2.844 -0.1234  2.3453  0.3482
 5717TIP3    H238567   2.032   2.008   2.981  0.9182 -0.7768 -1.0965
 5718TIP3   OH238568   0.146   3.120   3.666 -0.3363 -0.3233 -0.3445
 5718TIP3    H138569   0.219   3.065   3.637 -0.1058 -1.1234  1.5671
 5718TIP3    H238570   0.188   3.201   3.695 -0.2151 -0.6615  0.4571
 5719TIP3   OH238571   4.443   2.362   2.033 -0.1688  0.1399 -0.9835
 5719TIP3    H138572   4.448   2.455   2.011 -2.0869 -0.5005 -4.8178
 5719TIP3    H238573   4.350   2.345   2.044  0.1890 -1.3171  0.0795
 5720TIP3   OH238574   6.588   1.614   1.433 -0.2058  0.7007 -0.6099
 5720TIP3    H138575   6.592   1.573   1.346  0.2039  1.2950 -0.8738
 5720TIP3    H238576   6.525   1.685   1.423  0.5772  1.4022 -0.6967
 5721TIP3   OH238577   5.630   6.711   1.779 -0.2724  0.4627  0.1134
 5721TIP3    H138578   5.670   6.657   1.712  2.3518  0.8187  1.2634
 5721TIP3    H238579   5.553   6.750   1.737  1.9966  1.7832 -3.1803
 5722TIP3   OH238580   4.835   4.039  10.979 -0.3850  0.0836 -1.0962
 5722TIP3    H138581   4.922   4.077  10.963 -1.9055  3.2074 -2.8193
 5722TIP3    H238582   4.820   4.051  11.073  0.7846  0.0398 -0.8893
 5723TIP3   OH238583   6.013   6.380   1.440 -0.0215  0.3229 -0.3934
 5723TIP3    H138584   6.065   6.452   1.407  0.9454 -0.8347 -1.4894
 5723TIP3    H238585   6.066   6.341   1.510 -1.2532  1.6175  1.3723
 5724TIP3   OH238586   2.055   3.854  16.458 -0.1209  0.4210 -0.1407
 5724TIP3    H138587   2.010   3.803  16.524  2.8426 -3.6959 -0.8961
 5724TIP3    H238588   2.148   3.842  16.478  0.8200  3.1185 -2.2583
 5725TIP3   OH238589   6.133   4.848  16.711 -0.2276 -0.3966 -0.6822
 5725TIP3    H138590   6.226   4.841  16.689 -0.5386  0.2144 -2.3551
 5725TIP3    H238591   6.123   4.936  16.745  0.0804 -1.0353  1.1955
 5726TIP3   OH238592   4.738   0.397   2.375  0.2364 -1.2148 -0.4533
 5726TIP3    H138593   4.827   0.416   2.406 -0.1830 -1.4838  0.9516
 5726TIP3    H238594   4.694   0.356   2.450 -0.3687 -3.2930 -1.8561
 5727TIP3   OH238595   5.769   1.122  13.411 -0.5750 -0.5263  0.6756
 5727TIP3    H138596   5.797   1.163  13.329  1.0116 -1.0251  0.9456
 5727TIP3    H238597   5.845   1.126  13.468 -0.4931 -3.2894  0.9182
 5728TIP3   OH238598   3.988   5.598   4.419  0.2570 -0.3221 -0.2300
 5728TIP3    H138599   4.012   5.580   4.510 -1.0464 -0.4730  0.1047
 5728TIP3    H238600   3.920   5.534   4.399  3.0433 -2.8656 -2.5660
 5729TIP3   OH238601   4.117   2.262  16.939 -0.1789 -0.0452 -0.1115
 5729TIP3    H138602   4.022   2.270  16.938 -0.0987  0.9841 -1.0135
 5729TIP3    H238603   4.135   2.198  17.008 -1.6141 -1.8366 -1.3054
 5730TIP3   OH238604   4.577   0.824  16.772 -0.6589  0.7773 -0.1825
 5730TIP3    H138605   4.618   0.764  16.710  2.0525  1.0447  1.2109
 5730TIP3    H238606   4.497   0.779  16.799 -0.5598 -0.5156 -1.8675
 5731TIP3   OH238607   2.219   4.098  10.639  0.0466 -0.2007 -0.0577
 5731TIP3    H138608   2.292   4.047  10.674  1.2611  0.7913 -1.0463
 5731TIP3    H238609   2.254   4.138  10.559 -1.4341  0.6856 -0.2894
 5732TIP3   OH238610   2.974   2.045   2.967  0.1292  0.0172  0.4293
 5732TIP3    H138611   2.942   2.015   2.882 -0.9829 -1.2263  1.2498
 5732TIP3    H238612   2.931   2.129   2.981 -2.1974 -1.2097  1.1056
 5733TIP3   OH238613   4.040   4.978  11.609  0.4064 -0.0538 -0.0349
 5733TIP3    H138614   3.986   4.989  11.530 -0.6788  0.4568  0.7547
 5733TIP3    H238615   4.026   4.887  11.635 -0.1835  0.1065  0.2299
 5734TIP3   OH238616   6.257   5.118  16.289 -0.4523  0.0180  0.0491
 5734TIP3    H138617   6.305   5.104  16.208 -0.0290 -0.7979  0.4353
 5734TIP3    H238618   6.239   5.031  16.323  0.2694  0.3367  1.3511
 5735TIP3   OH238619   0.656   5.551  16.770 -0.2754  0.7649  0.5573
 5735TIP3    H138620   0.740   5.538  16.724 -0.8674 -0.8159 -0.1565
 5735TIP3    H238621   0.679   5.554  16.862  0.4327 -1.8077  0.5511
 5736TIP3   OH238622   6.601   3.665  12.382  0.0775  0.4267  0.2079
 5736TIP3    H138623   6.601   3.578  12.421 -0.8686  1.0998  1.8066
 5736TIP3    H238624   6.670   3.662  12.316  0.4853 -1.3346  0.6780
 5737TIP3   OH238625   3.534   2.080   0.171 -0.1234 -0.1757 -1.0328
 5737TIP3    H138626   3.549   2.174   0.162 -1.8165  0.0925 -1.4044
 5737TIP3    H238627   3.452   2.064   0.123 -0.3632 -1.6636 -0.1884
 5738TIP3   OH238628   4.604   4.886  16.601 -0.7594 -0.0084  0.2124
 5738TIP3    H138629   4.588   4.878  16.695  0.3729 -1.9147  0.2805
 5738TIP3    H238630   4.612   4.796  16.569 -1.9406  0.5598 -1.8919
 5739TIP3   OH238631   0.843   6.434  14.124  0.5712 -0.0941  0.0577
 5739TIP3    H138632   0.850   6.465  14.215  0.8253  0.8189 -0.2575
 5739TIP3    H238633   0.759   6.389  14.120  0.2925  0.3612  0.6036
 5740TIP3   OH238634   2.633   5.070  15.462  0.5778  0.5211  0.1094
 5740TIP3    H138635   2.644   5.144  15.522  0.7118  1.7469 -1.3713
 5740TIP3    H238636   2.578   5.103  15.391 -0.8092 -1.3228  0.2286
 5741TIP3   OH238637   0.433   6.075  12.914 -0.2677 -0.1199  0.3014
 5741TIP3    H138638   0.521   6.044  12.936 -0.5892  0.5366  2.8450
 5741TIP3    H238639   0.394   6.004  12.864  1.7933 -0.2783 -1.2408
 5742TIP3   OH238640   0.319   1.833   6.039 -0.1774  0.0644 -0.1270
 5742TIP3    H138641   0.225   1.816   6.038 -0.3033  0.6624 -1.6361
 5742TIP3    H238642   0.327   1.927   6.024  0.6431  0.3706  1.9658
 5743TIP3   OH238643   0.305   5.041   5.366  0.0083 -0.7868  0.7367
 5743TIP3    H138644   0.348   5.080   5.290  0.5937  0.0259  1.4577
 5743TIP3    H238645   0.376   4.996   5.413 -0.2561 -0.8742  1.0525
 5744TIP3   OH238646   3.409   0.642   2.071 -0.7373  0.0925  0.4745
 5744TIP3    H138647   3.322   0.677   2.087 -0.2952  0.3378  2.5767
 5744TIP3    H238648   3.441   0.614   2.157  1.2758  0.0516 -0.2212
 5745TIP3   OH238649   2.234   4.817   1.162  0.0610  0.1507 -0.2243
 5745TIP3    H138650   2.217   4.730   1.128  0.1599 -0.4157  1.0981
 5745TIP3    H238651   2.308   4.806   1.221  1.0069  1.4193 -1.1372
 5746TIP3   OH238652   2.543   1.659  13.849 -0.2909 -0.5699  0.5918
 5746TIP3    H138653   2.478   1.658  13.919  0.2352  0.7372  1.1393
 5746TIP3    H238654   2.493   1.645  13.769 -1.0186 -1.2294  1.1551
 5747TIP3   OH238655   4.536   6.038  14.205 -0.6642  0.1626 -0.0869
 5747TIP3    H138656   4.610   6.015  14.261  0.8055  0.4231 -1.8095
 5747TIP3    H238657   4.532   5.967  14.140 -0.0408  1.5479 -1.7252
 5748TIP3   OH238658   2.986   6.206  14.882  0.0729 -0.4596 -0.0855
 5748TIP3    H138659   3.062   6.202  14.940  1.2092 -0.9276 -1.5359
 5748TIP3    H238660   2.935   6.128  14.905  0.8199 -0.9700 -0.1181
 5749TIP3   OH238661   6.528   2.131  15.382  0.2883  0.6643  0.5846
 5749TIP3    H138662   6.492   2.138  15.470 -1.5691 -0.1461 -0.0627
 5749TIP3    H238663   6.550   2.221  15.357 -0.6376  1.0926  1.2934
 5750TIP3   OH238664   2.717   1.132   3.821 -0.5093 -0.0531  0.7040
 5750TIP3    H138665   2.654   1.122   3.749 -3.0545 -0.5331  2.8306
 5750TIP3    H238666   2.666   1.114   3.900  2.2298  0.0960  2.6471
 5751TIP3   OH238667   0.842   2.021   3.924 -0.1594 -0.3188 -0.3992
 5751TIP3    H138668   0.860   2.044   3.833 -1.5808  1.1970 -0.3440
 5751TIP3    H238669   0.853   2.103   3.973  2.9918 -1.5648  1.2677
 5752TIP3   OH238670   0.306   1.006  16.126 -0.1653 -0.0146 -0.1689
 5752TIP3    H138671   0.351   1.086  16.154  0.0849  0.3156 -1.4367
 5752TIP3    H238672   0.349   0.983  16.044  0.1447 -1.7816  0.4421
 5753TIP3   OH238673   2.785   3.758   3.554  0.5574  0.4864  0.6810
 5753TIP3    H138674   2.823   3.685   3.603 -0.7383 -0.0539  0.9118
 5753TIP3    H238675   2.805   3.739   3.462 -3.1871 -2.4342  0.2115
 5754TIP3   OH238676   6.147   5.121  16.803 -0.3012 -0.6299  0.2355
 5754TIP3    H138677   6.110   5.118  16.891 -0.1211  0.6474  0.3704
 5754TIP3    H238678   6.216   5.187  16.808 -1.8548  1.2763 -1.4179
 5755TIP3   OH238679   5.012   5.350   1.245 -0.1823 -0.1945  0.1254
 5755TIP3    H138680   4.934   5.354   1.190  0.4147 -2.5070 -1.0059
 5755TIP3    H238681   5.082   5.384   1.189  0.6039 -3.4221 -1.0521
 5756TIP3   OH238682   2.635   6.110   0.447  0.2469 -0.7388  0.4608
 5756TIP3    H138683   2.649   6.203   0.433  0.0807 -0.9402 -1.3430
 5756TIP3    H238684   2.661   6.094   0.538  0.4848  1.0053  0.7198
 5757TIP3   OH238685   3.911   3.947   0.974  0.1923  0.2582 -0.2312
 5757TIP3    H138686   3.966   3.933   1.051 -0.9207 -1.2181  0.3216
 5757TIP3    H238687   3.931   4.037   0.947  2.9900 -0.2472 -0.1626
 5758TIP3   OH238688   6.081   4.954  15.700  0.5924 -0.5196  0.2742
 5758TIP3    H138689   6.057   4.996  15.617  0.0234 -2.3795 -0.5497
 5758TIP3    H238690   6.055   5.018  15.767  3.5026  2.2231 -0.9674
 5759TIP3   OH238691   2.132   2.053  12.698  0.0393  0.4813  0.2094
 5759TIP3    H138692   2.039   2.039  12.720  0.0772  0.8578  0.6209
 5759TIP3    H238693   2.142   2.148  12.697  0.3379  0.4479 -0.2103
 5760TIP3   OH238694   4.500   6.719   1.327  0.6174  0.4330 -0.4747
 5760TIP3    H138695   4.526   6.629   1.311  0.0093  0.2706 -0.5764
 5760TIP3    H238696   4.445   6.715   1.405  0.6333  0.7242 -0.4458
 5761TIP3   OH238697   3.917   3.902   2.645 -0.3708 -0.0062  0.2474
 5761TIP3    H138698   4.006   3.911   2.610  0.4433 -0.5176  2.0704
 5761TIP3    H238699   3.877   3.834   2.590  1.2866 -1.6905  1.0023
 5762TIP3   OH238700   0.310   2.524  14.731  0.2052  0.3519 -0.7179
 5762TIP3    H138701   0.384   2.577  14.760 -0.2948  0.2779  0.7987
 5762TIP3    H238702   0.258   2.584  14.677 -0.4443  1.5388  1.1170
 5763TIP3   OH238703   1.346   5.052  13.390  0.6454 -0.5633  0.3735
 5763TIP3    H138704   1.352   5.135  13.344  1.3663  0.0145  1.4760
 5763TIP3    H238705   1.267   5.011  13.355 -0.0348  0.8365  0.2135
 5764TIP3   OH238706   5.295   4.254  13.090 -0.3406  0.5499 -0.3343
 5764TIP3    H138707   5.375   4.286  13.132  0.3553 -0.7015 -0.6633
 5764TIP3    H238708   5.317   4.247  12.997 -0.6312 -0.3681 -0.3465
 5765TIP3   OH238709   2.709   5.479   3.954  0.7153  0.0742 -0.0357
 5765TIP3    H138710   2.796   5.470   3.914  1.0486 -0.2505  0.7564
 5765TIP3    H238711   2.657   5.409   3.915  0.8606  0.1358 -0.3498
 5766TIP3   OH238712   1.622   4.480   5.173  0.5755  0.0356 -0.5703
 5766TIP3    H138713   1.607   4.502   5.265 -0.4376  0.6409 -0.8564
 5766TIP3    H238714   1.584   4.393   5.163  1.8983 -0.6030 -0.1155
 5767TIP3   OH238715   5.426   0.027  15.362 -0.1967  1.0788  0.2498
 5767TIP3    H138716   5.486   0.050  15.433  0.0168  0.8810  0.1319
 5767TIP3    H238717   5.482  -0.008  15.293 -0.5130  0.1782  0.4359
 5768TIP3   OH238718   6.538   0.686   2.814  0.0721 -0.0430 -0.2879
 5768TIP3    H138719   6.535   0.678   2.909  0.9034 -0.3491 -0.2762
 5768TIP3    H238720   6.536   0.595   2.783  0.7507  0.0169 -0.5214
 5769TIP3   OH238721   4.027   5.423  16.259  0.0970  0.4907 -0.4539
 5769TIP3    H138722   3.971   5.497  16.280 -1.7220 -0.5546 -1.3858
 5769TIP3    H238723   4.042   5.380  16.343 -2.4219 -0.4739 -0.4069
 5770TIP3   OH238724   6.464   5.675   3.641 -0.0683  0.0794 -0.4081
 5770TIP3    H138725   6.467   5.657   3.547 -4.9723 -1.5800 -0.5115
 5770TIP3    H238726   6.536   5.624   3.678  0.9427 -0.5844 -3.0584
 5771TIP3   OH238727   6.326   5.119  10.447  0.4088 -0.0550  0.3325
 5771TIP3    H138728   6.280   5.201  10.465  0.7257  0.3215 -0.5496
 5771TIP3    H238729   6.319   5.070  10.529 -0.3114  0.5938  0.6754
 5772TIP3   OH238730   1.548   4.710   4.462  0.2604  0.1056 -0.8738
 5772TIP3    H138731   1.611   4.697   4.534  0.7976 -0.3322 -1.4101
 5772TIP3    H238732   1.528   4.622   4.432  0.5851  0.3091 -1.7165
 5773TIP3   OH238733   6.263   3.497   5.177 -0.2973 -0.4401 -0.1641
 5773TIP3    H138734   6.306   3.511   5.261  0.6452  0.9896 -0.8576
 5773TIP3    H238735   6.334   3.474   5.117 -0.9586 -1.4390 -0.6053
 5774TIP3   OH238736   0.781   0.511   2.403 -0.8888  0.0698 -0.5899
 5774TIP3    H138737   0.828   0.535   2.482  0.0083  1.2800 -1.4675
 5774TIP3    H238738   0.806   0.420   2.386 -0.3751  0.1016 -0.0033
 5775TIP3   OH238739   0.105   0.258  15.319  0.1362 -0.0730  0.2235
 5775TIP3    H138740   0.136   0.175  15.282 -1.0934 -0.5651  0.2550
 5775TIP3    H238741   0.162   0.273  15.395 -0.0290 -1.2280  0.5985
 5776TIP3   OH238742   2.941   3.339   5.006 -0.0654 -0.1874 -0.5598
 5776TIP3    H138743   2.929   3.331   4.912 -1.3019 -1.6551 -0.3191
 5776TIP3    H238744   3.028   3.378   5.016  0.2186 -0.3049 -2.2911
 5777TIP3   OH238745   1.673   2.382  13.117  0.1449 -0.1759  0.0103
 5777TIP3    H138746   1.745   2.386  13.054 -0.3550  0.0545 -0.5563
 5777TIP3    H238747   1.686   2.299  13.163  1.2449  0.2392  0.4989
 5778TIP3   OH238748   6.391   4.230   1.874  0.0434 -1.0332  0.5540
 5778TIP3    H138749   6.431   4.198   1.793  2.4854  0.5164  1.0472
 5778TIP3    H238750   6.442   4.191   1.944  0.3787  0.5353  1.2385
 5779TIP3   OH238751   3.636   3.451   4.628 -0.3363 -0.1535  0.0256
 5779TIP3    H138752   3.627   3.367   4.583 -1.7713 -0.6454  1.1745
 5779TIP3    H238753   3.728   3.475   4.615  0.0213 -1.7315 -0.5951
 5780TIP3   OH238754   6.268   4.504  10.920 -0.1800  0.5112 -0.5069
 5780TIP3    H138755   6.250   4.478  11.010 -0.3351  0.6848 -0.4858
 5780TIP3    H238756   6.363   4.517  10.917  0.0361 -1.0178 -0.7877
 5781TIP3   OH238757   0.181   1.197   3.986  0.8204  0.3277  0.5162
 5781TIP3    H138758   0.188   1.118   4.039  1.1836  0.8480  1.2595
 5781TIP3    H238759   0.268   1.207   3.946  0.9561  0.6748  0.8956
 5782TIP3   OH238760   0.818   1.732  13.822  0.3540 -0.1916  0.2151
 5782TIP3    H138761   0.835   1.757  13.731 -0.7736 -0.1396  0.0052
 5782TIP3    H238762   0.755   1.660  13.815  1.0374 -0.8708  0.9291
 5783TIP3   OH238763   0.036   0.618   5.075  0.2462  0.0212 -0.5373
 5783TIP3    H138764   0.062   0.695   5.127  1.9512 -0.4253 -0.6673
 5783TIP3    H238765  -0.059   0.616   5.081  0.2670  1.2659  0.7316
 5784TIP3   OH238766   4.680   0.807  10.617 -0.5472  0.3525 -0.9010
 5784TIP3    H138767   4.615   0.741  10.639 -1.2668  0.9867 -1.0853
 5784TIP3    H238768   4.629   0.883  10.590  0.2689  0.5527 -1.9689
 5785TIP3   OH238769   1.256   2.244  12.786 -0.3631 -0.2323  0.3386
 5785TIP3    H138770   1.217   2.184  12.850  0.0715 -0.1415  0.6899
 5785TIP3    H238771   1.233   2.206  12.701 -0.9474 -0.3518  0.5441
 5786TIP3   OH238772   5.826   2.937   5.461 -0.2163  0.2553  0.1540
 5786TIP3    H138773   5.770   3.014   5.455 -0.9656 -0.3221 -0.6081
 5786TIP3    H238774   5.837   2.909   5.370  2.2035  0.9514  0.1729
 5787TIP3   OH238775   1.747   1.101   3.457 -0.5379 -0.6217  0.2919
 5787TIP3    H138776   1.656   1.121   3.435 -0.4742 -0.5688  0.0805
 5787TIP3    H238777   1.794   1.183   3.444 -0.3809 -0.7596 -0.0147
 5788TIP3   OH238778   5.156   3.307  16.721 -0.3242  0.2787  0.6260
 5788TIP3    H138779   5.224   3.295  16.788 -0.3276  1.3595  0.8373
 5788TIP3    H238780   5.186   3.383  16.671 -0.6851 -0.0878 -0.1649
 5789TIP3   OH238781   1.803   2.898   4.198  0.0040 -0.4488  0.3313
 5789TIP3    H138782   1.725   2.847   4.219 -0.4778 -0.5427 -1.5152
 5789TIP3    H238783   1.866   2.834   4.165 -0.1740 -0.0388 -0.8621
 5790TIP3   OH238784   6.651   1.742   5.939  0.0020  0.3789 -0.4478
 5790TIP3    H138785   6.621   1.788   6.017 -0.2915 -1.8327  0.8365
 5790TIP3    H238786   6.720   1.684   5.970  0.3515 -0.0613 -1.9663
 5791TIP3   OH238787   1.621   0.794   0.388 -0.1454  0.1322 -0.1273
 5791TIP3    H138788   1.621   0.842   0.471  1.7209 -0.2139  0.1262
 5791TIP3    H238789   1.623   0.862   0.321 -0.6624  0.4094  0.1345
 5792TIP3   OH238790   0.593   5.469  11.335 -0.3396 -0.0078 -0.0645
 5792TIP3    H138791   0.635   5.448  11.251 -2.5540 -0.9688 -1.0132
 5792TIP3    H238792   0.535   5.394  11.352  0.3945 -0.0976  2.6242
 5793TIP3   OH238793   2.731   3.396  16.989 -0.1911 -0.1192  0.2820
 5793TIP3    H138794   2.681   3.384  17.069  1.3736  1.6956  1.6446
 5793TIP3    H238795   2.667   3.389  16.919 -1.6316 -1.6724  1.6618
 5794TIP3   OH238796   2.892   5.897   0.464  0.0493  0.3358 -0.4796
 5794TIP3    H138797   2.814   5.922   0.514  1.0687  1.0147  0.8219
 5794TIP3    H238798   2.917   5.977   0.418  0.5262  0.3793 -0.1433
 5795TIP3   OH238799   0.036   2.864   3.589 -0.6851  0.0386  0.1822
 5795TIP3    H138800   0.071   2.950   3.565 -2.6111  0.4192 -1.5004
 5795TIP3    H238801  -0.024   2.882   3.661 -1.2546  0.1722 -0.3134
 5796TIP3   OH238802   2.365   4.986   5.574 -0.6751  0.0479 -0.3025
 5796TIP3    H138803   2.278   4.974   5.535 -1.4288  0.0167  1.2818
 5796TIP3    H238804   2.408   4.901   5.562 -1.2711 -0.2794 -0.1919
 5797TIP3   OH238805   6.038   5.306   2.544  0.2211  0.3324  0.2762
 5797TIP3    H138806   6.082   5.390   2.533 -0.0796  0.4583  0.0078
 5797TIP3    H238807   6.054   5.281   2.635  0.9556  0.3143  0.1487
 5798TIP3   OH238808   1.670   0.187   1.256  0.3083  0.4921 -0.0408
 5798TIP3    H138809   1.680   0.245   1.331 -0.7999 -0.6471  1.0477
 5798TIP3    H238810   1.700   0.102   1.287 -0.2867 -0.0343 -0.8484
 5799TIP3   OH238811   0.115   3.465  12.899 -0.1039  0.1797  0.6701
 5799TIP3    H138812   0.079   3.553  12.911 -2.1258 -0.1714 -2.0413
 5799TIP3    H238813   0.047   3.417  12.853  1.7856 -2.2051  0.1692
 5800TIP3   OH238814   5.869   2.616   4.725  0.4566 -0.1030 -0.5310
 5800TIP3    H138815   5.955   2.593   4.690  1.1126  1.1888  0.1717
 5800TIP3    H238816   5.817   2.536   4.714  1.5613 -0.7311 -1.4834
 5801TIP3   OH238817   4.594   0.255   5.719 -0.0331 -0.3435 -0.4083
 5801TIP3    H138818   4.637   0.300   5.792 -0.2489 -0.0184 -0.4848
 5801TIP3    H238819   4.598   0.316   5.646 -1.3576  0.0251 -0.1938
 5802TIP3   OH238820   2.717   0.620  15.111  0.0233  0.3500 -0.6139
 5802TIP3    H138821   2.722   0.714  15.127  0.9170  0.4451 -1.3584
 5802TIP3    H238822   2.626   0.604  15.085  0.4447  1.4354 -2.9609
 5803TIP3   OH238823   3.026   4.492   5.783 -0.0612 -0.1096  0.5417
 5803TIP3    H138824   3.096   4.499   5.718 -0.1591  0.2015  0.4698
 5803TIP3    H238825   3.057   4.424   5.843  0.0622 -0.3453  0.2151
 5804TIP3   OH238826   3.268   3.319   3.634 -0.3875 -0.2451  0.2615
 5804TIP3    H138827   3.363   3.319   3.619 -0.5357 -0.1834 -0.6782
 5804TIP3    H238828   3.259   3.344   3.727  0.5935 -2.1044  0.9094
 5805TIP3   OH238829   4.623   4.251  16.126  0.1634  0.2336 -0.4486
 5805TIP3    H138830   4.675   4.201  16.063  0.6362  0.0826  0.0549
 5805TIP3    H238831   4.535   4.216  16.118  0.5491 -0.8961  0.1137
 5806TIP3   OH238832   0.889   2.228  17.196  0.4187  0.2556 -0.1691
 5806TIP3    H138833   0.821   2.161  17.194 -0.0730  0.7545 -0.6293
 5806TIP3    H238834   0.968   2.184  17.166 -0.0124  0.0003 -0.9590
 5807TIP3   OH238835   1.258   0.830  11.159  0.2699 -0.7004  0.3451
 5807TIP3    H138836   1.204   0.856  11.233  0.2902 -1.4913  0.6447
 5807TIP3    H238837   1.211   0.863  11.082  0.2141  0.0578  0.6939
 5808TIP3   OH238838   6.245   5.299  14.219  0.3950  0.0619 -0.6175
 5808TIP3    H138839   6.173   5.238  14.204  0.2429  0.3630 -1.1755
 5808TIP3    H238840   6.274   5.282  14.308  1.0579 -1.5502 -1.1127
 5809TIP3   OH238841   4.407   4.746   2.652 -0.0887 -0.2272 -0.3877
 5809TIP3    H138842   4.399   4.651   2.658 -1.7580 -0.1252 -0.6034
 5809TIP3    H238843   4.357   4.779   2.727 -2.0004  0.5116 -1.8965
 5810TIP3   OH238844   0.602   4.452   2.145  0.2908 -0.4585  0.5114
 5810TIP3    H138845   0.525   4.415   2.101 -0.0264  0.0809  0.6112
 5810TIP3    H238846   0.675   4.399   2.112  0.0090 -0.3307 -0.3582
 5811TIP3   OH238847   3.611   1.193  14.690  0.2293 -0.3020  0.5150
 5811TIP3    H138848   3.578   1.122  14.745 -0.6254 -0.6270 -0.3773
 5811TIP3    H238849   3.706   1.179  14.686 -0.1304 -2.8701 -1.5708
 5812TIP3   OH238850   4.565   2.248  16.080 -0.2384  0.2168 -0.4865
 5812TIP3    H138851   4.500   2.315  16.062 -0.0727  0.6275  0.3530
 5812TIP3    H238852   4.558   2.233  16.174  1.8887  1.3933 -0.0589
 5813TIP3   OH238853   0.413   4.249  11.300  0.4035  0.2712 -0.1242
 5813TIP3    H138854   0.470   4.211  11.367  1.1887 -0.4237 -1.1579
 5813TIP3    H238855   0.449   4.218  11.217 -1.4277 -0.1170 -0.8283
 5814TIP3   OH238856   2.428   0.292   0.423  0.4633  0.1231  0.0993
 5814TIP3    H138857   2.355   0.278   0.363  1.1283  0.1960 -0.7410
 5814TIP3    H238858   2.386   0.313   0.507 -0.4823 -0.8305 -0.1110
 5815TIP3   OH238859   4.505   2.666   1.270 -0.6292 -0.5761  0.4872
 5815TIP3    H138860   4.588   2.713   1.271 -0.6469 -0.3854 -1.6548
 5815TIP3    H238861   4.482   2.655   1.362 -0.2365  2.8852  1.1379
 5816TIP3   OH238862   1.168   3.835  16.137 -0.6692  0.3947  0.1181
 5816TIP3    H138863   1.126   3.756  16.102  0.6518 -0.1170 -0.3929
 5816TIP3    H238864   1.202   3.808  16.222 -2.4181  1.1650  1.1051
 5817TIP3   OH238865   6.549   2.400  11.186 -0.0179 -0.1741 -0.6494
 5817TIP3    H138866   6.531   2.362  11.100 -0.4226 -1.1534 -0.1414
 5817TIP3    H238867   6.594   2.483  11.166  0.5674 -0.7350 -1.7899
 5818TIP3   OH238868   6.614   5.876  16.144  0.5772  0.3826 -0.3946
 5818TIP3    H138869   6.641   5.873  16.053  0.6842 -1.1143 -0.3349
 5818TIP3    H238870   6.643   5.792  16.181 -3.0976 -0.9349 -0.0655
 5819TIP3   OH238871   5.979   4.120   1.804 -0.0962 -0.2911  0.0856
 5819TIP3    H138872   6.050   4.056   1.799 -0.6894 -0.9312 -0.2272
 5819TIP3    H238873   5.990   4.173   1.725  1.1165  0.7868  0.9275
 5820TIP3   OH238874   5.103   5.642  12.865 -0.1044 -0.1878 -0.0473
 5820TIP3    H138875   5.106   5.547  12.874  0.6327 -0.0014  2.0928
 5820TIP3    H238876   5.179   5.663  12.810 -0.1121 -0.7973 -0.3027
 5821TIP3   OH238877   1.592   2.607  11.976 -0.1046  0.2780  0.0340
 5821TIP3    H138878   1.663   2.638  12.033  0.2553 -0.5796  0.0684
 5821TIP3    H238879   1.591   2.513  11.989 -1.7841  0.3537  0.6178
 5822TIP3   OH238880   5.902   2.500   3.478  0.5521  0.4563  0.1122
 5822TIP3    H138881   5.943   2.439   3.418 -0.4454 -0.3377  0.1950
 5822TIP3    H238882   5.971   2.562   3.502  1.8595 -1.1519  0.7124
 5823TIP3   OH238883   1.262   6.524  16.806  0.1366 -0.1522 -0.3833
 5823TIP3    H138884   1.173   6.509  16.774 -0.6724  0.2122  1.5709
 5823TIP3    H238885   1.282   6.613  16.778 -0.9182  0.5048  0.8567
 5824TIP3   OH238886   1.633   3.528  17.231 -0.0606  0.1549  0.1456
 5824TIP3    H138887   1.557   3.471  17.243 -0.0894  0.5431  2.0660
 5824TIP3    H238888   1.623   3.595  17.298  1.1444  1.1460 -0.6328
 5825TIP3   OH238889   0.754   2.818  12.251 -0.1874  0.9180 -0.1608
 5825TIP3    H138890   0.804   2.737  12.255 -2.3491 -0.4664  0.8507
 5825TIP3    H238891   0.729   2.826  12.158 -0.8805 -0.2338 -0.1023
 5826TIP3   OH238892   3.723   4.526   0.631 -1.0346 -0.0959 -0.0923
 5826TIP3    H138893   3.805   4.523   0.680 -1.7509 -1.3276  1.0877
 5826TIP3    H238894   3.659   4.562   0.693 -1.5657  0.0723 -0.7258
 5827TIP3   OH238895   5.058   4.254   3.633  0.4400 -0.1769 -0.0676
 5827TIP3    H138896   5.058   4.227   3.725  0.6047  0.9585  0.2847
 5827TIP3    H238897   5.120   4.196   3.591 -0.7137 -1.6743  0.2285
 5828TIP3   OH238898   6.613   3.604  15.385 -0.3569  0.4262 -0.4276
 5828TIP3    H138899   6.608   3.536  15.318  0.2337  0.8027 -0.8699
 5828TIP3    H238900   6.596   3.558  15.468 -0.4104 -0.1682 -0.7658
 5829TIP3   OH238901   0.806   0.493  14.209  0.3443  0.1972  0.2274
 5829TIP3    H138902   0.805   0.400  14.187  1.3107 -0.0431  1.0879
 5829TIP3    H238903   0.843   0.496  14.298 -1.5258  1.2599  1.0174
 5830TIP3   OH238904   6.624   5.974   2.200  0.9535  0.0678 -0.2086
 5830TIP3    H138905   6.662   5.898   2.156 -1.5643 -1.7487  0.5720
 5830TIP3    H238906   6.537   5.983   2.161 -0.6287 -0.4128  2.9586
 5831TIP3   OH238907   1.087   1.508   3.525  0.0515 -0.0487  0.3286
 5831TIP3    H138908   1.097   1.509   3.620 -3.5376  0.3363  0.8700
 5831TIP3    H238909   1.086   1.601   3.501 -0.5363 -0.0886  0.1788
 5832TIP3   OH238910   4.407   5.362   0.243  0.0779 -0.0064 -0.8212
 5832TIP3    H138911   4.325   5.329   0.206  0.3021 -0.8120 -0.6259
 5832TIP3    H238912   4.382   5.400   0.327 -0.1867  0.3436 -1.0556
 5833TIP3   OH238913   2.267   5.809   1.042 -0.0985 -0.3664 -0.1331
 5833TIP3    H138914   2.322   5.758   1.101  0.7264  0.0262 -0.5449
 5833TIP3    H238915   2.194   5.838   1.096  0.1923 -0.7366  0.4686
 5834TIP3   OH238916   3.427   1.382  13.042  0.0758 -0.4637  0.0526
 5834TIP3    H138917   3.485   1.362  12.968 -2.2964 -0.4242 -1.9702
 5834TIP3    H238918   3.433   1.477  13.052 -2.2314  0.1477 -2.6992
 5835TIP3   OH238919   0.254   1.249   4.459 -1.1530 -0.7206 -0.6086
 5835TIP3    H138920   0.201   1.282   4.386 -1.2698  0.4398 -0.0117
 5835TIP3    H238921   0.299   1.326   4.493  0.9064 -1.6542 -1.0545
 5836TIP3   OH238922   5.367   3.705  15.066 -0.1981 -1.1211 -0.0314
 5836TIP3    H138923   5.318   3.659  15.134 -0.1271 -0.4985  0.4481
 5836TIP3    H238924   5.304   3.764  15.026  0.5862  1.2476  2.0028
 5837TIP3   OH238925   1.284   3.424   2.341  0.1174 -0.3145 -0.0549
 5837TIP3    H138926   1.323   3.497   2.292 -1.7530  1.2011  0.5484
 5837TIP3    H238927   1.320   3.345   2.301  1.6280  0.9254 -1.2605
 5838TIP3   OH238928   1.741   5.028   6.539 -0.0835 -0.3810  0.4309
 5838TIP3    H138929   1.659   5.077   6.539 -0.0968 -0.3559  2.3558
 5838TIP3    H238930   1.715   4.937   6.530 -0.2083 -0.2597 -0.5446
 5839TIP3   OH238931   3.155   5.117   2.809  0.4997 -0.2011 -0.2131
 5839TIP3    H138932   3.161   5.185   2.876 -0.6075 -1.0335  0.7701
 5839TIP3    H238933   3.245   5.089   2.794  0.7826  0.1629  0.7485
 5840TIP3   OH238934   6.392   1.065  14.103 -0.1823  0.1700 -0.0775
 5840TIP3    H138935   6.322   1.130  14.101  1.0589  1.6883 -3.7335
 5840TIP3    H238936   6.433   1.076  14.188 -1.7853  2.1816  0.5231
 5841TIP3   OH238937   0.350   2.735  16.256 -0.1330  0.5081  0.4153
 5841TIP3    H138938   0.312   2.756  16.171 -0.4250 -0.0705  0.3965
 5841TIP3    H238939   0.320   2.646  16.275  0.3691  0.4277  0.8771
 5842TIP3   OH238940   4.154   0.164   5.245 -0.3656 -0.2404 -0.0513
 5842TIP3    H138941   4.235   0.211   5.225  0.0946 -1.3159 -0.7872
 5842TIP3    H238942   4.119   0.208   5.323  0.2804  1.0179 -0.4512
 5843TIP3   OH238943   4.125   2.307   3.127  0.0067  0.2782 -0.3238
 5843TIP3    H138944   4.139   2.363   3.050  0.2040  0.6851  0.0009
 5843TIP3    H238945   4.058   2.245   3.100  0.6709 -0.1204 -1.1083
 5844TIP3   OH238946   4.008   4.761   3.185  0.1600  0.5157 -0.2217
 5844TIP3    H138947   4.072   4.831   3.199  0.4931  0.5339 -1.7060
 5844TIP3    H238948   3.934   4.804   3.142 -0.6220  0.3768  0.9351
 5845TIP3   OH238949   6.582   4.457  16.725 -0.1524  0.8292  0.2613
 5845TIP3    H138950   6.507   4.481  16.672  1.6707 -1.6035 -3.8331
 5845TIP3    H238951   6.657   4.465  16.667  2.4663  0.2805  3.2465
 5846TIP3   OH238952   3.475   0.770  13.771  0.3311 -0.2676 -0.1178
 5846TIP3    H138953   3.397   0.740  13.724 -0.6828  0.5360  0.9989
 5846TIP3    H238954   3.544   0.709  13.743 -0.6946 -1.0443 -1.0748
 5847TIP3   OH238955   5.244   3.500   4.105 -0.1429  0.1416  0.7234
 5847TIP3    H138956   5.319   3.560   4.106  1.4993 -1.7899 -0.7512
 5847TIP3    H238957   5.168   3.558   4.094  1.1635  2.0872  1.3339
 5848TIP3   OH238958   4.490   2.603  16.444 -0.0943  0.0555 -0.3044
 5848TIP3    H138959   4.573   2.573  16.481  0.3915  0.1797 -1.2551
 5848TIP3    H238960   4.473   2.687  16.487  0.4383  0.1756 -0.3194
 5849TIP3   OH238961   1.372   5.343  16.034 -0.1811  0.2000 -0.0412
 5849TIP3    H138962   1.288   5.298  16.030  0.1575 -0.3986 -0.5633
 5849TIP3    H238963   1.365   5.413  15.969  0.1895 -0.6701 -1.0385
 5850TIP3   OH238964   6.183   6.736  13.856 -0.1958  0.7786 -0.4497
 5850TIP3    H138965   6.213   6.704  13.941 -1.4859  0.3732 -0.1333
 5850TIP3    H238966   6.105   6.787  13.875 -0.6173  0.5264 -1.4178
 5851TIP3   OH238967   5.275   0.119  16.861 -0.2465  0.7544  0.2745
 5851TIP3    H138968   5.266   0.154  16.950 -2.2318  0.0630  0.4110
 5851TIP3    H238969   5.212   0.046  16.858  0.7635 -0.1138 -1.2844
 5852TIP3   OH238970   1.962   3.477  15.032  0.6615 -0.0243  0.3221
 5852TIP3    H138971   1.945   3.390  15.067 -0.6795 -0.8088 -2.0356
 5852TIP3    H238972   1.983   3.463  14.940 -2.6559  2.2550 -0.9833
 5853TIP3   OH238973   1.445   3.380  15.032  0.7180 -0.0866 -0.2759
 5853TIP3    H138974   1.386   3.455  15.021  0.6802  0.0535  0.7650
 5853TIP3    H238975   1.532   3.420  15.041  1.2195 -0.3553 -3.2017
 5854TIP3   OH238976   4.201   0.902   3.296 -0.2697 -0.3332 -0.1238
 5854TIP3    H138977   4.138   0.906   3.223  2.8219 -1.5305 -3.1225
 5854TIP3    H238978   4.258   0.828   3.275  4.2129  2.5541  0.4753
 5855TIP3   OH238979   6.224   5.942  17.221  0.3419  0.0492  0.0421
 5855TIP3    H138980   6.248   5.931  17.129  0.3628  0.4973 -0.0112
 5855TIP3    H238981   6.145   5.889  17.232  0.1178  0.2987 -0.3354
 5856TIP3   OH238982   2.962   1.661   4.802 -0.4708  0.6358  0.3363
 5856TIP3    H138983   2.936   1.579   4.844 -1.4143  0.3982 -0.6735
 5856TIP3    H238984   3.052   1.645   4.773 -1.0748 -0.5581 -1.0273
 5857TIP3   OH238985   0.370   2.628  11.516 -0.0585 -0.6041  0.0447
 5857TIP3    H138986   0.334   2.545  11.548 -1.7494 -0.4020 -1.2147
 5857TIP3    H238987   0.363   2.687  11.592 -1.5372 -0.8535  0.1479
 5858TIP3   OH238988   2.156   1.868  13.778 -0.3703  0.0648 -0.4194
 5858TIP3    H138989   2.110   1.790  13.750  0.1575 -0.4387  0.0933
 5858TIP3    H238990   2.089   1.922  13.821 -0.7295 -0.1014 -0.7698
 5859TIP3   OH238991   5.175   6.258   6.144  0.0489 -0.4696 -0.1414
 5859TIP3    H138992   5.143   6.313   6.215  0.2088  0.5004 -0.7939
 5859TIP3    H238993   5.220   6.186   6.188 -0.1259 -0.0628  0.7346
 5860TIP3   OH238994   3.652   5.936   2.172 -0.2924  0.4951  0.0416
 5860TIP3    H138995   3.661   5.938   2.267 -0.4593 -0.9710  0.1031
 5860TIP3    H238996   3.645   5.843   2.150  0.2142  0.7834 -1.4499
 5861TIP3   OH238997   1.742   4.904  13.825  0.0914 -0.4594 -0.3262
 5861TIP3    H138998   1.800   4.940  13.759  0.9493  0.0990  0.6909
 5861TIP3    H238999   1.799   4.857  13.886  0.1279  2.8537  2.5634
 5862TIP3   OH239000   0.970   2.167   3.089 -0.3771 -0.3131 -0.0404
 5862TIP3    H139001   1.060   2.188   3.064 -0.4200 -0.0991 -0.0169
 5862TIP3    H239002   0.967   2.072   3.092 -0.0306 -0.3095  0.3967
 5863TIP3   OH239003   0.696   3.370   1.118  0.2161 -0.0178 -0.3362
 5863TIP3    H139004   0.639   3.310   1.166 -1.2248  1.8387  0.4181
 5863TIP3    H239005   0.671   3.360   1.027 -1.0721  0.4582 -0.0570
 5864TIP3   OH239006   4.574   1.811  14.566  0.2529  0.3931  0.3723
 5864TIP3    H139007   4.590   1.788  14.474 -1.0299 -2.0975  0.6858
 5864TIP3    H239008   4.651   1.780  14.613 -0.0360 -0.2932  0.3929
 5865TIP3   OH239009   2.231   2.911   3.557 -0.3278 -0.1254  0.1387
 5865TIP3    H139010   2.225   2.984   3.496 -0.1355  0.4748  0.8253
 5865TIP3    H239011   2.167   2.847   3.525  1.6789 -1.0525 -2.2895
 5866TIP3   OH239012   3.597   5.848  12.565 -0.3271  0.5731 -0.1845
 5866TIP3    H139013   3.599   5.909  12.491  1.2728 -1.3688 -1.8619
 5866TIP3    H239014   3.677   5.867  12.613 -0.2746  0.3770 -0.1957
 5867TIP3   OH239015   1.273   4.402  13.642  0.3977  0.9144 -0.7487
 5867TIP3    H139016   1.242   4.353  13.719  1.5761  0.4546 -0.5540
 5867TIP3    H239017   1.253   4.493  13.662  1.9426  0.9720  0.7511
 5868TIP3   OH239018   3.174   2.124  14.914 -0.9725 -0.2995 -0.4460
 5868TIP3    H139019   3.108   2.189  14.936 -0.4661  0.3168 -0.7107
 5868TIP3    H239020   3.238   2.130  14.985 -1.1248 -0.7965 -0.2613
 5869TIP3   OH239021   1.590   0.942  13.748  0.3995  0.4476  0.1312
 5869TIP3    H139022   1.658   0.932  13.815  0.0606 -2.7195  0.1430
 5869TIP3    H239023   1.526   1.001  13.787  1.2166  0.2985  1.7675
 5870TIP3   OH239024   3.832   1.511   0.541 -0.2665  0.0132  0.5508
 5870TIP3    H139025   3.753   1.457   0.545 -1.0051  1.1153  1.3613
 5870TIP3    H239026   3.804   1.598   0.571  0.8736  0.8767 -0.7550
 5871TIP3   OH239027   6.175   6.026  13.601 -0.0936  0.0526 -0.6447
 5871TIP3    H139028   6.255   5.997  13.645 -1.0400 -1.7148 -0.0109
 5871TIP3    H239029   6.110   6.033  13.670 -1.3059 -1.6709 -1.5358
 5872TIP3   OH239030   3.085   3.722  14.346 -0.1857 -0.0949  0.1981
 5872TIP3    H139031   3.116   3.812  14.357  0.0420 -0.3495  1.9368
 5872TIP3    H239032   3.000   3.731  14.304 -0.5713  1.0193  1.1393
 5873TIP3   OH239033   5.140   4.821  13.321 -0.6026  0.4829  0.8490
 5873TIP3    H139034   5.120   4.889  13.385 -0.8343  0.7910  0.4547
 5873TIP3    H239035   5.224   4.784  13.349 -0.9068  0.3250  1.5669
 5874TIP3   OH239036   5.032   2.920   1.858 -0.6719  0.3649  0.3111
 5874TIP3    H139037   5.122   2.900   1.884 -1.1078 -0.9213  0.9524
 5874TIP3    H239038   5.025   2.888   1.768 -0.4880  0.4718  0.2585
 5875TIP3   OH239039   1.213   0.710  13.668 -0.2444  0.2719 -0.2478
 5875TIP3    H139040   1.208   0.767  13.745 -0.0819  0.8489 -0.6578
 5875TIP3    H239041   1.298   0.730  13.629 -0.2592 -0.1311 -0.4894
 5876TIP3   OH239042   2.119   1.760   5.447  0.0535 -0.2145  0.7407
 5876TIP3    H139043   2.132   1.769   5.541 -1.5743  3.5090  0.8073
 5876TIP3    H239044   2.033   1.719   5.438 -1.2955  2.3119  1.1046
 5877TIP3   OH239045   2.974   5.194  16.842 -0.1146  0.2168 -0.0918
 5877TIP3    H139046   2.941   5.197  16.932  1.1939 -1.7020  0.5203
 5877TIP3    H239047   3.034   5.269  16.836 -0.4716  0.5566  0.5302
 5878TIP3   OH239048   5.611   0.470  12.194  0.1130 -0.4160 -0.0250
 5878TIP3    H139049   5.523   0.468  12.231  0.0790 -0.2569 -0.0956
 5878TIP3    H239050   5.600   0.442  12.103  0.2584 -1.2306  0.2005
 5879TIP3   OH239051   3.057   2.338  15.128 -0.0833 -0.2785  0.4381
 5879TIP3    H139052   3.079   2.255  15.169 -2.1674 -1.1413 -0.1079
 5879TIP3    H239053   3.015   2.389  15.198  0.1148 -0.1405  0.4575
 5880TIP3   OH239054   1.355   3.771   0.742 -0.5862 -0.7413  0.1158
 5880TIP3    H139055   1.279   3.715   0.760 -0.5388 -0.8277  0.0463
 5880TIP3    H239056   1.428   3.709   0.733 -0.3734 -0.6163  0.8845
 5881TIP3   OH239057   0.243   6.066  16.083  0.4269  0.3339 -0.0037
 5881TIP3    H139058   0.249   6.140  16.023 -1.3591 -0.8591 -1.8115
 5881TIP3    H239059   0.283   6.097  16.164  0.1875  3.0826 -0.8334
 5882TIP3   OH239060   5.240   5.490   6.173  0.2750  0.4770 -0.3294
 5882TIP3    H139061   5.151   5.491   6.139  0.3919  0.6495 -0.6362
 5882TIP3    H239062   5.231   5.517   6.264 -0.0313  0.0959 -0.2446
 5883TIP3   OH239063   1.804   0.500   1.472 -0.1192 -0.1394  0.2149
 5883TIP3    H139064   1.783   0.567   1.406  2.1037  0.4244 -0.0302
 5883TIP3    H239065   1.853   0.434   1.423 -0.9317 -1.1837  0.7799
 5884TIP3   OH239066   1.023   5.088   6.836  0.0739  0.2311 -0.0084
 5884TIP3    H139067   0.964   5.138   6.893  0.1275 -1.0455  1.2118
 5884TIP3    H239068   0.964   5.035   6.782  0.0507 -0.0059  0.2425
 5885TIP3   OH239069   4.719   0.409  14.977  0.3959  0.5160 -0.3367
 5885TIP3    H139070   4.660   0.447  15.042  0.2632  0.4213 -0.4013
 5885TIP3    H239071   4.686   0.320  14.965  1.1880  0.1134  0.4074
 5886TIP3   OH239072   1.689   3.028   3.832 -0.5949  0.1600 -0.0681
 5886TIP3    H139073   1.745   3.096   3.868 -0.5121  0.7947 -1.3165
 5886TIP3    H239074   1.732   2.946   3.856 -0.5756  0.5508  1.2645
 5887TIP3   OH239075   3.999   5.047   0.118  0.8492  0.9259  0.9141
 5887TIP3    H139076   4.033   5.136   0.128  0.9826  0.8508  1.1356
 5887TIP3    H239077   3.943   5.051   0.041 -1.7876  2.0329  2.7237
 5888TIP3   OH239078   1.857   4.042   2.711  0.1625 -0.3787  0.6661
 5888TIP3    H139079   1.769   4.006   2.719  0.2374 -0.8261 -0.3286
 5888TIP3    H239080   1.844   4.133   2.685 -0.0199 -0.9241 -1.2590
 5889TIP3   OH239081   0.980   0.892   2.171 -0.0556 -0.2007  0.0121
 5889TIP3    H139082   1.066   0.919   2.140 -0.0226  0.0156  0.2869
 5889TIP3    H239083   0.933   0.975   2.183  0.3087 -0.2065  1.6384
 5890TIP3   OH239084   1.497   5.978  16.020  0.0143 -0.0355  0.0269
 5890TIP3    H139085   1.555   6.045  16.056 -1.6265  1.3846  0.1186
 5890TIP3    H239086   1.522   5.898  16.067  1.5695  0.6228  0.3850
 5891TIP3   OH239087   2.086   2.885   1.100 -0.0061  0.3569 -0.0288
 5891TIP3    H139088   2.167   2.834   1.105  0.3196  0.5423 -2.3115
 5891TIP3    H239089   2.113   2.975   1.119  0.3600  0.4326 -0.8772
 5892TIP3   OH239090   1.727   6.030  11.356 -0.4927  0.8623 -0.3395
 5892TIP3    H139091   1.681   6.070  11.283  1.1618  1.5634 -1.0489
 5892TIP3    H239092   1.740   6.102  11.418 -0.5921  0.6098 -0.0243
 5893TIP3   OH239093   6.144   0.443   1.215  0.1901  0.3684 -0.3655
 5893TIP3    H139094   6.088   0.374   1.250 -0.0129  0.5763 -0.2775
 5893TIP3    H239095   6.227   0.432   1.262 -0.2774  1.0331  0.6588
 5894TIP3   OH239096   3.521   5.323  12.765 -0.4747 -0.1406 -0.0640
 5894TIP3    H139097   3.480   5.249  12.808  0.2349 -1.2252 -1.1832
 5894TIP3    H239098   3.476   5.330  12.680  0.3615 -0.1619 -0.5272
 5895TIP3   OH239099   3.176   2.492   3.178  0.1012 -0.0180  0.3681
 5895TIP3    H139100   3.134   2.453   3.102 -2.1760 -1.8290  2.3803
 5895TIP3    H239101   3.269   2.492   3.157 -0.4563 -0.0963 -2.5032
 5896TIP3   OH239102   4.497   2.204   1.478  0.5486  0.4555 -0.1383
 5896TIP3    H139103   4.509   2.284   1.429 -1.2060  0.0163 -1.3648
 5896TIP3    H239104   4.466   2.232   1.564 -1.0949  1.0941 -0.9060
 5897TIP3   OH239105   3.640   3.997  11.610 -0.0421 -0.3840  0.1326
 5897TIP3    H139106   3.680   3.969  11.528  0.0268 -0.7392  0.2874
 5897TIP3    H239107   3.666   3.931  11.674  0.3476  0.1748  0.5643
 5898TIP3   OH239108   3.842   3.089   1.769  0.2290  0.0408 -0.4720
 5898TIP3    H139109   3.795   3.106   1.850 -0.6902 -0.6081 -0.8560
 5898TIP3    H239110   3.821   3.164   1.713  0.0756  0.0029 -0.4641
 5899TIP3   OH239111   1.597   5.095  14.200  0.4999  0.3544  0.1807
 5899TIP3    H139112   1.503   5.111  14.191  0.4589 -0.7659 -2.8303
 5899TIP3    H239113   1.637   5.154  14.135  1.5311 -1.3737 -0.8327
 5900TIP3   OH239114   6.187   3.028   4.074 -0.3173 -0.1289  0.0931
 5900TIP3    H139115   6.147   2.946   4.044  0.1030 -0.0833 -0.6345
 5900TIP3    H239116   6.232   3.061   3.996  1.0847 -0.1556  0.8743
 5901TIP3   OH239117   2.045   5.843   0.775 -0.1197  0.3783  0.0056
 5901TIP3    H139118   2.027   5.769   0.718  0.6797  0.2451 -0.0751
 5901TIP3    H239119   1.992   5.826   0.853 -0.1015 -0.1715 -0.0965
 5902TIP3   OH239120   4.385   3.322  15.673 -0.2090 -0.1117  0.0252
 5902TIP3    H139121   4.402   3.359  15.760  1.2010 -0.2563 -0.1675
 5902TIP3    H239122   4.466   3.335  15.625 -0.5283 -1.2016 -0.8528
 5903TIP3   OH239123   2.946   4.243  10.858  0.1808  0.0639  0.3910
 5903TIP3    H139124   2.887   4.167  10.864  0.1772 -0.3261 -2.9606
 5903TIP3    H239125   2.915   4.292  10.782  3.1786  0.7180 -0.5343
 5904TIP3   OH239126   2.090   4.794   2.152 -0.9524  0.2537 -0.1120
 5904TIP3    H139127   2.082   4.888   2.172  0.0624  0.2790  0.2541
 5904TIP3    H239128   2.162   4.764   2.208 -2.8310 -1.2979  1.6185
 5905TIP3   OH239129   1.649   4.431   2.416 -0.3662  0.7712  0.1301
 5905TIP3    H139130   1.567   4.394   2.449  0.1979 -0.6821 -0.0455
 5905TIP3    H239131   1.644   4.420   2.321 -0.6028  2.0622 -0.0258
 5906TIP3   OH239132   5.930   3.974   4.306  0.6215  0.7007 -0.6156
 5906TIP3    H139133   5.862   3.978   4.239 -1.2883 -1.9491  0.9825
 5906TIP3    H239134   6.009   3.945   4.260 -0.5149 -0.5956 -1.8237
 5907TIP3   OH239135   6.128   0.624   3.622  0.1054  0.2553 -0.8437
 5907TIP3    H139136   6.059   0.563   3.597  2.0257 -1.5304 -2.2114
 5907TIP3    H239137   6.096   0.665   3.703 -0.8888 -3.4420  0.8672
 5908TIP3   OH239138   6.000   3.651  12.468  0.6433  0.0577  0.8000
 5908TIP3    H139139   5.989   3.558  12.488  0.1234 -0.4297 -1.5319
 5908TIP3    H239140   6.040   3.687  12.547  3.8112 -2.7544  0.7243
 5909TIP3   OH239141   5.110   6.678   5.327 -0.0210  0.8336  0.4301
 5909TIP3    H139142   5.153   6.598   5.354  1.0910  1.3939  0.3939
 5909TIP3    H239143   5.027   6.679   5.374  0.1154 -0.1593  0.6958
 5910TIP3   OH239144   5.687   4.583   2.634  0.3975 -0.5731 -0.2969
 5910TIP3    H139145   5.615   4.558   2.692  0.2872 -2.6381 -1.2470
 5910TIP3    H239146   5.659   4.666   2.595 -0.1780  0.0959  1.4373
 5911TIP3   OH239147   0.340   3.635   3.721 -1.1116  0.4832  0.2891
 5911TIP3    H139148   0.421   3.653   3.767 -1.7135  0.7712  1.2666
 5911TIP3    H239149   0.271   3.648   3.787 -2.0542  1.5788 -0.8673
 5912TIP3   OH239150   3.705   4.394  14.465  0.5180 -0.4590  0.1863
 5912TIP3    H139151   3.668   4.436  14.388 -2.5601 -0.3142  1.6059
 5912TIP3    H239152   3.767   4.458  14.501 -0.5716  0.8953 -0.3007
 5913TIP3   OH239153   1.155   0.587  16.742  0.1255 -0.2087  0.2122
 5913TIP3    H139154   1.152   0.610  16.835  0.7688  1.6460 -0.1823
 5913TIP3    H239155   1.248   0.585  16.720  0.0069 -1.3841 -0.2353
 5914TIP3   OH239156   4.745   1.338  12.820 -0.3373  0.2550  0.8061
 5914TIP3    H139157   4.828   1.340  12.868 -0.4883 -0.8403  1.1484
 5914TIP3    H239158   4.685   1.390  12.873 -0.1816  0.0494  1.1856
 5915TIP3   OH239159   6.109   5.168   4.934  0.2793 -0.1376  0.2431
 5915TIP3    H139160   6.052   5.189   5.009 -0.1648  1.0065 -0.3868
 5915TIP3    H239161   6.128   5.253   4.895  2.4709 -0.4897  0.4377
 5916TIP3   OH239162   2.377   6.503  13.326 -0.0029 -0.5382 -0.0249
 5916TIP3    H139163   2.345   6.465  13.408  1.2833 -0.1172  0.7061
 5916TIP3    H239164   2.380   6.597  13.343 -0.4143 -0.3692 -0.8224
 5917TIP3   OH239165   5.696   0.228  11.648  0.1714 -0.0262 -0.0873
 5917TIP3    H139166   5.670   0.159  11.586  1.6601  0.0760 -0.8755
 5917TIP3    H239167   5.764   0.277  11.601  0.2769  0.9787  1.0851
 5918TIP3   OH239168   2.351   1.612   4.727 -0.5216  0.1936  0.1491
 5918TIP3    H139169   2.351   1.680   4.659  0.0942  0.0249 -0.0231
 5918TIP3    H239170   2.261   1.579   4.727  0.1435 -2.0237 -2.8397
 5919TIP3   OH239171   4.791   2.241  16.376  0.0997 -0.1716  0.0536
 5919TIP3    H139172   4.713   2.191  16.354 -0.5804  1.1677 -0.7173
 5919TIP3    H239173   4.859   2.208  16.317 -0.3101 -0.2512 -0.3744
 5920TIP3   OH239174   1.131   4.022  15.936 -0.5500 -0.1492 -0.8748
 5920TIP3    H139175   1.145   3.966  16.012 -1.5626  0.1379 -0.4474
 5920TIP3    H239176   1.051   3.989  15.896 -0.3039  0.0218 -1.5271
 5921TIP3   OH239177   3.752   4.277   0.973 -0.2149  0.2253 -0.2866
 5921TIP3    H139178   3.727   4.185   0.975  1.7391 -0.3553 -1.0976
 5921TIP3    H239179   3.697   4.315   0.904 -0.2304 -0.5947 -0.7409
 5922TIP3   OH239180   0.771   4.288   4.841  0.0031  0.3560 -0.2502
 5922TIP3    H139181   0.684   4.282   4.801 -0.2022  2.5286 -0.2669
 5922TIP3    H239182   0.821   4.217   4.801 -1.3915 -0.1047 -1.2417
 5923TIP3   OH239183   4.718   0.354  11.436 -0.4552  0.3311 -0.2049
 5923TIP3    H139184   4.726   0.431  11.492 -0.7613  1.5434 -1.7720
 5923TIP3    H239185   4.732   0.387  11.348 -1.4340 -1.2669 -0.9945
 5924TIP3   OH239186   4.751   1.963   0.730  0.4679  0.5685  0.1095
 5924TIP3    H139187   4.740   1.946   0.636  1.0088 -1.5375  0.3661
 5924TIP3    H239188   4.672   1.926   0.770  1.7279 -1.6846  0.7143
 5925TIP3   OH239189   6.304   0.603  16.428  0.6428  0.7304 -0.1517
 5925TIP3    H139190   6.220   0.602  16.473  0.3385  2.0416 -0.6482
 5925TIP3    H239191   6.311   0.517  16.387 -0.9166  0.9377 -0.9210
 5926TIP3   OH239192   3.620   2.520  12.073  0.6633 -0.4127  0.0528
 5926TIP3    H139193   3.605   2.432  12.107 -0.9906 -0.0263  0.4322
 5926TIP3    H239194   3.668   2.566  12.142 -1.8046  0.0737  1.5621
 5927TIP3   OH239195   5.350   3.954  12.158 -0.9417 -0.2899 -0.0173
 5927TIP3    H139196   5.312   4.011  12.226 -1.1675 -0.2253 -0.1973
 5927TIP3    H239197   5.308   3.983  12.077 -0.0456  0.2041 -0.3113
 5928TIP3   OH239198   0.741   4.842   3.779 -0.3928  0.0479  0.0838
 5928TIP3    H139199   0.720   4.926   3.820  0.6106 -0.5269  1.9098
 5928TIP3    H239200   0.683   4.779   3.822  1.2552 -0.7027  1.3165
 5929TIP3   OH239201   3.172   0.234  16.253 -0.7730  0.2792 -0.0037
 5929TIP3    H139202   3.219   0.296  16.197  1.0451 -0.4570  0.6497
 5929TIP3    H239203   3.240   0.177  16.289 -1.7378  1.0470  3.4183
 5930TIP3   OH239204   0.652   4.983  13.790  0.5174  0.0187  0.4038
 5930TIP3    H139205   0.700   5.048  13.738  1.4506 -0.1340  1.0549
 5930TIP3    H239206   0.660   4.902  13.740 -0.4316  0.3286 -0.2820
 5931TIP3   OH239207   2.777   4.131   4.587 -0.2202 -0.5320 -0.4440
 5931TIP3    H139208   2.779   4.049   4.538  1.4706 -0.9932  0.3207
 5931TIP3    H239209   2.865   4.138   4.625 -1.1538  0.3130  1.6865
 5932TIP3   OH239210   0.152   3.935  14.504 -0.4911  0.5293 -0.1244
 5932TIP3    H139211   0.126   3.912  14.594 -0.0759  2.5031  0.5515
 5932TIP3    H239212   0.109   3.869  14.449 -0.8182 -0.6825  1.5000
 5933TIP3   OH239213   6.150   1.888   0.750 -0.0473  0.3067 -1.0411
 5933TIP3    H139214   6.144   1.854   0.839  1.2190  1.5752 -0.4288
 5933TIP3    H239215   6.202   1.968   0.758 -0.8140  1.0356 -2.7762
 5934TIP3   OH239216   2.353   0.244  11.511  0.1099  0.4779 -0.1088
 5934TIP3    H139217   2.290   0.315  11.498  0.1855  0.3828 -1.0402
 5934TIP3    H239218   2.306   0.165  11.481  0.4783  0.3257 -0.2866
 5935TIP3   OH239219   3.031   2.048   2.106 -0.0417 -0.1163  0.1918
 5935TIP3    H139220   3.059   1.993   2.179 -1.1302  0.4858  1.0915
 5935TIP3    H239221   2.943   2.015   2.084  0.5147 -0.7062 -1.2890
 5936TIP3   OH239222   5.768   3.910  15.334  0.3710  0.6425 -0.7884
 5936TIP3    H139223   5.697   3.872  15.281  1.2657 -0.3199 -1.3258
 5936TIP3    H239224   5.781   3.847  15.405 -0.6582  1.8108  0.5039
 5937TIP3   OH239225   2.796   5.479   0.357 -0.0863  0.5584  0.0856
 5937TIP3    H139226   2.708   5.501   0.327 -0.2026  0.7077  0.5274
 5937TIP3    H239227   2.790   5.482   0.453  0.6449  1.5128  0.1111
 5938TIP3   OH239228   5.517   4.760  15.791  0.0029  0.2773  0.0750
 5938TIP3    H139229   5.454   4.697  15.755  0.4338  0.0264 -0.2476
 5938TIP3    H239230   5.557   4.715  15.865  0.7071 -0.0372 -0.4936
 5939TIP3   OH239231   5.806   5.082   2.733  0.0194 -0.4587 -0.0165
 5939TIP3    H139232   5.807   5.093   2.638  3.4264  0.7553  0.0171
 5939TIP3    H239233   5.866   5.010   2.749  0.7354  0.3770  1.2457
 5940TIP3   OH239234   4.417   5.049   2.936  0.5770  0.1838  0.5810
 5940TIP3    H139235   4.369   4.966   2.933 -1.5969  1.3452  1.3427
 5940TIP3    H239236   4.461   5.048   3.021 -0.4044  0.2988  1.0989
 5941TIP3   OH239237   0.567   6.273   3.745  0.0173 -0.0474 -0.7215
 5941TIP3    H139238   0.641   6.238   3.696 -0.0164 -1.5418  0.2204
 5941TIP3    H239239   0.496   6.279   3.681  0.5910  0.1704 -1.3453
 5942TIP3   OH239240   3.299   5.918   1.583 -0.4839  0.1789 -0.4631
 5942TIP3    H139241   3.258   5.832   1.590 -0.0419  0.0219  0.3073
 5942TIP3    H239242   3.276   5.949   1.495  1.0809 -1.6379 -1.5820
 5943TIP3   OH239243   2.724   1.639  13.404  0.0010 -0.3932 -0.4235
 5943TIP3    H139244   2.646   1.676  13.445 -1.2723 -1.6229 -1.6544
 5943TIP3    H239245   2.705   1.640  13.310  1.6949 -0.2310 -0.7980
 5944TIP3   OH239246   3.562   3.991   6.293  0.2365  0.1633  0.9838
 5944TIP3    H139247   3.555   4.066   6.352 -1.9534  1.2696 -0.5286
 5944TIP3    H239248   3.484   3.938   6.312 -0.0636  0.1084 -0.2961
 5945TIP3   OH239249   4.720   3.341  14.775  0.2298  0.2510 -0.8302
 5945TIP3    H139250   4.700   3.254  14.739  1.0103 -0.9755  1.4851
 5945TIP3    H239251   4.645   3.363  14.829  1.3081 -0.5139  1.1128
 5946TIP3   OH239252   3.290   3.939   4.526  0.2887 -0.2415 -0.3437
 5946TIP3    H139253   3.336   3.920   4.608  0.4763  1.2058 -0.1018
 5946TIP3    H239254   3.212   3.882   4.529  0.8632 -1.0119  0.3101
 5947TIP3   OH239255   5.127   0.980  17.269  0.1352 -0.3103 -0.4423
 5947TIP3    H139256   5.102   0.969  17.178 -3.0486  1.6662  0.0713
 5947TIP3    H239257   5.175   1.063  17.271 -0.0311 -0.2183 -0.2738
 5948TIP3   OH239258   1.611   5.926   6.201 -0.7398 -0.4288  0.0059
 5948TIP3    H139259   1.598   6.017   6.228  2.5960 -0.4066  2.0733
 5948TIP3    H239260   1.553   5.876   6.259 -1.4672  0.2523 -0.1015
 5949TIP3   OH239261   0.036   3.856  11.454  0.2681 -0.4286  0.2192
 5949TIP3    H139262  -0.028   3.798  11.413  0.4881 -1.4579  1.2740
 5949TIP3    H239263   0.114   3.849  11.399  0.4190 -1.4533  0.5453
 5950TIP3   OH239264   3.160   5.827   4.030  0.2708 -0.3078 -0.3589
 5950TIP3    H139265   3.165   5.785   3.944 -0.3166 -0.8936 -0.1170
 5950TIP3    H239266   3.246   5.868   4.041  1.7346 -3.2317  0.2889
 5951TIP3   OH239267   3.344   1.979  11.474  0.0468  0.1759 -0.2285
 5951TIP3    H139268   3.416   2.026  11.516  0.2861 -1.0179  0.7518
 5951TIP3    H239269   3.346   2.008  11.383  0.8721  1.2128  0.1034
 5952TIP3   OH239270   4.810   3.292  16.753  0.4669  0.0848 -0.0309
 5952TIP3    H139271   4.836   3.275  16.663 -0.9185 -0.1301 -0.3995
 5952TIP3    H239272   4.847   3.378  16.773  2.1816 -0.5722 -0.2331
 5953TIP3   OH239273   3.021   1.711  10.791 -0.0801  0.3544  0.1443
 5953TIP3    H139274   3.019   1.644  10.860  3.5998  1.7589  1.8622
 5953TIP3    H239275   3.089   1.681  10.730 -1.4118  0.4802 -1.4815
 5954TIP3   OH239276   3.555   1.289   4.137  0.2486 -0.6182 -0.1400
 5954TIP3    H139277   3.549   1.304   4.042  2.1184  1.9593  0.0334
 5954TIP3    H239278   3.613   1.213   4.146 -0.5471 -1.3587 -1.0309
 5955TIP3   OH239279   0.201   1.605   3.749  0.1844 -0.5830  0.1700
 5955TIP3    H139280   0.220   1.638   3.661 -0.7897  2.5761  1.0141
 5955TIP3    H239281   0.134   1.538   3.735  1.0669 -1.1689 -1.5630
 5956TIP3   OH239282   4.661   3.476  15.722 -0.0228  0.2381 -0.0980
 5956TIP3    H139283   4.614   3.447  15.801  1.7281  0.3870  1.0421
 5956TIP3    H239284   4.702   3.558  15.748  1.9787 -0.5648 -0.5958
 5957TIP3   OH239285   4.354   2.162  13.191 -0.3072  0.1628 -0.0695
 5957TIP3    H139286   4.368   2.114  13.272  0.7799  0.3730 -0.1176
 5957TIP3    H239287   4.276   2.121  13.152 -0.5105 -0.3019  0.7944
 5958TIP3   OH239288   4.746   6.057  16.306 -0.6482 -0.7461 -0.1203
 5958TIP3    H139289   4.683   6.084  16.372  0.1022 -0.1374  0.3636
 5958TIP3    H239290   4.692   6.029  16.232 -1.5012 -1.7409  0.8531
 5959TIP3   OH239291   6.459   6.577  15.441  0.2322 -0.3573  0.9854
 5959TIP3    H139292   6.438   6.512  15.507  0.8717  0.9143  2.5138
 5959TIP3    H239293   6.485   6.655  15.491 -0.2213  0.9887 -0.7578
 5960TIP3   OH239294   0.401   4.640  16.004 -0.4205  0.3784  0.2703
 5960TIP3    H139295   0.462   4.684  15.945 -0.7089  2.1234  1.2063
 5960TIP3    H239296   0.332   4.704  16.021  0.1078  0.3468  3.1915
 5961TIP3   OH239297   2.707   0.911  11.837  0.2866  0.2734  0.4768
 5961TIP3    H139298   2.686   0.992  11.790  1.3189 -0.6650 -1.7575
 5961TIP3    H239299   2.655   0.844  11.792  0.8967 -0.5961  1.0457
 5962TIP3   OH239300   3.083   3.423  16.830 -0.1418 -0.2139  0.6150
 5962TIP3    H139301   3.031   3.399  16.753 -0.3179  2.2024 -0.1055
 5962TIP3    H239302   3.154   3.359  16.832 -0.2477 -0.4575 -1.4469
 5963TIP3   OH239303   2.435   4.665   5.581 -0.3757 -0.5119  0.1936
 5963TIP3    H139304   2.467   4.628   5.499 -0.4190 -2.6065  1.0610
 5963TIP3    H239305   2.514   4.694   5.626 -0.2840 -0.0393 -0.2640
 5964TIP3   OH239306   3.388   5.515  13.370  0.0225 -0.0401  0.0272
 5964TIP3    H139307   3.398   5.454  13.297 -1.9785 -0.7345  0.2749
 5964TIP3    H239308   3.464   5.500  13.425 -0.1736 -1.9702 -0.1811
 5965TIP3   OH239309   4.681   4.358   3.318  0.2612  0.2418 -0.2735
 5965TIP3    H139310   4.687   4.453   3.310  0.0111  0.3513  0.7682
 5965TIP3    H239311   4.657   4.343   3.409 -0.5881 -0.7904 -0.6529
 5966TIP3   OH239312   3.483   2.448   4.541  0.0492 -0.0973 -0.0827
 5966TIP3    H139313   3.399   2.484   4.568 -0.0655 -1.7707  2.0563
 5966TIP3    H239314   3.461   2.387   4.471 -0.1302  1.4452 -1.4287
 5967TIP3   OH239315   5.701   3.644  12.838 -0.1606 -0.2579  0.7726
 5967TIP3    H139316   5.785   3.688  12.823 -0.6952 -0.1018 -2.4564
 5967TIP3    H239317   5.644   3.712  12.873 -0.1245  0.8845 -1.2577
 5968TIP3   OH239318   4.064   1.180   4.415 -0.1672 -0.2739 -0.8016
 5968TIP3    H139319   4.018   1.211   4.337  1.5127 -0.2063 -1.8127
 5968TIP3    H239320   4.001   1.123   4.459 -1.8024  1.1615 -1.1956
 5969TIP3   OH239321   0.059   0.751  16.791  1.0575 -0.0797  0.0315
 5969TIP3    H139322   0.041   0.772  16.699  2.5588 -0.5934 -0.4033
 5969TIP3    H239323   0.128   0.811  16.816  0.7694 -0.0568  0.7834
 5970TIP3   OH239324   4.685   6.597  12.267 -0.3446 -0.0600  0.3103
 5970TIP3    H139325   4.682   6.502  12.263 -0.5643 -0.1667  2.0528
 5970TIP3    H239326   4.778   6.619  12.264 -0.3163 -0.2545 -0.7861
 5971TIP3   OH239327   2.589   6.393  12.581 -0.0224 -0.0730  0.5251
 5971TIP3    H139328   2.519   6.354  12.634 -0.2238 -0.9494 -0.3456
 5971TIP3    H239329   2.670   6.366  12.625 -0.2104  1.0155  1.5830
 5972TIP3   OH239330   4.852   2.805   0.568  0.1750 -0.1915  0.4284
 5972TIP3    H139331   4.945   2.785   0.564  0.3443  0.3516  1.4218
 5972TIP3    H239332   4.848   2.899   0.586 -0.5857  0.1026 -1.1744
 5973TIP3   OH239333   1.763   2.982  13.077  0.5418  0.8763 -0.0875
 5973TIP3    H139334   1.731   2.896  13.050  0.4133  0.5762  0.9805
 5973TIP3    H239335   1.741   2.988  13.170  2.8372  0.9969  0.5045
 5974TIP3   OH239336   6.194   1.621   0.156 -0.6373  0.0522 -0.0408
 5974TIP3    H139337   6.254   1.688   0.124 -1.1372  0.7550  0.4551
 5974TIP3    H239338   6.235   1.538   0.132  0.8309  0.4942  0.7925
 5975TIP3   OH239339   0.108   4.326   5.120 -0.3589 -0.2688  0.2428
 5975TIP3    H139340   0.094   4.376   5.200 -0.5466 -0.4304  0.3098
 5975TIP3    H239341   0.077   4.238   5.140 -1.9660  0.0870 -0.5338
 5976TIP3   OH239342   4.307   2.447  16.589 -0.3794  0.3953  0.6178
 5976TIP3    H139343   4.364   2.513  16.548 -0.3827  0.0483  0.0350
 5976TIP3    H239344   4.290   2.384  16.519  0.1371 -0.5672  1.3286
 5977TIP3   OH239345   5.086   5.010  15.211  0.3580  0.3868  0.1095
 5977TIP3    H139346   5.011   4.951  15.224 -0.1453  1.2356  1.3021
 5977TIP3    H239347   5.093   5.020  15.117  0.7157 -1.8855 -0.1607
 5978TIP3   OH239348   5.597   2.865  14.128  0.2275  0.6606  0.8181
 5978TIP3    H139349   5.542   2.937  14.097 -1.8934 -0.9471  0.6678
 5978TIP3    H239350   5.683   2.883  14.090 -1.2904  0.8137 -3.0363
 5979TIP3   OH239351   6.025   1.859  14.101 -0.2138 -0.0849 -0.4592
 5979TIP3    H139352   6.106   1.856  14.051  1.8038 -1.1049  2.6156
 5979TIP3    H239353   5.988   1.771  14.094  0.4931 -0.4692  0.3903
 5980TIP3   OH239354   0.548   2.698   3.457 -0.7443 -0.4988 -0.2104
 5980TIP3    H139355   0.635   2.696   3.418 -0.4799  2.6888 -0.0494
 5980TIP3    H239356   0.563   2.677   3.550 -0.5976 -2.6985 -0.6979
 5981TIP3   OH239357   3.834   1.425  12.385 -0.4258  0.2343 -0.6325
 5981TIP3    H139358   3.908   1.409  12.443 -0.8366  0.9227  0.0917
 5981TIP3    H239359   3.780   1.489  12.431 -0.5235  1.1649 -1.9664
 5982TIP3   OH239360   3.229   4.005  14.835  0.0936 -0.0482 -0.0154
 5982TIP3    H139361   3.203   3.915  14.819 -0.0851 -0.0012  0.0098
 5982TIP3    H239362   3.152   4.046  14.874  0.5123 -0.1582  0.9535
 5983TIP3   OH239363   2.761   2.731   2.564  0.2079 -0.1542 -0.0501
 5983TIP3    H139364   2.693   2.688   2.615  0.2588 -2.4089 -1.7431
 5983TIP3    H239365   2.737   2.824   2.566 -1.1250 -0.4798  1.9450
 5984TIP3   OH239366   0.738   2.222   2.666 -0.0438  0.2181  0.1315
 5984TIP3    H139367   0.789   2.216   2.585 -1.2286 -0.0156 -0.6141
 5984TIP3    H239368   0.803   2.241   2.734  0.8293  1.7667 -1.0677
 5985TIP3   OH239369   6.205   3.773  14.715  0.3361 -0.6412 -0.4013
 5985TIP3    H139370   6.154   3.780  14.635 -0.6115  0.5859  0.2653
 5985TIP3    H239371   6.213   3.863  14.747  3.0643 -0.7679 -0.5266
 5986TIP3   OH239372   1.689   1.293  15.798  0.0834 -0.2846 -0.4307
 5986TIP3    H139373   1.618   1.343  15.838  0.2477 -0.1031 -0.3595
 5986TIP3    H239374   1.672   1.298  15.704  0.7341  0.9113 -0.5123
 5987TIP3   OH239375   0.432   5.288   3.527  0.1163 -0.3641  0.4812
 5987TIP3    H139376   0.516   5.267   3.486 -0.4062  2.5731 -2.4968
 5987TIP3    H239377   0.455   5.336   3.606  1.1376 -3.3967  2.1875
 5988TIP3   OH239378   2.989   0.166  12.220 -0.1380 -0.1441 -0.5465
 5988TIP3    H139379   2.902   0.188  12.187 -1.3219 -1.4673  1.4991
 5988TIP3    H239380   3.017   0.244  12.268 -1.2806 -0.5256  0.8081
 5989TIP3   OH239381   0.455   5.859  17.018 -0.0993  0.2346  0.1666
 5989TIP3    H139382   0.453   5.856  16.922 -3.8235  1.6853  0.0461
 5989TIP3    H239383   0.456   5.768  17.046 -0.9900 -0.2434 -1.2970
 5990TIP3   OH239384   2.776   5.063   5.943 -0.2541 -0.2551 -0.1241
 5990TIP3    H139385   2.724   5.130   5.988  0.3150  0.0916  0.0357
 5990TIP3    H239386   2.867   5.084   5.967  0.0863  0.0957 -1.6579
 5991TIP3   OH239387   2.219   3.744   4.403 -0.1749 -0.5236 -0.1245
 5991TIP3    H139388   2.257   3.787   4.480 -0.2924  2.3401 -1.5363
 5991TIP3    H239389   2.135   3.711   4.433 -0.5777  1.2469  0.8336
 5992TIP3   OH239390   1.234   1.575   6.763  0.0849 -0.2133 -0.2239
 5992TIP3    H139391   1.260   1.577   6.671  1.3195 -0.4136  0.1056
 5992TIP3    H239392   1.151   1.528   6.763  0.1179 -0.3025 -1.2239
 5993TIP3   OH239393   3.260   6.205   4.271  0.3942 -0.0018  0.2329
 5993TIP3    H139394   3.272   6.295   4.302 -0.7034 -0.1357  1.1155
 5993TIP3    H239395   3.167   6.188   4.284  0.4176 -0.9655 -0.7685
 5994TIP3   OH239396   3.122   4.443   0.130  0.4266  0.4365  0.5340
 5994TIP3    H139397   3.186   4.477   0.067 -0.1707  0.5635 -0.0195
 5994TIP3    H239398   3.137   4.494   0.209  2.3392 -0.8871  1.0876
 5995TIP3   OH239399   2.279   6.163   1.038  0.1348  0.1201 -0.0242
 5995TIP3    H139400   2.313   6.096   0.978  0.4422  1.2071 -1.1063
 5995TIP3    H239401   2.216   6.116   1.093 -0.6440 -0.7991 -1.6233
 5996TIP3   OH239402   4.143   2.837  14.822  0.1129  0.0585  0.2317
 5996TIP3    H139403   4.093   2.795  14.752 -0.3014  0.5124  0.2482
 5996TIP3    H239404   4.092   2.820  14.901  0.2356  0.1149  0.3229
 5997TIP3   OH239405   1.994   4.841   0.078 -0.4693  0.0483 -0.0389
 5997TIP3    H139406   1.938   4.909   0.041 -0.4640 -0.4509 -0.9895
 5997TIP3    H239407   1.985   4.767   0.018  0.6397 -0.2985  0.2015
 5998TIP3   OH239408   5.181   3.080  11.424  0.2597 -0.0633  0.1256
 5998TIP3    H139409   5.207   3.114  11.509  0.0110  0.8418 -0.1400
 5998TIP3    H239410   5.249   3.111  11.364  0.7797 -1.2402  0.0827
 5999TIP3   OH239411   0.004   5.619   0.834 -0.3692 -0.0124 -0.0318
 5999TIP3    H139412   0.098   5.631   0.851  0.5300 -2.5420 -2.4152
 5999TIP3    H239413  -0.020   5.543   0.887 -0.5034 -0.6381 -0.9638
 6000TIP3   OH239414   4.458   1.085  13.307 -0.2471  0.0650 -0.7040
 6000TIP3    H139415   4.489   1.146  13.240 -1.5265 -0.0290 -1.4219
 6000TIP3    H239416   4.383   1.041  13.266  0.1600 -1.4205  0.0881
 6001TIP3   OH239417   4.011   6.377   5.085 -0.0110 -0.0614  0.1958
 6001TIP3    H139418   3.975   6.450   5.034  2.0127  0.7077 -0.2143
 6001TIP3    H239419   3.975   6.390   5.173  0.4078  1.5162  0.1632
 6002TIP3   OH239420   3.802   2.215  12.100 -0.3312 -0.0895  0.4348
 6002TIP3    H139421   3.870   2.153  12.073 -0.3794  0.4697 -1.0745
 6002TIP3    H239422   3.851   2.290  12.135 -0.1107  0.5484 -1.1680
 6003TIP3   OH239423   4.281   2.513   2.229  0.3977  0.4425 -0.0137
 6003TIP3    H139424   4.236   2.501   2.313 -2.8926  0.7264 -1.5759
 6003TIP3    H239425   4.307   2.605   2.229  1.8609  0.0737  1.2575
 6004TIP3   OH239426   5.346   1.934  13.636  0.0665  0.6498 -0.0215
 6004TIP3    H139427   5.420   1.906  13.583  1.0253 -0.9128  1.9887
 6004TIP3    H239428   5.386   1.975  13.713 -1.2489  2.2366 -0.1288
 6005TIP3   OH239429   5.034   4.238  11.066  0.0702  0.1812  0.7276
 6005TIP3    H139430   5.036   4.332  11.084  0.3166  0.0893  1.1884
 6005TIP3    H239431   5.027   4.197  11.152 -0.6592 -0.2029  0.4881
 6006TIP3   OH239432   4.374   3.622   3.797  0.2793  0.2313  0.6486
 6006TIP3    H139433   4.406   3.541   3.756  0.9344  0.3433  0.9297
 6006TIP3    H239434   4.301   3.594   3.852  0.5131 -0.1731  0.7575
 6007TIP3   OH239435   6.271   4.467   0.268 -0.0420 -0.2348 -0.2365
 6007TIP3    H139436   6.322   4.387   0.265 -1.3460 -1.0606 -1.6182
 6007TIP3    H239437   6.206   4.451   0.337  0.6814  0.2930  0.5938
 6008TIP3   OH239438   4.797   1.654   0.509  1.0028 -0.0156  0.6079
 6008TIP3    H139439   4.820   1.631   0.600  0.0509  0.8387  1.0877
 6008TIP3    H239440   4.802   1.749   0.506  1.1883 -0.0450 -0.3000
 6009TIP3   OH239441   2.673   5.980  13.272  0.3650 -0.0277  0.0294
 6009TIP3    H139442   2.659   5.911  13.208  2.5289  1.0945 -1.7929
 6009TIP3    H239443   2.763   6.009  13.257 -0.7462  3.9130 -0.0275
 6010TIP3   OH239444   5.580   6.173  12.655  0.1997  0.2391  0.5747
 6010TIP3    H139445   5.592   6.268  12.646 -1.4304  0.3358 -1.2724
 6010TIP3    H239446   5.485   6.160  12.652  0.4269 -1.5205 -0.2769
 6011TIP3   OH239447   0.385   4.601  14.386  0.0561 -0.2394  0.4532
 6011TIP3    H139448   0.373   4.669  14.320 -0.7854  2.2007  2.9381
 6011TIP3    H239449   0.298   4.590  14.425  0.2334 -2.6160  0.3193
 6012TIP3   OH239450   6.314   3.109  14.018 -0.5031  0.6729 -0.3311
 6012TIP3    H139451   6.332   3.020  13.988  0.3157  1.1807 -1.4085
 6012TIP3    H239452   6.245   3.099  14.083 -1.3238 -0.6268 -1.3567
 6013TIP3   OH239453   2.406   3.166   3.829 -0.2177  0.3481  0.1429
 6013TIP3    H139454   2.472   3.105   3.860 -1.4537 -0.5656  1.0465
 6013TIP3    H239455   2.452   3.250   3.821  0.8317 -0.0622  1.6012
 6014TIP3   OH239456   4.382   2.988   3.329 -0.0557  0.7042 -0.0431
 6014TIP3    H139457   4.350   2.936   3.403 -0.4840 -0.0724 -0.7550
 6014TIP3    H239458   4.307   3.042   3.304 -0.0500  0.6560 -0.1674
 6015TIP3   OH239459   3.717   4.677   0.112 -0.5822 -0.3748 -0.5582
 6015TIP3    H139460   3.718   4.591   0.155  2.2483 -0.2123 -0.1100
 6015TIP3    H239461   3.804   4.714   0.130 -1.4931  2.3521 -1.2408
 6016TIP3   OH239462   0.004   6.316   1.550 -0.6828  0.0289 -0.4753
 6016TIP3    H139463   0.048   6.325   1.466 -0.1883 -2.5237 -0.5668
 6016TIP3    H239464   0.021   6.399   1.595 -0.1079  1.0540 -2.4691
 6017TIP3   OH239465   0.516   5.987   4.678  0.3286  0.4910  0.3782
 6017TIP3    H139466   0.476   5.911   4.636  2.5014  1.3533 -3.8848
 6017TIP3    H239467   0.476   6.062   4.634  1.2387  1.6196  1.4171
 6018TIP3   OH239468   4.606   2.336   5.629  1.3006 -0.6765  0.2631
 6018TIP3    H139469   4.594   2.336   5.534  1.6326 -0.1711  0.2151
 6018TIP3    H239470   4.629   2.246   5.651 -0.6381 -1.2424  0.1131
 6019TIP3   OH239471   3.832   1.435   4.442  0.8684  0.3882  0.7396
 6019TIP3    H139472   3.848   1.441   4.348  0.6761 -0.9283  0.6088
 6019TIP3    H239473   3.750   1.387   4.450  0.3913  1.3056  1.5721
 6020TIP3   OH239474   3.792   2.195  12.752  0.1756 -0.2065 -0.1835
 6020TIP3    H139475   3.882   2.223  12.737  0.3189 -0.8169 -0.5179
 6020TIP3    H239476   3.799   2.124  12.816  0.1359 -1.5338 -1.5944
 6021TIP3   OH239477   4.464   3.177   1.891 -0.4874 -0.0498 -0.4451
 6021TIP3    H139478   4.499   3.189   1.802 -1.3018 -0.9054 -0.8935
 6021TIP3    H239479   4.453   3.083   1.900 -0.3078  0.0219  0.6216
 6022TIP3   OH239480   5.392   2.469   4.491  0.1400 -0.2647 -0.7982
 6022TIP3    H139481   5.421   2.413   4.563  3.1984 -0.0384 -1.7219
 6022TIP3    H239482   5.421   2.557   4.516 -1.0615  0.2614 -1.1830
 6023TIP3   OH239483   4.992   0.526   5.197  0.2061 -0.3320 -0.3303
 6023TIP3    H139484   4.989   0.592   5.267  1.1276 -1.4135  0.7708
 6023TIP3    H239485   4.900   0.513   5.172 -0.0774  0.5345  0.2296
 6024TIP3   OH239486   5.597   0.179   6.165  0.2229 -0.2382  0.0935
 6024TIP3    H139487   5.621   0.270   6.184  1.0184 -0.2581 -0.7292
 6024TIP3    H239488   5.581   0.140   6.250 -1.0268  0.8987  0.4248
 6025TIP3   OH239489   0.872   6.345   5.378  0.0702  0.1030 -0.4991
 6025TIP3    H139490   0.950   6.377   5.423  1.4375 -0.2488 -2.4641
 6025TIP3    H239491   0.871   6.251   5.397 -0.3704  0.2527  0.2238
 6026TIP3   OH239492   3.225   6.602  12.833 -0.3775  0.0707  0.3491
 6026TIP3    H139493   3.189   6.622  12.920  0.7774  0.3707  0.7721
 6026TIP3    H239494   3.300   6.545  12.851  0.3387  0.7581 -0.3864
 6027TIP3   OH239495   0.294   0.232  15.544  0.2923 -0.0265  0.1296
 6027TIP3    H139496   0.293   0.252  15.637  0.4737 -1.4162  0.4603
 6027TIP3    H239497   0.375   0.271  15.511 -0.0707  0.9939  0.4069
 6028TIP3   OH239498   4.066   4.580   0.420 -0.4131 -0.1209 -0.1029
 6028TIP3    H139499   4.048   4.531   0.340 -0.3360  1.6194 -1.2273
 6028TIP3    H239500   3.989   4.635   0.433  1.0254  2.2496 -1.0549
 6029TIP3   OH239501   2.527   6.307  14.804  0.0379  0.0706  0.1404
 6029TIP3    H139502   2.472   6.306  14.882  0.0605  1.9805  0.2482
 6029TIP3    H239503   2.604   6.256  14.828 -0.2629  0.0589  1.1271
 6030TIP3   OH239504   2.904   5.343   1.413  0.1866  0.9060 -0.2966
 6030TIP3    H139505   2.848   5.407   1.458  2.2511  3.3269 -0.9386
 6030TIP3    H239506   2.984   5.342   1.465 -0.2308 -2.3179  0.4753
 6031TIP3   OH239507   6.589   3.866  10.740  0.5935 -0.3500 -0.4733
 6031TIP3    H139508   6.573   3.849  10.833  0.1548 -0.1758 -0.5137
 6031TIP3    H239509   6.653   3.800  10.714  1.9610  0.6322  0.3398
 6032TIP3   OH239510   4.507   1.560  13.444  0.0922  0.3053 -0.3332
 6032TIP3    H139511   4.501   1.603  13.529  1.4907 -0.1479  0.0274
 6032TIP3    H239512   4.538   1.471  13.465  2.0131  0.6624 -1.3928
 6033TIP3   OH239513   2.427   5.482   0.777 -0.0133 -0.2360 -0.9009
 6033TIP3    H139514   2.394   5.498   0.689  1.7288  2.2671 -1.1998
 6033TIP3    H239515   2.521   5.498   0.771  0.5166 -2.1689  0.9765
 6034TIP3   OH239516   4.818   5.165   3.012 -0.7084 -0.5281 -0.6101
 6034TIP3    H139517   4.766   5.242   3.035 -1.1859 -1.6401  2.5848
 6034TIP3    H239518   4.901   5.200   2.979 -1.8030  1.2851 -1.5616
 6035TIP3   OH239519   4.574   1.341  13.723 -0.5496  0.1315 -0.8528
 6035TIP3    H139520   4.560   1.435  13.713  2.0020  0.8230  0.8720
 6035TIP3    H239521   4.550   1.323  13.814 -1.7059 -1.0716 -1.3752
 6036TIP3   OH239522   2.623   4.808  16.002  0.2351  0.0207 -0.8673
 6036TIP3    H139523   2.710   4.837  15.974  0.0827 -0.0912 -1.4763
 6036TIP3    H239524   2.615   4.841  16.091 -0.0653  2.1991 -1.6354
 6037TIP3   OH239525   4.641   4.798  12.842 -0.3468 -0.0810 -0.2978
 6037TIP3    H139526   4.707   4.749  12.891  1.3444  1.3594 -1.0021
 6037TIP3    H239527   4.600   4.733  12.785  0.5552 -0.9965  0.0710
 6038TIP3   OH239528   1.731   3.027  15.374 -0.3149 -0.0083 -0.3323
 6038TIP3    H139529   1.743   3.090  15.445 -0.2011  0.3232 -0.6401
 6038TIP3    H239530   1.636   3.012  15.371 -0.3505  0.2102 -0.3054
 6039TIP3   OH239531   4.646   0.089  12.255  0.4748 -0.1824  0.6008
 6039TIP3    H139532   4.710   0.107  12.324 -1.6831 -1.6096  3.1750
 6039TIP3    H239533   4.647  -0.006  12.246 -1.2211 -0.2295  0.6783
 6040TIP3   OH239534   0.589   5.049   0.884  0.1005 -0.7566  0.1398
 6040TIP3    H139535   0.534   5.045   0.805 -0.4959 -2.0714  0.5965
 6040TIP3    H239536   0.661   4.989   0.865 -0.6343 -1.9634  0.9952
 6041TIP3   OH239537   6.107   0.066  16.446  0.2581 -0.7997 -0.3912
 6041TIP3    H139538   6.197   0.039  16.428  0.1038 -1.4322 -0.2524
 6041TIP3    H239539   6.115   0.157  16.474  1.0264 -1.2357  0.9541
 6042TIP3   OH239540   2.124   0.065  15.520  0.0769  0.1055  0.1159
 6042TIP3    H139541   2.189   0.003  15.551 -0.8186  0.3050  2.6849
 6042TIP3    H239542   2.150   0.148  15.560 -1.4321  0.2825  0.8130
 6043TIP3   OH239543   2.684   4.490  16.411 -0.1554 -0.6234 -0.5196
 6043TIP3    H139544   2.771   4.518  16.384 -0.3859  2.0271  1.1346
 6043TIP3    H239545   2.685   4.498  16.507 -1.7905 -1.9426 -0.3417
 6044TIP3   OH239546   0.239   4.180   0.482  0.1546  0.3695 -0.0684
 6044TIP3    H139547   0.149   4.159   0.505  0.6311 -0.4508  1.1619
 6044TIP3    H239548   0.256   4.264   0.524 -0.2337  0.8613 -0.8746
 6045TIP3   OH239549   1.525   2.159   1.657  0.2429 -0.0451  0.1335
 6045TIP3    H139550   1.509   2.115   1.740  0.4757 -1.6623 -0.6425
 6045TIP3    H239551   1.609   2.204   1.670  0.5049 -0.6569  0.6266
 6046TIP3   OH239552   1.778   4.592  13.725 -0.3344 -0.1573 -0.5726
 6046TIP3    H139553   1.813   4.545  13.650  0.3592 -0.0817 -0.3042
 6046TIP3    H239554   1.820   4.551  13.801 -0.5554  0.1694 -0.2684
 6047TIP3   OH239555   2.512   1.059  16.575  0.0764 -0.0357  0.0547
 6047TIP3    H139556   2.518   1.047  16.669  1.1126  1.5364  0.2278
 6047TIP3    H239557   2.418   1.060  16.556 -0.1220 -1.3142  0.9110
 6048TIP3   OH239558   0.180   3.579  16.842  0.0435  0.2297  0.2900
 6048TIP3    H139559   0.267   3.573  16.880 -0.2231 -1.0829  0.7212
 6048TIP3    H239560   0.194   3.571  16.748  0.4441  0.7191  0.3026
 6049TIP3   OH239561   0.111   0.591  13.212  1.1316 -0.1464 -0.3345
 6049TIP3    H139562   0.187   0.533  13.208  1.0099 -0.4925  1.4511
 6049TIP3    H239563   0.055   0.552  13.279  1.2252  2.2177  1.2159
 6050TIP3   OH239564   3.235   4.180  12.521  0.0840 -0.3033 -0.2404
 6050TIP3    H139565   3.279   4.251  12.475 -1.0539 -0.2940 -1.3706
 6050TIP3    H239566   3.177   4.224  12.584 -0.4212 -0.2149 -0.7545
 6051TIP3   OH239567   0.716   1.810   2.312  0.2475  0.1526 -0.1741
 6051TIP3    H139568   0.661   1.806   2.234  0.4527 -1.4423 -0.2665
 6051TIP3    H239569   0.771   1.887   2.298 -0.3168  0.3978 -1.1892
 6052TIP3   OH239570   0.113   0.408   6.899 -0.0651  0.2780  0.2549
 6052TIP3    H139571   0.142   0.407   6.990 -1.2166 -1.7410  0.6658
 6052TIP3    H239572   0.128   0.318   6.868 -1.4167  0.4314 -0.9522
 6053TIP3   OH239573   0.521   2.671  14.917  0.5071  0.0470 -0.0306
 6053TIP3    H139574   0.595   2.701  14.865  0.9893 -0.6368  0.2455
 6053TIP3    H239575   0.559   2.611  14.981 -0.5417 -2.0560 -1.2621
 6054TIP3   OH239576   2.917   1.603  12.304  0.0464 -0.6192 -0.4527
 6054TIP3    H139577   2.829   1.568  12.288  0.5481 -2.3724  0.3507
 6054TIP3    H239578   2.922   1.682  12.250 -2.0109 -0.4808 -0.5129
 6055TIP3   OH239579   1.887   2.592  13.225 -0.4246 -0.1749  0.1052
 6055TIP3    H139580   1.873   2.593  13.130  0.3817  1.5457 -0.0309
 6055TIP3    H239581   1.957   2.528  13.238 -0.4055 -0.2830 -0.4850
 6056TIP3   OH239582   2.385   1.722  13.622  0.1045 -0.0775  0.0568
 6056TIP3    H139583   2.347   1.808  13.639 -0.4297  0.2663 -2.4206
 6056TIP3    H239584   2.377   1.711  13.527  5.6038 -0.2410 -0.7222
 6057TIP3   OH239585   2.780   5.767   0.163  0.4616  0.2598  0.2752
 6057TIP3    H139586   2.854   5.817   0.198  0.2648  0.3345  0.5811
 6057TIP3    H239587   2.710   5.780   0.226  0.5451 -0.7831  0.6097
 6058TIP3   OH239588   3.594   3.242   1.122 -0.1569  0.3959 -0.1039
 6058TIP3    H139589   3.618   3.159   1.163  1.9215  0.3124 -1.3585
 6058TIP3    H239590   3.527   3.278   1.179  1.4159 -0.4826  2.4571
 6059TIP3   OH239591   3.481   5.229  16.738  0.8968 -0.2896  0.5840
 6059TIP3    H139592   3.572   5.204  16.722  0.8190  0.5057 -1.4571
 6059TIP3    H239593   3.484   5.324  16.745  0.0719 -0.1182 -0.9830
 6060TIP3   OH239594   4.890   1.640  13.517 -0.1389 -0.4710  0.3395
 6060TIP3    H139595   4.844   1.646  13.433 -1.4252 -1.1854  0.9628
 6060TIP3    H239596   4.864   1.719  13.564  1.7644  0.6963 -0.4567
 6061TIP3   OH239597   2.115   0.404  16.313  0.0842  0.2493 -0.5337
 6061TIP3    H139598   2.064   0.473  16.270 -1.2531  0.0539  0.6653
 6061TIP3    H239599   2.061   0.326  16.305  0.3098 -0.0299  0.5206
 6062TIP3   OH239600   2.629   4.342   3.638  0.0920  0.3339  0.2892
 6062TIP3    H139601   2.678   4.348   3.720  0.9637  0.0487 -0.2024
 6062TIP3    H239602   2.541   4.315   3.665  1.0707 -2.5271  0.9367
 6063TIP3   OH239603   6.581   4.956   0.800 -0.1171 -0.4460 -0.0406
 6063TIP3    H139604   6.559   5.043   0.766 -1.2316 -1.5199 -2.1837
 6063TIP3    H239605   6.514   4.938   0.866 -0.4916 -0.1110 -0.3262
 6064TIP3   OH239606   4.591   0.939   5.431  0.6196 -0.2201 -0.0465
 6064TIP3    H139607   4.686   0.941   5.441  0.7215  0.4803 -0.9891
 6064TIP3    H239608   4.558   1.002   5.494  0.9563  1.1782 -1.2123
 6065TIP3   OH239609   4.709   4.619  12.395 -0.6480 -0.4910  0.5902
 6065TIP3    H139610   4.778   4.662  12.344 -1.8242  0.7187 -0.0508
 6065TIP3    H239611   4.751   4.542  12.433  1.0582  0.2436  0.2638
 6066TIP3   OH239612   3.263   5.822   4.410  0.5758 -0.5329  0.3236
 6066TIP3    H139613   3.328   5.887   4.382 -0.0643  0.3520  0.8463
 6066TIP3    H239614   3.269   5.823   4.506  1.4884 -2.2255  0.3148
 6067TIP3   OH239615   4.932   0.432  13.550  0.0595  0.4778  0.0856
 6067TIP3    H139616   4.992   0.505  13.535  0.8472 -0.1520  0.0486
 6067TIP3    H239617   4.990   0.356  13.560 -0.5914  0.1923  2.3326
 6068TIP3   OH239618   2.013   2.994  16.224  0.3096  0.2562  0.0524
 6068TIP3    H139619   2.086   2.980  16.285 -1.5430 -0.0079  2.3254
 6068TIP3    H239620   1.972   3.075  16.254 -1.7975 -0.8761  0.4000
 6069TIP3   OH239621   0.868   3.026  14.523  0.2347 -0.3102  0.5053
 6069TIP3    H139622   0.907   3.105  14.485 -0.7653  0.1807  0.4637
 6069TIP3    H239623   0.817   2.989  14.451  0.8006 -1.0798  0.4894
 6070TIP3   OH239624   5.287   0.580   5.235  0.7589 -0.2168  0.2135
 6070TIP3    H139625   5.279   0.668   5.270 -0.1486 -0.3458  0.3515
 6070TIP3    H239626   5.211   0.569   5.178 -0.8470 -1.9024  2.4591
 6071TIP3   OH239627   0.791   4.329  10.347 -0.3307 -0.0004 -0.0160
 6071TIP3    H139628   0.740   4.248  10.344 -0.9169  0.3563  0.3268
 6071TIP3    H239629   0.740   4.388  10.402 -0.9043  1.2841 -1.8484
 6072TIP3   OH239630   6.131   4.869   5.020  0.3340  0.1804 -0.3040
 6072TIP3    H139631   6.134   4.957   4.983  1.5467  0.0418 -0.5906
 6072TIP3    H239632   6.219   4.856   5.057  1.0434 -1.7904 -2.4169
 6073TIP3   OH239633   4.117   5.087  12.233  0.0952  0.6771 -0.8101
 6073TIP3    H139634   4.028   5.112  12.208  0.1007  0.4002 -1.1102
 6073TIP3    H239635   4.166   5.169  12.233 -0.1304  0.8139 -0.7601
 6074TIP3   OH239636   3.291   3.081   0.779  0.0881  0.1366  0.3716
 6074TIP3    H139637   3.379   3.099   0.812 -0.8398  2.3963  1.8559
 6074TIP3    H239638   3.288   3.123   0.693  0.4586  0.0668  0.3256
 6075TIP3   OH239639   4.503   5.216   2.748  0.2040 -0.3665 -0.3084
 6075TIP3    H139640   4.484   5.147   2.811  0.4361 -0.5135 -0.3983
 6075TIP3    H239641   4.536   5.289   2.801 -0.1672 -0.2733 -0.1998
 6076TIP3   OH239642   0.694   2.599   4.942 -0.0662  0.0422 -0.4032
 6076TIP3    H139643   0.600   2.612   4.956  0.2467  1.0784  0.9107
 6076TIP3    H239644   0.700   2.565   4.852 -1.6404  0.4496 -0.7011
 6077TIP3   OH239645   0.495   1.354   3.756 -0.1462 -0.8147 -0.2858
 6077TIP3    H139646   0.465   1.432   3.803 -0.7002 -0.2352 -1.5686
 6077TIP3    H239647   0.583   1.376   3.726  1.4884 -2.2606  2.8787
 6078TIP3   OH239648   4.831   2.487  13.932 -0.3409 -0.4387  0.5863
 6078TIP3    H139649   4.738   2.470  13.925 -0.0875 -1.7502  0.1736
 6078TIP3    H239650   4.840   2.580  13.911 -1.5940 -0.1690  1.1393
 6079TIP3   OH239651   6.205   5.870   1.251  0.2312 -0.2396 -0.6398
 6079TIP3    H139652   6.247   5.954   1.234 -1.4004  0.6400 -0.5242
 6079TIP3    H239653   6.274   5.816   1.289  1.5414  0.7454 -1.5119
 6080TIP3   OH239654   3.828   1.850  16.164  0.0441 -0.2092 -0.0914
 6080TIP3    H139655   3.781   1.807  16.236  0.4188  0.1361  0.3655
 6080TIP3    H239656   3.895   1.902  16.207  0.2490  0.0346 -0.6957
 6081TIP3   OH239657   3.013   2.753  13.484  0.1126  0.2430 -0.5289
 6081TIP3    H139658   2.928   2.712  13.501  0.1272 -0.2263 -1.5558
 6081TIP3    H239659   2.992   2.832  13.433 -0.0037  2.0849  2.1627
 6082TIP3   OH239660   1.421   1.641  15.996  0.2257  0.0878 -0.2814
 6082TIP3    H139661   1.463   1.713  15.949 -0.1430 -0.3695 -1.3379
 6082TIP3    H239662   1.409   1.674  16.085  1.5115  0.7428 -0.3357
 6083TIP3   OH239663   5.301   1.354  14.540  0.3889 -0.2880 -0.3532
 6083TIP3    H139664   5.349   1.272  14.557  1.8459  0.2626 -1.5448
 6083TIP3    H239665   5.278   1.349  14.447  0.6896  0.7478 -0.4927
 6084TIP3   OH239666   6.481   2.088   3.393  0.3131 -0.5747 -0.0240
 6084TIP3    H139667   6.440   2.013   3.349 -1.3101 -0.1924  0.7421
 6084TIP3    H239668   6.438   2.091   3.479  0.6637  0.9664  0.1224
 6085TIP3   OH239669   1.752   0.943   2.589  0.1497 -0.2044  0.2753
 6085TIP3    H139670   1.657   0.935   2.590 -0.1000  1.7894 -1.0452
 6085TIP3    H239671   1.771   1.016   2.648  0.6756  0.4553 -0.6693
 6086TIP3   OH239672   0.894   5.864  15.995  0.8285 -0.3869 -0.4790
 6086TIP3    H139673   0.843   5.793  16.033 -0.6380  0.6544 -0.4240
 6086TIP3    H239674   0.849   5.944  16.022  1.3399  0.5051 -2.0830
 6087TIP3   OH239675   4.004   5.787  14.865 -0.6239 -0.4058  0.2683
 6087TIP3    H139676   3.961   5.704  14.845  2.0718 -2.3115  1.6773
 6087TIP3    H239677   4.097   5.771  14.846  0.0398  2.2176  0.8659
 6088TIP3   OH239678   0.268   5.057  14.160 -0.0872 -0.4335 -0.7822
 6088TIP3    H139679   0.239   5.078  14.071  1.5698 -0.5012 -1.3866
 6088TIP3    H239680   0.231   5.125  14.215  2.3386  2.2146 -2.1693
 6089TIP3   OH239681   6.328   0.348  12.050 -0.2026  0.0374 -0.5266
 6089TIP3    H139682   6.254   0.387  12.096  0.6558  0.8203  0.2248
 6089TIP3    H239683   6.359   0.279  12.109 -0.7992 -0.8404 -1.1977
 6090TIP3   OH239684   5.219   1.273  11.105  0.4702  0.1806 -0.0498
 6090TIP3    H139685   5.225   1.185  11.070 -0.2809  0.1702 -0.1766
 6090TIP3    H239686   5.259   1.268  11.192  0.8030 -0.1872 -0.2291
 6091TIP3   OH239687   3.063   0.361  15.385  0.3763 -0.1326  0.0364
 6091TIP3    H139688   3.118   0.331  15.312 -1.3623 -1.3631 -0.8327
 6091TIP3    H239689   3.023   0.442  15.353  0.4979 -0.0545  0.0800
 6092TIP3   OH239690   2.165   4.563  15.441  0.2873 -0.1034 -0.1016
 6092TIP3    H139691   2.250   4.534  15.475  0.2355 -0.7231 -0.4883
 6092TIP3    H239692   2.101   4.529  15.504  0.3679  1.0577  0.6351
 6093TIP3   OH239693   6.462   2.870  12.934  0.4334  0.0856 -0.5791
 6093TIP3    H139694   6.379   2.862  12.887  0.0437  0.0156  0.1022
 6093TIP3    H239695   6.518   2.803  12.894 -0.3706 -1.0028  0.0275
 6094TIP3   OH239696   6.353   5.347   4.735 -0.2697  0.3268  0.2488
 6094TIP3    H139697   6.336   5.256   4.712 -0.4728  0.2723  0.6057
 6094TIP3    H239698   6.447   5.358   4.720 -0.3091  0.1577 -0.1310
 6095TIP3   OH239699   3.108   3.834  12.624 -0.0594  0.3237 -0.1173
 6095TIP3    H139700   3.092   3.873  12.538  0.5618  1.0383  0.0771
 6095TIP3    H239701   3.198   3.803  12.620 -0.3218 -0.4671 -0.0250
 6096TIP3   OH239702   4.519   5.338  13.815 -0.3039  0.3010  0.1468
 6096TIP3    H139703   4.442   5.283  13.826  1.1807 -2.1305 -0.7444
 6096TIP3    H239704   4.527   5.350  13.721  1.4401 -1.2237  0.0360
 6097TIP3   OH239705   6.351   2.478  14.929 -0.4356  0.6604 -0.1389
 6097TIP3    H139706   6.298   2.458  14.852  0.5956  1.4914 -1.1038
 6097TIP3    H239707   6.347   2.400  14.983 -1.1336  0.0378 -1.0762
 6098TIP3   OH239708   1.156   5.282   0.288  0.1222  0.5414  0.3353
 6098TIP3    H139709   1.137   5.194   0.321  1.6466 -0.0659 -0.3117
 6098TIP3    H239710   1.072   5.328   0.293 -0.2970 -0.3578  2.4249
 6099TIP3   OH239711   6.675   5.857   0.740  0.3655  0.0487  0.2414
 6099TIP3    H139712   6.645   5.836   0.651 -1.0421 -2.1370  1.1629
 6099TIP3    H239713   6.720   5.778   0.769  4.0490  1.9198  0.2972
 6100TIP3   OH239714   4.566   1.195   1.521  0.1063  0.5640 -0.1697
 6100TIP3    H139715   4.571   1.106   1.487 -0.6382  0.6871 -0.6348
 6100TIP3    H239716   4.498   1.236   1.468 -0.6263  0.9607  1.0517
 6101TIP3   OH239717   4.135   2.254  13.940  0.5386  0.0918 -0.0426
 6101TIP3    H139718   4.088   2.308  14.003 -0.3943 -1.8889  1.0133
 6101TIP3    H239719   4.071   2.190  13.910  0.5973  1.5551 -3.8830
 6102TIP3   OH239720   2.995   1.164   3.906  0.1471  0.4956  0.1333
 6102TIP3    H139721   2.980   1.189   3.997  1.4188  0.3878  0.3897
 6102TIP3    H239722   2.933   1.217   3.856 -0.5971  0.5228  1.0603
 6103TIP3   OH239723   4.877   3.512  16.877 -0.5471 -0.1450 -0.0979
 6103TIP3    H139724   4.808   3.539  16.937 -0.7854 -0.4306 -0.2395
 6103TIP3    H239725   4.958   3.535  16.922 -0.6574 -2.0001  1.1407
 6104TIP3   OH239726   2.940   5.308  13.589 -0.3901  0.1841  0.4035
 6104TIP3    H139727   3.001   5.359  13.643  1.3546 -1.0641 -0.2841
 6104TIP3    H239728   2.857   5.312  13.636  0.3981  1.3411  1.7715
 6105TIP3   OH239729   2.336   3.651  15.736 -0.6908  0.3790  0.1049
 6105TIP3    H139730   2.244   3.630  15.752 -0.8141  0.1516 -0.8574
 6105TIP3    H239731   2.359   3.712  15.806 -1.6291  0.5967  0.2362
 6106TIP3   OH239732   2.340   5.625   4.612 -0.5009 -0.4599 -0.5490
 6106TIP3    H139733   2.321   5.622   4.706 -1.5121  1.6105 -0.6379
 6106TIP3    H239734   2.426   5.585   4.604 -0.2062 -0.2912  1.3164
 6107TIP3   OH239735   2.626   5.577  12.873  0.0516  0.0482 -0.6153
 6107TIP3    H139736   2.567   5.501  12.879  0.8775 -0.5020  1.0663
 6107TIP3    H239737   2.713   5.541  12.887  0.5801  1.1573 -0.9521
 6108TIP3   OH239738   1.167   4.105   4.652  0.0328  0.1186  0.2759
 6108TIP3    H139739   1.191   4.019   4.618 -1.5282 -0.3861  0.4040
 6108TIP3    H239740   1.242   4.130   4.707  1.0697 -0.5703 -0.7693
 6109TIP3   OH239741   5.153   0.307  11.775 -0.2922 -0.6167 -0.2532
 6109TIP3    H139742   5.111   0.392  11.769  2.1206  0.6902  0.2385
 6109TIP3    H239743   5.105   0.261  11.844  0.2144  1.5296  1.6260
 6110TIP3   OH239744   4.935   2.209  14.141  0.6586 -0.0869 -0.0050
 6110TIP3    H139745   5.021   2.193  14.102  1.0475 -0.8849  1.1246
 6110TIP3    H239746   4.876   2.218  14.067  1.5219 -0.6865 -0.7814
 6111TIP3   OH239747   1.283   6.371   3.572  0.7355  0.4628  0.0435
 6111TIP3    H139748   1.279   6.462   3.599 -1.2950  0.0134  1.4877
 6111TIP3    H239749   1.375   6.347   3.580  1.3604  2.4130 -0.6337
 6112TIP3   OH239750   5.714   1.136  11.172 -0.8316 -0.2467 -0.1332
 6112TIP3    H139751   5.692   1.225  11.144 -1.2223  0.0730  1.1025
 6112TIP3    H239752   5.634   1.105  11.216 -0.7459 -1.2602 -0.6697
 6113TIP3   OH239753   3.503   2.786   3.529 -0.3703  0.2039  0.3395
 6113TIP3    H139754   3.519   2.828   3.445 -0.3257 -0.0383  0.2237
 6113TIP3    H239755   3.584   2.797   3.577 -0.4760  0.5449  0.4383
 6114TIP3   OH239756   2.028   5.864   5.503 -0.5519 -0.6003  0.2079
 6114TIP3    H139757   1.944   5.843   5.543  0.5811 -2.0285  2.0281
 6114TIP3    H239758   2.073   5.917   5.568  1.3930 -3.0674  1.0197
 6115TIP3   OH239759   4.145   2.224  10.382  0.0516 -0.6470  0.0249
 6115TIP3    H139760   4.196   2.161  10.332 -1.5702  0.5636 -3.5018
 6115TIP3    H239761   4.056   2.189  10.380 -0.2295 -0.0552  1.2992
 6116TIP3   OH239762   1.937   3.513  16.869 -0.0337 -0.0654 -0.0128
 6116TIP3    H139763   1.994   3.564  16.925  0.1241  0.6184 -0.7750
 6116TIP3    H239764   1.969   3.529  16.780 -1.6880  0.7461 -0.5170
 6117TIP3   OH239765   3.995   1.685  16.014  0.3372  0.0507 -0.2098
 6117TIP3    H139766   4.021   1.719  15.929 -0.4563 -0.4615 -0.6704
 6117TIP3    H239767   3.907   1.721  16.029 -0.1997 -1.1624 -0.3601
 6118TIP3   OH239768   1.493   4.528   4.140 -0.7197  0.0698 -0.3396
 6118TIP3    H139769   1.525   4.507   4.052  0.2094 -1.0124  0.2212
 6118TIP3    H239770   1.565   4.577   4.180  0.1150 -1.9698  0.7789
 6119TIP3   OH239771   2.930   5.802   4.623 -0.2575  0.0222 -0.5047
 6119TIP3    H139772   2.868   5.821   4.693  0.6639 -1.3274  0.7447
 6119TIP3    H239773   2.876   5.772   4.550 -1.0643 -2.6253  1.0678
 6120TIP3   OH239774   2.586   1.362   4.181 -0.1365 -0.1919  0.5729
 6120TIP3    H139775   2.543   1.390   4.262 -0.1810  0.6587  0.2721
 6120TIP3    H239776   2.616   1.444   4.141  0.0689 -0.6192 -0.1635
 6121TIP3   OH239777   2.445   3.519  12.303  0.5260  0.0348  0.2352
 6121TIP3    H139778   2.401   3.526  12.218 -0.2593  0.2548  0.6445
 6121TIP3    H239779   2.470   3.427  12.311 -1.8958 -0.6440  0.9410
 6122TIP3   OH239780   4.412   1.670   6.061  0.2634 -0.0237  0.0639
 6122TIP3    H139781   4.447   1.754   6.032  0.0458  0.4357  1.0944
 6122TIP3    H239782   4.391   1.683   6.154 -0.8007 -0.8818 -0.0386
 6123TIP3   OH239783   3.207   3.251   1.717 -0.4828  0.0897  0.0644
 6123TIP3    H139784   3.236   3.197   1.643  1.8331 -0.6729  1.4160
 6123TIP3    H239785   3.143   3.311   1.679  2.3866  1.4585 -3.1748
 6124TIP3   OH239786   1.258   5.295  11.788 -0.3333  0.1161  0.1854
 6124TIP3    H139787   1.340   5.245  11.794 -0.6254 -0.6400 -1.5609
 6124TIP3    H239788   1.265   5.344  11.706 -1.7797 -0.2931 -0.2130
 6125TIP3   OH239789   3.952   6.163   2.307 -0.5875 -0.0573  0.3186
 6125TIP3    H139790   3.910   6.125   2.230 -0.7988 -0.7462  0.7685
 6125TIP3    H239791   4.043   6.178   2.280 -1.3399  2.6939 -1.1251
 6126TIP3   OH239792   1.161   6.648  14.526  0.4535  0.1035 -0.2399
 6126TIP3    H139793   1.247   6.655  14.484 -0.0903 -1.0941 -1.6351
 6126TIP3    H239794   1.129   6.738  14.531  0.7461  0.3374 -2.0269
 6127TIP3   OH239795   5.585   6.500   2.394  0.0528  0.6079 -0.1599
 6127TIP3    H139796   5.503   6.475   2.352 -0.3944 -1.0651  1.5401
 6127TIP3    H239797   5.565   6.582   2.439 -0.8677 -0.0329  0.6455
 6128TIP3   OH239798   6.712   6.545   0.640 -0.2170  0.6274 -0.6909
 6128TIP3    H139799   6.655   6.487   0.591 -0.6318  0.6231 -0.2106
 6128TIP3    H239800   6.676   6.632   0.625 -0.8512  0.5414  0.2752
 6129TIP3   OH239801   1.830   3.529   4.300  0.2087 -0.0666  0.1632
 6129TIP3    H139802   1.805   3.446   4.340  2.4595 -0.9733 -0.1982
 6129TIP3    H239803   1.890   3.505   4.230 -0.2373  1.7925 -0.9060
 6130TIP3   OH239804   5.893   0.230   1.312  0.0860 -0.0650  0.4282
 6130TIP3    H139805   5.809   0.185   1.308  1.2069 -2.1576 -1.5445
 6130TIP3    H239806   5.957   0.164   1.288  2.0596  2.0790 -0.5879
 6131TIP3   OH239807   0.165   3.187   2.084 -0.1275 -0.4470 -0.0996
 6131TIP3    H139808   0.220   3.238   2.143  0.2854  0.1498 -0.9951
 6131TIP3    H239809   0.165   3.236   2.002 -0.6402 -1.3044 -0.6247
 6132TIP3   OH239810   2.828   2.914  11.010 -0.4312 -0.2791 -0.6174
 6132TIP3    H139811   2.849   2.821  11.005 -5.2219 -1.6026 -1.8620
 6132TIP3    H239812   2.799   2.937  10.921  0.5395  2.4236 -0.3339
 6133TIP3   OH239813   3.442   3.800  17.011  0.1247 -0.0271  0.2271
 6133TIP3    H139814   3.400   3.730  16.961 -1.7336  0.1199  1.4824
 6133TIP3    H239815   3.375   3.869  17.015  1.2248  1.0416  0.6416
 6134TIP3   OH239816   2.677   3.948   2.690 -0.7174  0.4276  0.0426
 6134TIP3    H139817   2.759   3.912   2.723 -1.2567 -0.0837  0.8715
 6134TIP3    H239818   2.672   4.036   2.728  0.4000  1.2874 -1.6509
 6135TIP3   OH239819   6.254   6.221  14.236  0.2397  0.0017  0.6574
 6135TIP3    H139820   6.338   6.235  14.193 -0.2451 -0.3004 -0.4498
 6135TIP3    H239821   6.234   6.129  14.219 -1.1848  0.5266 -0.7769
 6136TIP3   OH239822   3.442   3.054  14.236 -0.9279  0.0654  0.2289
 6136TIP3    H139823   3.367   3.084  14.185 -0.2171  0.0439 -0.8589
 6136TIP3    H239824   3.496   3.132  14.248 -0.9557  0.0151  0.7370
 6137TIP3   OH239825   5.635   0.778   6.397  0.1087 -0.9292 -0.1972
 6137TIP3    H139826   5.687   0.785   6.477 -0.1771  0.1672 -0.0953
 6137TIP3    H239827   5.630   0.684   6.380  0.9576 -1.1225  0.5529
 6138TIP3   OH239828   2.679   4.939  11.914  0.4631  0.4105  0.3199
 6138TIP3    H139829   2.614   4.922  11.982 -0.8047  1.0049 -0.6901
 6138TIP3    H239830   2.685   5.035  11.911  0.0105  0.4214 -0.8131
 6139TIP3   OH239831   5.604   6.316   4.396 -0.0753 -0.4945  0.2316
 6139TIP3    H139832   5.645   6.317   4.482  0.6194  0.1426 -0.0916
 6139TIP3    H239833   5.571   6.227   4.386  1.0676 -0.9818  0.5867
 6140TIP3   OH239834   0.944   5.111   3.408  0.1751 -0.1830 -0.4376
 6140TIP3    H139835   0.953   5.046   3.338  1.5316 -0.4572 -0.0173
 6140TIP3    H239836   0.934   5.059   3.488 -0.1695  0.1338 -0.2729
 6141TIP3   OH239837   1.472   3.446   5.013 -0.5026 -1.0135  0.1689
 6141TIP3    H139838   1.498   3.367   5.061  0.5463 -1.3538 -0.9087
 6141TIP3    H239839   1.526   3.515   5.051  0.0153 -1.2019 -0.2071
 6142TIP3   OH239840   2.808   6.146   6.385  0.4405  0.1510  0.5703
 6142TIP3    H139841   2.898   6.166   6.411 -0.3158  1.7129  2.1420
 6142TIP3    H239842   2.758   6.148   6.467 -1.0308 -0.7387 -0.2614
 6143TIP3   OH239843   0.130   5.973  17.186 -0.4572  0.3825 -0.5173
 6143TIP3    H139844   0.159   5.958  17.276 -0.3059  1.0625 -0.4505
 6143TIP3    H239845   0.065   5.905  17.170 -0.1194 -0.0541 -0.0672
 6144TIP3   OH239846   2.757   4.004  13.762  0.1775  0.0991 -0.0658
 6144TIP3    H139847   2.706   3.945  13.706  1.2368  0.1226 -1.0628
 6144TIP3    H239848   2.717   4.090  13.749 -1.3444 -0.3278  1.3556
 6145TIP3   OH239849   6.433   0.425   3.160 -0.4182  0.3012  0.1564
 6145TIP3    H139850   6.413   0.431   3.254 -1.3420 -0.8001  0.0536
 6145TIP3    H239851   6.406   0.337   3.135 -0.6294  0.7360 -1.2478
 6146TIP3   OH239852   6.218   5.202  15.243  0.0974 -0.1644 -0.2781
 6146TIP3    H139853   6.314   5.196  15.244  0.0579 -0.9396 -0.3710
 6146TIP3    H239854   6.198   5.278  15.297  0.6800 -1.4638  1.8878
 6147TIP3   OH239855   6.730   3.917   5.035 -0.5830 -0.0287  0.2231
 6147TIP3    H139856   6.645   3.886   5.066 -1.4493 -0.2614 -2.1836
 6147TIP3    H239857   6.772   3.839   4.999  1.3846 -0.2510  2.7281
 6148TIP3   OH239858   0.828   5.001   2.713 -0.3261 -0.2439 -0.7529
 6148TIP3    H139859   0.745   5.003   2.667 -0.2531  1.2306 -0.8690
 6148TIP3    H239860   0.890   4.964   2.651 -0.6683 -0.2576 -1.0849
 6149TIP3   OH239861   2.164   3.802  13.480 -0.0601 -0.0029  0.5000
 6149TIP3    H139862   2.167   3.731  13.545 -0.8752  0.4825  1.0865
 6149TIP3    H239863   2.071   3.819  13.468  0.0898  0.0792 -0.6389
 6150TIP3   OH239864   5.315   2.298  16.193  0.1908  0.2061  0.5591
 6150TIP3    H139865   5.365   2.216  16.186  0.2204  0.2567  0.1491
 6150TIP3    H239866   5.341   2.348  16.115  0.6080  0.8490  1.1080
 6151TIP3   OH239867   1.442   0.198   1.118 -0.3925  0.0787 -0.3173
 6151TIP3    H139868   1.439   0.219   1.025 -0.4118 -2.0899 -0.8689
 6151TIP3    H239869   1.533   0.212   1.144 -0.0679 -0.6232 -1.0384
 6152TIP3   OH239870   0.718   2.706   0.799 -0.4445  0.1274  0.0163
 6152TIP3    H139871   0.646   2.709   0.862  0.6326  0.0562  1.2922
 6152TIP3    H239872   0.796   2.723   0.851  0.5384 -0.4308 -1.2247
 6153TIP3   OH239873   2.166   2.434   2.454 -0.3078  0.2146  0.6005
 6153TIP3    H139874   2.204   2.358   2.412 -2.6060 -0.7635  0.1257
 6153TIP3    H239875   2.193   2.508   2.401  0.1171 -0.5442 -0.2508
 6154TIP3   OH239876   3.639   5.818   0.362 -0.2665 -0.2307  0.0737
 6154TIP3    H139877   3.635   5.913   0.361 -1.3729 -0.2478  1.0058
 6154TIP3    H239878   3.603   5.791   0.277 -0.9398  0.1719  0.2240
 6155TIP3   OH239879   3.098   1.668  14.038 -0.3110  0.0153 -0.1789
 6155TIP3    H139880   3.107   1.749  14.088  0.8818 -1.5046  2.2305
 6155TIP3    H239881   3.164   1.674  13.969 -1.0463  1.5391 -0.8116
 6156TIP3   OH239882   3.819   0.471   4.154 -0.7550  0.5036 -0.0571
 6156TIP3    H139883   3.836   0.384   4.189 -0.1469  0.6149 -0.0734
 6156TIP3    H239884   3.728   0.489   4.179 -1.3962 -0.7461 -1.3589
 6157TIP3   OH239885   3.617   3.369   4.900  0.1014 -0.4217  0.2672
 6157TIP3    H139886   3.543   3.313   4.875 -1.2888  1.4508 -0.0848
 6157TIP3    H239887   3.635   3.420   4.821  0.4994  0.4943  0.9376
 6158TIP3   OH239888   0.195   4.408   2.218 -0.2119  0.2124 -0.2641
 6158TIP3    H139889   0.156   4.326   2.187 -0.5008  0.2044  0.1193
 6158TIP3    H239890   0.186   4.468   2.144 -1.6755  0.4498  0.0883
 6159TIP3   OH239891   6.006   3.986  15.579  0.1330  0.3665 -0.2168
 6159TIP3    H139892   6.085   3.948  15.619 -0.6853 -0.6014  0.5288
 6159TIP3    H239893   6.038   4.061  15.529  1.8108 -1.1705 -1.5973
 6160TIP3   OH239894   6.474   5.290   5.840 -0.1066 -0.1553  0.3938
 6160TIP3    H139895   6.516   5.205   5.832 -0.0878 -0.4563  2.9457
 6160TIP3    H239896   6.528   5.338   5.904  0.0409  1.9194 -1.1516
 6161TIP3   OH239897   6.301   0.654   5.353 -0.4470  0.4897 -0.8312
 6161TIP3    H139898   6.363   0.629   5.422  0.1561 -0.5229 -1.6960
 6161TIP3    H239899   6.356   0.684   5.281 -0.8657 -1.1461 -1.9032
 6162TIP3   OH239900   6.107   2.571   3.042 -0.0998 -0.2235  0.1047
 6162TIP3    H139901   6.116   2.564   2.947  0.8854  0.3436  0.1438
 6162TIP3    H239902   6.142   2.657   3.063 -0.5543 -0.2357  0.9644
 6163TIP3   OH239903   2.331   5.295   3.515 -0.2147 -0.1399 -0.1146
 6163TIP3    H139904   2.280   5.338   3.446  0.2928  1.6000  0.5275
 6163TIP3    H239905   2.267   5.270   3.581 -0.4616  0.1698 -0.2352
 6164TIP3   OH239906   1.341   4.986   3.425 -0.6045 -0.5397  0.1393
 6164TIP3    H139907   1.329   5.030   3.509 -2.3907  0.5030 -0.6020
 6164TIP3    H239908   1.428   4.946   3.431 -0.0150  0.8638  1.8647
 6165TIP3   OH239909   4.412   6.288   1.051  0.2581 -0.2678  0.1638
 6165TIP3    H139910   4.441   6.205   1.088  2.0820 -0.9775 -2.5920
 6165TIP3    H239911   4.358   6.263   0.976  0.0544  1.0503 -0.1524
 6166TIP3   OH239912   3.105   1.892  13.562 -0.1339 -0.1641 -0.6430
 6166TIP3    H139913   3.092   1.885  13.657 -0.9348 -0.3837 -0.7583
 6166TIP3    H239914   3.061   1.814  13.527 -1.4204  0.8206 -1.3201
 6167TIP3   OH239915   1.227   2.273  15.103  0.3656  0.4157 -0.5559
 6167TIP3    H139916   1.212   2.347  15.162 -0.2866 -0.1029 -0.0517
 6167TIP3    H239917   1.281   2.213  15.154 -0.1645 -0.0144 -0.4833
 6168TIP3   OH239918   3.543   3.738   1.963 -0.8440 -0.1329  0.4889
 6168TIP3    H139919   3.585   3.659   1.996  0.0993 -0.3697 -1.1429
 6168TIP3    H239920   3.493   3.708   1.886  0.4718  0.9883 -0.8629
 6169TIP3   OH239921   0.190   2.262  10.752  0.1562  0.0974 -0.4791
 6169TIP3    H139922   0.242   2.319  10.696  0.2395  1.2901  0.7440
 6169TIP3    H239923   0.103   2.303  10.753  0.5123  0.9199  1.3018
 6170TIP3   OH239924   0.766   1.115  11.825  0.0940  0.5432 -0.0357
 6170TIP3    H139925   0.818   1.149  11.752 -1.3688 -0.4091 -1.5947
 6170TIP3    H239926   0.815   1.039  11.855  1.7853  2.1085  1.4438
 6171TIP3   OH239927   0.311   4.441   4.936 -0.3684  0.2269 -0.2002
 6171TIP3    H139928   0.381   4.387   4.973  0.3749 -0.2524 -2.1903
 6171TIP3    H239929   0.232   4.386   4.942 -0.1831  0.0214  0.3315
 6172TIP3   OH239930   6.660   4.381   2.341  0.6265  0.3013  0.3451
 6172TIP3    H139931   6.663   4.376   2.437 -1.0481 -2.5645  0.3723
 6172TIP3    H239932   6.732   4.325   2.312  0.2862  0.0606 -0.0436
 6173TIP3   OH239933   0.995   5.195  16.733  0.4578 -0.0449  0.3132
 6173TIP3    H139934   0.918   5.141  16.750  0.1386  0.4373  0.4088
 6173TIP3    H239935   1.002   5.197  16.638  0.5074 -0.3027  0.3114
 6174TIP3   OH239936   0.393   1.529  11.764  0.6007  0.0263  0.1455
 6174TIP3    H139937   0.384   1.623  11.777  0.1254  0.1386 -0.8306
 6174TIP3    H239938   0.471   1.520  11.709  0.0154 -0.0309 -0.7138
 6175TIP3   OH239939   6.569   0.834  11.820  0.2624 -0.3394 -0.0156
 6175TIP3    H139940   6.611   0.888  11.886 -0.4610 -1.0632  1.0789
 6175TIP3    H239941   6.491   0.800  11.864 -0.0732 -1.0862 -1.1526
 6176TIP3   OH239942   1.197   1.805  16.610 -0.3486 -0.3678  0.3416
 6176TIP3    H139943   1.110   1.847  16.608 -0.4466 -0.5423  0.7453
 6176TIP3    H239944   1.258   1.879  16.611 -0.5192 -0.2238  0.9944
 6177TIP3   OH239945   3.916   0.775   5.523 -0.2154  0.5084 -0.2112
 6177TIP3    H139946   3.960   0.690   5.517  1.5907  1.2825  0.9848
 6177TIP3    H239947   3.988   0.837   5.533 -1.5429  2.0756 -0.1579
 6178TIP3   OH239948   3.248   1.595   0.194 -0.2259 -0.4318 -0.5455
 6178TIP3    H139949   3.278   1.663   0.134 -2.4413  0.7529 -0.4309
 6178TIP3    H239950   3.279   1.624   0.280 -1.2132  0.5087 -0.4878
 6179TIP3   OH239951   6.472   5.574   4.078 -0.2693 -0.2820 -0.3047
 6179TIP3    H139952   6.383   5.540   4.086  0.4345 -2.6618 -1.4074
 6179TIP3    H239953   6.473   5.619   3.993 -0.9326  1.6801  0.6822
 6180TIP3   OH239954   3.791   2.243   1.285  0.2209  0.0974  0.0769
 6180TIP3    H139955   3.820   2.229   1.195  0.9177 -0.9377  0.4345
 6180TIP3    H239956   3.866   2.281   1.330  0.6096 -1.3228  0.6905
 6181TIP3   OH239957   0.956   3.173   1.597  0.3783  0.0067 -0.5579
 6181TIP3    H139958   0.898   3.247   1.578 -1.0144 -1.7458 -3.9846
 6181TIP3    H239959   1.004   3.159   1.516  2.5035 -1.3369  0.8396
 6182TIP3   OH239960   0.291   6.054   4.036 -0.1207  0.1115  0.2228
 6182TIP3    H139961   0.250   5.969   4.053 -0.5317  0.5597  1.5899
 6182TIP3    H239962   0.247   6.087   3.958 -0.3124 -0.6858 -0.0237
 6183TIP3   OH239963   3.759   2.146  11.235  0.2224 -0.3467 -0.1557
 6183TIP3    H139964   3.733   2.226  11.188 -1.8416  0.9500  2.9155
 6183TIP3    H239965   3.684   2.088  11.227 -0.2240 -0.0499  1.5030
 6184TIP3   OH239966   1.805   2.884   4.849 -0.2609  0.1706  0.3708
 6184TIP3    H139967   1.765   2.965   4.816 -1.4741 -1.0409 -1.3285
 6184TIP3    H239968   1.751   2.814   4.811  1.3404 -1.4609  0.9764
 6185TIP3   OH239969   6.694   4.168   1.387  0.5720 -0.1378  0.0877
 6185TIP3    H139970   6.615   4.153   1.335 -0.1474  1.7273  0.5499
 6185TIP3    H239971   6.688   4.105   1.460 -1.5043  1.1978  1.1635
 6186TIP3   OH239972   0.790   2.602  15.010 -0.2891  0.3140  0.0486
 6186TIP3    H139973   0.807   2.509  14.993 -0.9003  0.1920  0.0846
 6186TIP3    H239974   0.838   2.648  14.942  0.8249  0.0240  0.6023
 6187TIP3   OH239975   3.975   1.866   3.782  0.5536  0.8411  0.0861
 6187TIP3    H139976   3.901   1.841   3.836  1.9324 -0.9436  1.2781
 6187TIP3    H239977   3.976   1.801   3.711  0.5594  1.3048 -0.3458
 6188TIP3   OH239978   0.991   4.922  14.849 -0.2159 -0.2829  0.1126
 6188TIP3    H139979   1.034   4.927  14.935 -1.1167 -1.7162  0.6812
 6188TIP3    H239980   0.897   4.921  14.869 -0.4245 -2.0705 -0.7660
 6189TIP3   OH239981   1.118   4.824  12.914  0.1054  0.1245 -0.5743
 6189TIP3    H139982   1.129   4.753  12.850  0.8650 -0.6870  0.4213
 6189TIP3    H239983   1.079   4.896  12.864 -0.8678 -1.0504 -1.5724
 6190TIP3   OH239984   1.018   4.011  15.650 -0.3013 -0.3522  0.3036
 6190TIP3    H139985   0.922   4.015  15.650 -0.2826  0.1771 -0.4868
 6190TIP3    H239986   1.044   4.045  15.565  0.6459  0.5767  0.9424
 6191TIP3   OH239987   1.042   3.635  14.877 -0.4594  0.1390 -0.1661
 6191TIP3    H139988   1.074   3.553  14.917  1.7456  0.7737 -0.4586
 6191TIP3    H239989   0.960   3.654  14.922 -0.2712 -1.4695  0.9374
 6192TIP3   OH239990   1.100   1.988   1.781  0.4132  0.1675 -0.0928
 6192TIP3    H139991   1.026   2.003   1.722  0.4095 -1.1629 -0.4588
 6192TIP3    H239992   1.170   1.956   1.724  0.4588 -0.9867  0.5778
 6193TIP3   OH239993   3.502   5.491  16.814 -0.4740  0.4491  0.1855
 6193TIP3    H139994   3.450   5.523  16.889 -1.2604 -0.4182  0.0345
 6193TIP3    H239995   3.496   5.561  16.749 -1.2645  0.4756  0.2730
 6194TIP3   OH239996   3.920   1.304   5.238  0.2630  0.2901 -0.2143
 6194TIP3    H139997   4.000   1.353   5.257 -0.7940  1.9157  0.2753
 6194TIP3    H239998   3.880   1.288   5.323 -1.2252  1.8628 -0.5457
 6195TIP3   OH239999   4.619   1.137  14.404  0.4285 -0.1518  0.0188
 6195TIP3    H140000   4.588   1.056  14.364  1.0336 -0.7153  0.6555
 6195TIP3    H240001   4.561   1.150  14.479  1.8786 -1.4145  1.4386
 6196TIP3   OH240002   5.638   1.525  11.425 -0.2721 -0.4210 -0.2511
 6196TIP3    H140003   5.691   1.553  11.499 -1.3434 -1.3822  0.9223
 6196TIP3    H240004   5.688   1.553  11.348  2.3329 -2.0004  0.7459
 6197TIP3   OH240005   2.280   5.333  14.789  0.2345 -0.3416  0.2651
 6197TIP3    H140006   2.345   5.402  14.792  1.3126 -1.3000 -0.3470
 6197TIP3    H240007   2.284   5.292  14.875  0.4474 -0.4083  0.2230
 6198TIP3   OH240008   4.270   3.399  16.028  0.7390  0.0748 -0.6909
 6198TIP3    H140009   4.255   3.490  16.053 -1.4898 -0.8871  1.8600
 6198TIP3    H240010   4.364   3.396  16.006  0.8525  2.9547 -1.0186
 6199TIP3   OH240011   0.517   0.116  16.138 -0.4068 -0.4718  0.6302
 6199TIP3    H140012   0.533   0.047  16.074  1.1128  0.2363  0.2120
 6199TIP3    H240013   0.518   0.071  16.223  1.3679 -0.8657  0.4227
 6200TIP3   OH240014   2.854   5.964  14.852 -0.6205 -0.6598  0.0132
 6200TIP3    H140015   2.762   5.942  14.847 -0.4926 -1.1988 -0.0138
 6200TIP3    H240016   2.878   5.945  14.943 -0.8612  0.8128  0.4198
 6201TIP3   OH240017   6.139   5.233   4.564 -0.2987  0.3261 -0.2962
 6201TIP3    H140018   6.169   5.225   4.474 -1.7950  0.3675 -0.8364
 6201TIP3    H240019   6.181   5.312   4.597  1.9480 -0.8226 -0.2191
 6202TIP3   OH240020   1.301   1.256  15.360  0.2304 -0.0956 -0.2633
 6202TIP3    H140021   1.335   1.183  15.412  1.5958  0.7713  0.1383
 6202TIP3    H240022   1.362   1.328  15.378 -1.4282  1.3451 -0.1243
 6203TIP3   OH240023   5.299   6.765   3.746  0.2992  0.1330  0.7992
 6203TIP3    H140024   5.222   6.805   3.785 -1.1141  0.0513 -1.6914
 6203TIP3    H240025   5.332   6.706   3.813 -3.6771 -2.2077  1.0028
 6204TIP3   OH240026   3.130   1.429   3.278  0.0454  0.5721 -1.0040
 6204TIP3    H140027   3.085   1.483   3.343 -0.6286 -1.9032  0.7538
 6204TIP3    H240028   3.069   1.424   3.204 -0.9475  0.2592 -0.1807
 6205TIP3   OH240029   3.268   3.945  12.405 -0.0542  0.4063 -0.0206
 6205TIP3    H140030   3.261   4.016  12.469  0.3456  0.3210  0.1186
 6205TIP3    H240031   3.180   3.939  12.367 -0.2352  0.6138  0.3519
 6206TIP3   OH240032   3.612   0.404   0.243  0.3652  0.1908  0.0800
 6206TIP3    H140033   3.619   0.497   0.223  0.5629  0.1420 -0.0740
 6206TIP3    H240034   3.527   0.396   0.287 -0.2549  0.2429 -1.0662
 6207TIP3   OH240035   5.709   0.142   3.034  0.0052  0.0765  0.4661
 6207TIP3    H140036   5.791   0.188   3.019  1.0497 -1.9168 -0.1824
 6207TIP3    H240037   5.674   0.181   3.115  1.1322  1.5301  0.2879
 6208TIP3   OH240038   3.895   5.390   0.039 -0.2519  0.7176  0.2150
 6208TIP3    H140039   3.866   5.362   0.126 -2.0968 -0.0950 -0.6213
 6208TIP3    H240040   3.880   5.314  -0.017  2.1575  0.7529 -0.6211
 6209TIP3   OH240041   6.263   5.865   0.637  0.0183  0.1509  0.4796
 6209TIP3    H140042   6.302   5.930   0.695  0.0067 -0.2034  0.8817
 6209TIP3    H240043   6.334   5.804   0.617 -0.2102 -0.2281  0.8337
 6210TIP3   OH240044   2.498   3.474  11.256 -0.1273  0.3067  0.4181
 6210TIP3    H140045   2.506   3.479  11.161  0.2254 -3.0730  0.1467
 6210TIP3    H240046   2.579   3.431  11.284 -0.5496  0.5796  2.1562
 6211TIP3   OH240047   0.897   0.590   6.558  0.3999  0.3039  0.3087
 6211TIP3    H140048   0.907   0.497   6.575  0.1837 -0.0506 -1.3154
 6211TIP3    H240049   0.939   0.604   6.473 -0.5331  1.4603 -0.0008
 6212TIP3   OH240050   5.751   6.533   1.593  0.4352 -0.7129 -0.4639
 6212TIP3    H140051   5.776   6.461   1.650  0.0836  0.3578  1.1381
 6212TIP3    H240052   5.773   6.504   1.505  0.9642 -2.4600  0.2084
 6213TIP3   OH240053   2.109   5.916  16.381 -0.0885  0.0763 -0.0452
 6213TIP3    H140054   2.125   5.821  16.381 -0.1267  0.0676 -0.4157
 6213TIP3    H240055   2.145   5.946  16.465  1.6804  0.0325 -0.7384
 6214TIP3   OH240056   5.097   1.463  13.596 -0.0155 -0.3670 -0.6104
 6214TIP3    H140057   5.106   1.415  13.513 -1.5703  1.3763 -1.8792
 6214TIP3    H240058   5.019   1.517  13.584  2.1258  3.2619  0.2607
 6215TIP3   OH240059   4.856   4.858  13.449 -0.3280 -0.9488  0.6602
 6215TIP3    H140060   4.838   4.768  13.475 -4.6195 -0.2613  0.9084
 6215TIP3    H240061   4.829   4.910  13.525  1.3446  0.6050  0.2415
 6216TIP3   OH240062   3.780   3.122   0.101  0.4634 -0.1003  0.4992
 6216TIP3    H140063   3.835   3.200   0.110 -0.3144  0.2957  2.2367
 6216TIP3    H240064   3.720   3.126   0.175 -1.3823 -0.9470 -0.8437
 6217TIP3   OH240065   1.466   0.024   6.003  0.5325  0.3796  0.0785
 6217TIP3    H140066   1.466   0.110   5.960  0.9889 -0.8964 -2.7272
 6217TIP3    H240067   1.401  -0.027   5.955  1.6677 -1.4045  0.3312
 6218TIP3   OH240068   5.743   4.970  12.437  0.3812 -0.6053  0.3721
 6218TIP3    H140069   5.660   5.004  12.470 -0.4723 -0.2263 -1.9540
 6218TIP3    H240070   5.777   5.041  12.382  1.6267 -1.2477  0.2753
 6219TIP3   OH240071   4.072   0.434  11.351 -0.1421 -0.7770  0.5916
 6219TIP3    H140072   4.066   0.515  11.402 -1.1595 -0.4969  0.0435
 6219TIP3    H240073   3.983   0.398  11.352  0.3986 -2.1812  1.2738
 6220TIP3   OH240074   2.880   4.256   4.289  0.5012  0.2841 -0.2016
 6220TIP3    H140075   2.928   4.285   4.367  0.5148  0.4353 -0.2648
 6220TIP3    H240076   2.946   4.212   4.235  0.3469 -0.4281  0.1814
 6221TIP3   OH240077   2.310   1.081  14.514 -0.0232  0.8468 -0.1978
 6221TIP3    H140078   2.359   1.130  14.447 -0.0848  1.3007  0.0887
 6221TIP3    H240079   2.364   1.087  14.592  0.8652 -1.0759 -0.6013
 6222TIP3   OH240080   1.866   2.604  16.357 -0.1984 -0.8339  0.7792
 6222TIP3    H140081   1.920   2.589  16.279  0.7338  0.3836  1.1540
 6222TIP3    H240082   1.782   2.635  16.323  0.3171  0.0210  0.2420
 6223TIP3   OH240083   2.527   1.618   4.443  0.2533  0.1049  0.3937
 6223TIP3    H140084   2.523   1.554   4.515 -0.2705 -1.7704 -1.2165
 6223TIP3    H240085   2.613   1.657   4.451  0.6205 -0.8508  1.4114
 6224TIP3   OH240086   0.704   2.378   5.485  0.0069  0.1126 -0.4457
 6224TIP3    H140087   0.635   2.314   5.469  0.0944 -0.5609  1.5788
 6224TIP3    H240088   0.700   2.395   5.579  2.3607  0.3361 -0.3204
 6225TIP3   OH240089   4.184   2.463   2.497 -0.2625  0.0102 -0.1240
 6225TIP3    H140090   4.151   2.538   2.546  1.2707 -0.2943  1.4646
 6225TIP3    H240091   4.120   2.393   2.515 -2.2819  1.0894 -2.4543
 6226TIP3   OH240092   0.431   3.857   3.997 -0.5583  0.1122 -0.8268
 6226TIP3    H140093   0.444   3.845   3.903  0.1342  1.3068 -0.9031
 6226TIP3    H240094   0.491   3.928   4.021 -0.8747 -0.0359  0.4784
 6227TIP3   OH240095   5.129   1.948  16.781  0.3157 -0.0121  0.5177
 6227TIP3    H140096   5.185   1.991  16.846 -1.5449  1.1589  1.4081
 6227TIP3    H240097   5.114   2.014  16.714 -1.1502  0.2010  1.0210
 6228TIP3   OH240098   2.044   3.132  11.374 -0.4361 -0.1316 -0.3537
 6228TIP3    H140099   2.136   3.150  11.354 -0.1278 -2.8802 -1.8994
 6228TIP3    H240100   1.994   3.191  11.318  0.3920  0.3845 -0.5577
 6229TIP3   OH240101   1.332   3.229   1.794 -0.1591  0.6795 -0.5099
 6229TIP3    H140102   1.313   3.142   1.759  0.8131  0.6789 -1.0679
 6229TIP3    H240103   1.334   3.286   1.717  0.2511  1.0025 -0.2648
 6230TIP3   OH240104   0.384   6.559  14.415  0.4393  0.1946  0.6774
 6230TIP3    H140105   0.402   6.652  14.431  0.2835  0.5432 -1.0689
 6230TIP3    H240106   0.425   6.540  14.331 -1.7312 -0.6545 -0.2438
 6231TIP3   OH240107   5.514   0.982   5.779 -0.1318 -0.3675  0.5032
 6231TIP3    H140108   5.452   0.936   5.722 -0.3146 -0.0776  0.4660
 6231TIP3    H240109   5.484   0.964   5.868  0.6795 -1.5699  0.5541
 6232TIP3   OH240110   1.970   6.198   0.907 -0.0966  0.1503 -0.2299
 6232TIP3    H140111   2.021   6.190   0.988 -0.8373  1.3412  0.3784
 6232TIP3    H240112   1.893   6.143   0.922 -1.4541  2.1950  0.9269
 6233TIP3   OH240113   6.308   5.014  10.706 -0.0725  0.1819  0.2414
 6233TIP3    H140114   6.352   4.931  10.725 -0.3799  0.0925  0.5841
 6233TIP3    H240115   6.219   5.002  10.739 -0.2990  0.4312 -0.2685
 6234TIP3   OH240116   5.703   1.265  15.022  0.0861 -0.1981 -0.3947
 6234TIP3    H140117   5.716   1.358  15.040  0.7064  0.1338 -2.2722
 6234TIP3    H240118   5.786   1.224  15.045 -0.3198 -0.3684  0.8086
 6235TIP3   OH240119   2.434   6.710   4.686  0.6014 -0.0668 -0.1497
 6235TIP3    H140120   2.529   6.702   4.688  0.5582 -1.6398 -1.9281
 6235TIP3    H240121   2.418   6.802   4.706  2.2966 -0.2878  2.8331
 6236TIP3   OH240122   6.051   2.596  13.877  0.2864 -0.0657 -0.0231
 6236TIP3    H140123   6.077   2.514  13.835  0.8171 -1.5087  2.9078
 6236TIP3    H240124   5.955   2.591  13.882  0.3719 -1.0135  1.0193
 6237TIP3   OH240125   3.294   0.134  10.725  0.2103  0.2187  0.6654
 6237TIP3    H140126   3.296   0.227  10.749  0.6999  0.4896 -0.3642
 6237TIP3    H240127   3.261   0.134  10.635  1.2485 -0.5206  0.2735
 6238TIP3   OH240128   5.450   4.900  12.722 -0.0480 -0.1490 -0.4521
 6238TIP3    H140129   5.368   4.854  12.738  0.3909 -0.8418 -0.1349
 6238TIP3    H240130   5.505   4.877  12.797  0.2281  0.7982 -0.3514
 6239TIP3   OH240131   2.525   4.184  13.691  0.1006  0.1402  0.0310
 6239TIP3    H140132   2.445   4.134  13.705 -0.1929  0.6950  0.3677
 6239TIP3    H240133   2.501   4.274  13.713  0.5470  0.4776 -0.8204
 6240TIP3   OH240134   6.614   6.293  11.911 -0.0279  0.4187 -0.4630
 6240TIP3    H140135   6.690   6.271  11.857 -0.2111  0.0031 -0.5518
 6240TIP3    H240136   6.552   6.223  11.895  0.2996 -0.2559  1.0691
 6241TIP3   OH240137   5.447   2.681   4.226  0.0664  0.3708  0.2218
 6241TIP3    H140138   5.420   2.590   4.213 -0.8646  0.8417 -1.4209
 6241TIP3    H240139   5.542   2.678   4.233 -0.0105 -0.8011  1.0885
 6242TIP3   OH240140   4.153   3.500  15.059  0.0815  0.0736  0.0006
 6242TIP3    H140141   4.234   3.449  15.054 -1.7498 -3.0366 -0.3766
 6242TIP3    H240142   4.114   3.491  14.972 -1.8639 -0.7066  0.8992
 6243TIP3   OH240143   1.945   3.677  12.008 -0.6734 -0.0143 -0.1865
 6243TIP3    H140144   1.995   3.611  11.960 -0.5743 -0.2723  0.2627
 6243TIP3    H240145   1.928   3.637  12.093 -1.2133  0.2731 -0.1563
 6244TIP3   OH240146   0.265   5.725   2.468 -0.5367  0.2981  0.0425
 6244TIP3    H140147   0.355   5.753   2.484 -0.8133  0.4737  1.4831
 6244TIP3    H240148   0.235   5.692   2.553 -1.6437 -0.3015 -0.5566
 6245TIP3   OH240149   2.051   5.780   5.917 -0.1730 -0.5377  0.7731
 6245TIP3    H140150   1.989   5.849   5.893  1.1799  0.4811  0.0096
 6245TIP3    H240151   2.110   5.822   5.980 -1.6033 -2.1721  3.3193
 6246TIP3   OH240152   2.328   6.673   4.989 -0.0410 -0.5518 -0.0663
 6246TIP3    H140153   2.352   6.646   4.900  0.0782 -0.5811 -0.0249
 6246TIP3    H240154   2.234   6.652   4.995 -0.5543  1.3425 -0.8864
 6247TIP3   OH240155   0.731   1.444   4.661 -0.1187 -0.0697  0.5646
 6247TIP3    H140156   0.722   1.395   4.579 -0.7488  0.1851  0.4814
 6247TIP3    H240157   0.649   1.428   4.707  0.1549 -0.0483  1.0619
 6248TIP3   OH240158   6.561   5.841  16.449 -0.0458  0.5323  0.2661
 6248TIP3    H140159   6.646   5.881  16.428  0.8293 -0.9220  0.9180
 6248TIP3    H240160   6.541   5.873  16.537  0.3970 -0.0116  0.5733
 6249TIP3   OH240161   6.044   3.696   4.962  0.3070 -1.3180 -0.2865
 6249TIP3    H140162   6.064   3.690   5.056 -0.2589  0.5884 -0.0063
 6249TIP3    H240163   6.123   3.735   4.923 -0.5016  0.5974 -0.1116
 6250TIP3   OH240164   2.434   3.882   4.964 -0.7022  0.1607 -0.2358
 6250TIP3    H140165   2.466   3.944   4.898  0.1229  1.1300  1.0329
 6250TIP3    H240166   2.362   3.928   5.008 -1.9799 -0.8975 -1.1348
 6251TIP3   OH240167   1.274   4.470   5.637  0.4049  0.3330 -0.1102
 6251TIP3    H140168   1.235   4.555   5.619 -0.3128 -0.2214 -1.2600
 6251TIP3    H240169   1.202   4.415   5.668  0.5025 -0.3195 -0.9775
 6252TIP3   OH240170   3.894   0.648  11.814 -0.6237 -0.3259 -0.1261
 6252TIP3    H140171   3.883   0.730  11.765 -1.6082 -0.7054 -0.5526
 6252TIP3    H240172   3.843   0.662  11.894 -1.7970 -0.9587 -0.7421
 6253TIP3   OH240173   1.363   1.005  16.715  0.0126  0.0404 -0.1695
 6253TIP3    H140174   1.349   0.959  16.633 -0.3353 -1.0286  0.4659
 6253TIP3    H240175   1.276   1.008  16.756 -0.0333  1.5529 -0.3289
 6254TIP3   OH240176   2.250   2.399  11.853 -0.2901  0.1158 -0.5389
 6254TIP3    H140177   2.208   2.335  11.796 -0.3834 -1.3081  1.0429
 6254TIP3    H240178   2.343   2.394  11.830 -0.2288 -0.9541 -0.1437
 6255TIP3   OH240179   4.423   2.284   5.362  0.2785 -0.0817 -0.3249
 6255TIP3    H140180   4.389   2.262   5.449  0.9897 -1.5602 -0.3735
 6255TIP3    H240181   4.368   2.355   5.331 -0.0736  0.3859  1.2839
 6256TIP3   OH240182   0.325   3.137  15.592 -0.0611  0.2168  0.2010
 6256TIP3    H140183   0.331   3.042  15.603 -0.0670  0.3465  1.5377
 6256TIP3    H240184   0.416   3.167  15.599 -0.0738  0.3179 -0.0824
 6257TIP3   OH240185   4.768   0.810  16.570  0.0049  0.0678  0.1217
 6257TIP3    H140186   4.767   0.884  16.509 -0.7865 -0.7048 -0.8377
 6257TIP3    H240187   4.776   0.733  16.514  1.4643 -0.5711  1.1416
 6258TIP3   OH240188   6.278   5.619  14.968 -0.6892  0.0207 -0.7383
 6258TIP3    H140189   6.207   5.575  15.014  0.3062 -1.1886 -0.2942
 6258TIP3    H240190   6.358   5.591  15.013 -0.0209  4.1703  1.1463
 6259TIP3   OH240191   2.986   6.532   0.240 -0.1991 -0.3586 -0.0118
 6259TIP3    H140192   2.943   6.603   0.191 -1.6459  1.3615  3.4078
 6259TIP3    H240193   2.974   6.455   0.185 -1.1982  1.4545 -2.5689
 6260TIP3   OH240194   0.650   3.958   4.906 -0.2442 -0.1827 -0.1204
 6260TIP3    H140195   0.580   4.004   4.954  1.7392 -0.1442  3.0638
 6260TIP3    H240196   0.633   3.866   4.922 -0.3285 -0.2407 -0.5395
 6261TIP3   OH240197   4.109   4.416  15.169  0.4554  0.2346 -0.4687
 6261TIP3    H140198   4.205   4.415  15.161  0.3664  0.0320 -1.9801
 6261TIP3    H240199   4.081   4.340  15.117 -0.6069  1.6637 -2.1135
 6262TIP3   OH240200   4.325   1.588  16.658  1.0036 -0.6050 -0.2814
 6262TIP3    H140201   4.326   1.628  16.571 -0.9069  2.3358  0.9086
 6262TIP3    H240202   4.304   1.496  16.642  0.5488 -0.1213 -2.9056
 6263TIP3   OH240203   0.528   2.211  13.222  0.0402 -0.2027 -0.2242
 6263TIP3    H140204   0.601   2.150  13.209  0.3533  0.4003 -1.4550
 6263TIP3    H240205   0.542   2.280  13.157  0.2006  1.6824  1.6858
 6264TIP3   OH240206   3.529   5.233   0.679  0.2006 -0.3925  0.2633
 6264TIP3    H140207   3.591   5.287   0.728 -0.1770 -0.0487  0.3662
 6264TIP3    H240208   3.476   5.190   0.746 -0.7267  0.5589  0.1628
 6265TIP3   OH240209   2.676   1.993  10.951 -0.2644 -0.5993  0.3185
 6265TIP3    H140210   2.665   1.919  11.010 -0.1641 -0.3821  0.6091
 6265TIP3    H240211   2.743   2.047  10.992 -0.7360 -0.0568  0.4006
 6266TIP3   OH240212   2.088   5.841  12.387  0.2836  0.3367  0.6508
 6266TIP3    H140213   2.124   5.778  12.449  0.2855 -0.6149 -0.2847
 6266TIP3    H240214   2.164   5.880  12.344  0.2614  0.4702  0.7300
 6267TIP3   OH240215   1.740   6.149   2.073 -0.2517  0.3320 -0.6642
 6267TIP3    H140216   1.653   6.186   2.062 -1.0524 -1.4664 -0.6968
 6267TIP3    H240217   1.768   6.180   2.160 -0.5129  1.6453 -1.0207
 6268TIP3   OH240218   5.977   0.852  11.067 -0.3329 -0.1436  0.1901
 6268TIP3    H140219   5.919   0.783  11.036 -2.4111  2.2294 -1.6790
 6268TIP3    H240220   6.038   0.808  11.126 -1.9416 -3.3853 -0.3471
 6269TIP3   OH240221   4.114   1.200  13.373  0.0250  0.6780  0.0773
 6269TIP3    H140222   4.182   1.157  13.424  0.5964  1.0941 -0.3251
 6269TIP3    H240223   4.038   1.142  13.380  0.4535  0.1564  0.4338
 6270TIP3   OH240224   0.655   1.886  16.674  0.2176 -0.3175 -0.1952
 6270TIP3    H140225   0.592   1.814  16.683 -1.7520  1.2217 -1.0720
 6270TIP3    H240226   0.611   1.962  16.712  1.6517  0.7776 -0.6180
 6271TIP3   OH240227   2.385   2.381  16.411  0.2575  0.8984  0.4380
 6271TIP3    H140228   2.440   2.458  16.419 -0.6376  1.3102  3.7593
 6271TIP3    H240229   2.434   2.311  16.455  0.4053 -0.1359 -1.2504
 6272TIP3   OH240230   0.189   2.065  11.745 -0.5498  0.0740  0.1405
 6272TIP3    H140231   0.245   2.114  11.684 -1.7266  0.4269 -0.7121
 6272TIP3    H240232   0.205   2.105  11.830 -0.0895  0.6858 -0.2244
 6273TIP3   OH240233   0.311   3.703   2.284  0.5080  0.1570  0.3396
 6273TIP3    H140234   0.364   3.673   2.358  0.5220 -2.4867 -0.6346
 6273TIP3    H240235   0.278   3.788   2.311  1.0724 -0.4056  3.0978
 6274TIP3   OH240236   4.815   2.040   2.715 -0.0631  0.1073  1.0639
 6274TIP3    H140237   4.897   2.035   2.764  0.4164 -1.2266  0.1667
 6274TIP3    H240238   4.749   2.005   2.774  0.3156 -0.4368  1.1696
 6275TIP3   OH240239   0.806   3.509   0.627  0.6779  0.3618 -0.3744
 6275TIP3    H140240   0.754   3.486   0.549  1.3611 -1.3734 -0.3602
 6275TIP3    H240241   0.808   3.604   0.627  1.1639  0.4221 -2.8549
 6276TIP3   OH240242   3.552   5.854   1.901  0.7925 -0.3260 -0.1654
 6276TIP3    H140243   3.483   5.792   1.926 -0.4656  0.9993 -0.2447
 6276TIP3    H240244   3.626   5.798   1.876 -0.2930 -1.7980 -0.2264
 6277TIP3   OH240245   4.340   3.663  15.292 -0.0230  0.7212  0.0889
 6277TIP3    H140246   4.397   3.724  15.245 -1.6367  1.7874 -0.5765
 6277TIP3    H240247   4.285   3.625  15.224 -1.0477  0.7691  0.8734
 6278TIP3   OH240248   3.873   2.899  14.983 -0.7142  0.4947  0.4658
 6278TIP3    H140249   3.915   2.905  15.069 -0.9450 -0.5072  0.6653
 6278TIP3    H240250   3.835   2.985  14.968 -0.1699  0.8583  1.1018
 6279TIP3   OH240251   2.873   2.551   2.953  0.3674  0.3677 -0.0433
 6279TIP3    H140252   2.820   2.571   3.030  1.0074  0.0878  0.4877
 6279TIP3    H240253   2.948   2.610   2.959  0.9332 -0.3423  0.1094
 6280TIP3   OH240254   3.704   3.406  14.047  0.3145  0.3870 -0.3045
 6280TIP3    H140255   3.656   3.403  14.130 -0.1079  0.4483 -0.5419
 6280TIP3    H240256   3.776   3.344  14.059  0.2718  0.4133  0.1159
 6281TIP3   OH240257   3.056   4.920   5.393 -0.2686 -0.3158 -0.0912
 6281TIP3    H140258   2.984   4.869   5.356 -0.3534 -0.1375 -0.1706
 6281TIP3    H240259   3.085   4.868   5.468 -0.0049 -0.7463 -0.4855
 6282TIP3   OH240260   0.422   5.493   2.705  0.0490 -0.2876  0.6244
 6282TIP3    H140261   0.505   5.511   2.748 -0.6318  0.7466  1.5904
 6282TIP3    H240262   0.373   5.576   2.712 -1.0669 -0.8706  0.1055
 6283TIP3   OH240263   3.977   5.919   2.443 -0.1800  0.2737 -0.1428
 6283TIP3    H140264   3.981   5.987   2.376  0.3544 -0.1857 -0.5785
 6283TIP3    H240265   3.972   5.837   2.395  3.0053 -0.3043  0.2512
 6284TIP3   OH240266   6.716   3.120  13.022 -0.0094  0.0291  0.2008
 6284TIP3    H140267   6.692   3.081  13.106 -1.0752  0.4990  0.1320
 6284TIP3    H240268   6.801   3.161  13.038 -0.1202 -0.0384  0.9986
 6285TIP3   OH240269   1.455   0.701   3.585  0.6642 -0.0218 -0.9352
 6285TIP3    H140270   1.459   0.610   3.613 -1.2878 -0.0916 -0.7325
 6285TIP3    H240271   1.407   0.745   3.655 -1.2534  0.4930 -2.4810
 6286TIP3   OH240272   0.301   4.242  11.703 -0.2113 -0.0633  0.1056
 6286TIP3    H140273   0.274   4.204  11.619 -0.0589 -2.4847  1.0878
 6286TIP3    H240274   0.335   4.329  11.679  0.9750 -1.1179 -2.5118
 6287TIP3   OH240275   5.900   5.154  12.708  0.2790  0.1454  0.1915
 6287TIP3    H140276   5.928   5.062  12.705 -4.1648 -1.5055  1.3504
 6287TIP3    H240277   5.868   5.171  12.619  0.0311  0.1167  0.2723
 6288TIP3   OH240278   3.031   2.601  11.777 -0.4312  1.2384  1.2595
 6288TIP3    H140279   2.963   2.534  11.788 -0.0588  0.8071  0.9457
 6288TIP3    H240280   3.062   2.589  11.688  0.1837  1.3219  1.4630
 6289TIP3   OH240281   0.753   6.329  13.244  0.0918 -0.2460  0.5730
 6289TIP3    H140282   0.799   6.324  13.160  0.0417 -0.3044  0.5485
 6289TIP3    H240283   0.766   6.244  13.284  0.6915  0.0095  0.9314
 6290TIP3   OH240284   5.004   6.274   4.238 -0.1982  0.7003  0.3946
 6290TIP3    H140285   4.937   6.294   4.173 -0.7623 -2.4702 -0.1549
 6290TIP3    H240286   4.995   6.343   4.304 -2.1343  1.8892 -1.0184
 6291TIP3   OH240287   1.014   2.048   0.991 -0.0213 -0.3308 -0.2865
 6291TIP3    H140288   0.945   2.098   0.946 -1.3759  0.4388  2.4590
 6291TIP3    H240289   0.991   1.956   0.974 -0.8486 -0.0689 -0.6427
 6292TIP3   OH240290   1.162   5.488  15.390  0.1463  0.1562 -0.3938
 6292TIP3    H140291   1.091   5.550  15.410 -0.6619 -0.5683 -0.9308
 6292TIP3    H240292   1.190   5.512  15.302  0.9692  0.7954  0.0265
 6293TIP3   OH240293   4.924   4.920  14.829  0.3730 -0.2220 -0.1470
 6293TIP3    H140294   4.865   4.848  14.850 -0.4619  0.6511  0.5892
 6293TIP3    H240295   4.897   4.949  14.742  0.0903 -0.1786 -0.0435
 6294TIP3   OH240296   0.517   0.616   4.039 -0.0827 -0.0145 -0.6231
 6294TIP3    H140297   0.464   0.575   3.971 -0.6116 -0.6814  0.1655
 6294TIP3    H240298   0.604   0.579   4.029 -0.3173 -0.5904 -0.5427
 6295TIP3   OH240299   3.632   1.091  15.193  0.1729  0.2820  0.0995
 6295TIP3    H140300   3.570   1.018  15.184 -0.2426  0.3777  1.8152
 6295TIP3    H240301   3.589   1.151  15.253  1.2525  1.1470  0.0354
 6296TIP3   OH240302   2.049   0.274  14.626 -0.5565 -0.1213 -0.8326
 6296TIP3    H140303   2.034   0.233  14.541  2.5384 -3.1570 -0.1390
 6296TIP3    H240304   2.144   0.274  14.636 -0.6564  2.9386  1.4102
 6297TIP3   OH240305   6.133   6.265  11.179 -0.3670 -0.0778  0.6907
 6297TIP3    H140306   6.124   6.266  11.084  2.6272 -0.8249  0.3149
 6297TIP3    H240307   6.098   6.180  11.205  0.2079 -0.5178  0.0610
 6298TIP3   OH240308   3.121   6.761   1.791  0.6306 -0.3654 -0.2161
 6298TIP3    H140309   3.069   6.722   1.721 -0.8049  0.4537  0.3488
 6298TIP3    H240310   3.211   6.734   1.772  0.1279 -1.0997 -1.7167
 6299TIP3   OH240311   1.151   4.598   1.594 -0.0583 -0.0448  0.3212
 6299TIP3    H140312   1.096   4.609   1.517  0.1345  2.1006  0.4276
 6299TIP3    H240313   1.159   4.686   1.631  0.5206 -0.8854  2.3397
 6300TIP3   OH240314   4.099   6.018   1.398  0.8271 -0.1146 -0.0930
 6300TIP3    H140315   4.137   6.104   1.416 -1.2503  0.8855 -0.3084
 6300TIP3    H240316   4.122   5.966   1.476  0.2183  1.3005  1.0840
 6301TIP3   OH240317   5.901   6.442  12.905  0.8967  0.0288 -0.3725
 6301TIP3    H140318   5.833   6.503  12.875  0.4196 -0.5718 -0.5249
 6301TIP3    H240319   5.887   6.363  12.852  0.9786 -0.5123  0.4079
 6302TIP3   OH240320   6.572   0.409  14.978 -0.0661  0.4425 -0.1216
 6302TIP3    H140321   6.532   0.400  14.892 -0.9075  2.4192 -0.0039
 6302TIP3    H240322   6.666   0.407  14.962 -0.2165 -0.0746 -0.9645
 6303TIP3   OH240323   2.676   2.772   2.906 -0.5979  0.2394 -0.3532
 6303TIP3    H140324   2.738   2.719   2.856 -1.0588 -0.2180 -0.4510
 6303TIP3    H240325   2.722   2.855   2.921 -0.2493  0.1928 -1.0856
 6304TIP3   OH240326   2.719   2.994   2.594 -0.4377  0.2666  0.3705
 6304TIP3    H140327   2.696   3.085   2.576 -2.0591 -0.0235  0.8719
 6304TIP3    H240328   2.810   2.998   2.623 -0.5804  1.7586  0.6663
 6305TIP3   OH240329   1.485   0.547  12.810 -0.3511 -0.5371  0.1234
 6305TIP3    H140330   1.533   0.495  12.746 -0.6990  0.6726 -1.1991
 6305TIP3    H240331   1.395   0.513  12.806 -0.7128  0.4778 -1.1690
 6306TIP3   OH240332   6.011   1.807   0.004 -0.2368  0.4433 -0.1268
 6306TIP3    H140333   5.996   1.721   0.044  1.0252 -0.1667 -0.8728
 6306TIP3    H240334   6.073   1.789  -0.068 -1.1171  1.7434 -1.2645
 6307TIP3   OH240335   3.263   4.903  15.947  0.8980  0.5822  0.4996
 6307TIP3    H140336   3.313   4.827  15.976 -1.4893 -1.2144  0.2270
 6307TIP3    H240337   3.277   4.906  15.852  0.6367  0.1773  0.4452
 6308TIP3   OH240338   1.370   3.184  16.306 -0.0066  0.6259  0.6618
 6308TIP3    H140339   1.339   3.095  16.286 -0.6999  0.9701  0.2034
 6308TIP3    H240340   1.421   3.209  16.229  0.4287  0.5187  0.9147
 6309TIP3   OH240341   5.179   4.753  12.402  0.2231 -0.4373  0.0924
 6309TIP3    H140342   5.267   4.779  12.427 -0.4280  2.7765 -0.4993
 6309TIP3    H240343   5.172   4.778  12.310 -1.7895  0.9193  0.5639
 6310TIP3   OH240344   3.859   1.161  14.555 -0.2081  0.2226 -0.6640
 6310TIP3    H140345   3.928   1.129  14.612  1.5257  2.9069 -1.0951
 6310TIP3    H240346   3.865   1.107  14.477 -1.1160 -1.9877  0.7035
 6311TIP3   OH240347   1.601   4.840   3.958 -0.2162  0.0625 -0.1084
 6311TIP3    H140348   1.654   4.785   4.016  0.5451  0.0141 -0.8329
 6311TIP3    H240349   1.611   4.801   3.872 -0.7162  0.5825 -0.4099
 6312TIP3   OH240350   0.517   5.738  11.555 -0.4200 -0.0397 -0.5312
 6312TIP3    H140351   0.583   5.773  11.495 -1.0868  1.7742 -0.2631
 6312TIP3    H240352   0.556   5.749  11.642 -0.0588 -1.3195 -0.5090
 6313TIP3   OH240353   3.450   4.455   6.193 -0.2997 -0.0345 -0.7200
 6313TIP3    H140354   3.477   4.399   6.266 -1.3709 -2.0463 -1.7526
 6313TIP3    H240355   3.483   4.542   6.215 -0.9331 -0.4565  2.3340
 6314TIP3   OH240356   2.941   5.443  10.592  0.7273 -0.6783  0.0352
 6314TIP3    H140357   2.999   5.380  10.634 -0.1670 -0.6094  1.4517
 6314TIP3    H240358   2.997   5.520  10.576  1.5584 -1.4205 -0.7450
 6315TIP3   OH240359   1.108   4.796   5.553 -0.3831  0.1432  0.2784
 6315TIP3    H140360   1.051   4.757   5.620  0.0580  1.0920  1.2328
 6315TIP3    H240361   1.078   4.757   5.471  0.4524 -2.7693  1.2035
 6316TIP3   OH240362   0.302   6.340   3.592 -0.4345  0.1732  0.5226
 6316TIP3    H140363   0.255   6.420   3.569 -0.8379 -0.2713 -0.2607
 6316TIP3    H240364   0.340   6.310   3.509  0.7373  0.1921  1.0266
 6317TIP3   OH240365   0.366   4.932  14.463  0.1735 -0.8044 -0.8661
 6317TIP3    H140366   0.293   4.879  14.497  0.1856 -0.1297  0.2745
 6317TIP3    H240367   0.326   4.989  14.398 -0.1720 -1.0050 -0.8335
 6318TIP3   OH240368   1.398   6.446  13.366  0.1807  0.3790 -0.1214
 6318TIP3    H140369   1.375   6.529  13.325  1.0093  0.9772  0.5901
 6318TIP3    H240370   1.322   6.424  13.420 -0.1981  0.4678 -0.6059
 6319TIP3   OH240371   3.307   3.480   4.297 -0.1830  0.1010  0.1710
 6319TIP3    H140372   3.237   3.436   4.346  0.1217 -0.1834  0.3554
 6319TIP3    H240373   3.368   3.410   4.275 -1.1937 -0.1301 -2.1975
 6320TIP3   OH240374   6.491   5.976  13.489  0.3700 -0.5294 -0.3697
 6320TIP3    H140375   6.430   5.956  13.419  0.2358 -0.7624 -0.1889
 6320TIP3    H240376   6.570   5.926  13.468 -0.6967 -3.0719  1.2113
 6321TIP3   OH240377   0.115   1.779  16.345  0.4385 -0.1214  0.3954
 6321TIP3    H140378   0.058   1.712  16.308 -0.2475 -0.1186  1.4279
 6321TIP3    H240379   0.111   1.766  16.439  1.2989  0.5721  0.5468
 6322TIP3   OH240380   4.991   2.723   3.793  0.0607  0.2608  0.1590
 6322TIP3    H140381   5.054   2.672   3.845 -0.2879 -1.1847 -0.7849
 6322TIP3    H240382   4.932   2.657   3.757 -2.3238  1.6101  1.3959
 6323TIP3   OH240383   0.104   5.977  10.957 -0.3762 -0.3007  0.1693
 6323TIP3    H140384   0.174   5.991  11.021  1.7648 -0.8008 -1.9198
 6323TIP3    H240385   0.103   5.882  10.942 -0.7513 -0.1878 -0.6122
 6324TIP3   OH240386   0.812   0.502  12.590 -0.1893  0.3480  0.3091
 6324TIP3    H140387   0.839   0.578  12.538 -0.8872  0.9196  0.7712
 6324TIP3    H240388   0.874   0.499  12.663  3.6439 -2.9818 -2.6043
 6325TIP3   OH240389   0.290   2.337  13.837 -0.1860  0.2850  0.0188
 6325TIP3    H140390   0.344   2.327  13.759 -0.3853 -1.4477  0.0562
 6325TIP3    H240391   0.214   2.387  13.808  1.1564  2.3733 -0.1351
 6326TIP3   OH240392   0.154   2.879  17.051 -0.1642  0.6975 -0.2595
 6326TIP3    H140393   0.143   2.918  17.137  0.7532  1.4888 -0.4871
 6326TIP3    H240394   0.083   2.815  17.044 -0.4970  0.9296  0.9045
 6327TIP3   OH240395   4.701   4.902  11.746 -0.5336  0.1896 -0.2231
 6327TIP3    H140396   4.736   4.977  11.794  0.0130 -0.2596  0.0899
 6327TIP3    H240397   4.767   4.882  11.680  0.0664 -0.9906  0.7109
 6328TIP3   OH240398   1.753   2.916  16.505 -0.9727  0.0612  0.4894
 6328TIP3    H140399   1.725   2.842  16.559  1.5137 -1.1382  0.2839
 6328TIP3    H240400   1.845   2.930  16.530 -0.5981  1.3491 -1.4159
 6329TIP3   OH240401   2.937   3.974  16.259 -0.4315  0.5008 -0.0967
 6329TIP3    H140402   2.991   3.991  16.336  0.4842  1.6138 -0.9525
 6329TIP3    H240403   2.895   4.058  16.240 -2.0211 -0.1847  0.1809
 6330TIP3   OH240404   3.743   3.542   2.090  0.6015 -0.4106  0.1673
 6330TIP3    H140405   3.803   3.483   2.044 -0.0697 -0.0252 -1.2574
 6330TIP3    H240406   3.797   3.587   2.155  1.4906 -1.2525  0.0202
 6331TIP3   OH240407   0.799   3.822  15.339  0.1078  0.1523  0.4637
 6331TIP3    H140408   0.868   3.797  15.401 -0.1964 -1.6543  0.1257
 6331TIP3    H240409   0.751   3.741  15.323 -2.2005  1.3837  0.7855
 6332TIP3   OH240410   6.144   1.889   4.595  0.6277  0.0198 -0.0414
 6332TIP3    H140411   6.145   1.961   4.533  0.7226 -0.7736 -0.9856
 6332TIP3    H240412   6.200   1.917   4.667  2.2489  0.1107 -1.3056
 6333TIP3   OH240413   0.482   4.012   0.427  0.2550  0.1520 -0.2013
 6333TIP3    H140414   0.412   4.077   0.432 -0.6940 -0.9294  1.8986
 6333TIP3    H240415   0.444   3.941   0.375  0.1462 -0.0215  0.1135
 6334TIP3   OH240416   4.539   4.147  17.242 -0.0911  0.0075 -0.0682
 6334TIP3    H140417   4.466   4.127  17.183  1.7478 -1.7959 -1.9154
 6334TIP3    H240418   4.577   4.062  17.262  0.0084  0.6668  2.9982
 6335TIP3   OH240419   1.469   0.619  15.658  0.2847 -0.5825  0.4560
 6335TIP3    H140420   1.479   0.538  15.708 -0.2722 -0.0969  1.3968
 6335TIP3    H240421   1.385   0.608  15.612 -0.9975  0.3346  2.4030
 6336TIP3   OH240422   5.706   6.639  15.426 -0.5049  0.1132  0.1278
 6336TIP3    H140423   5.617   6.606  15.442 -0.5869 -0.9829 -2.1416
 6336TIP3    H240424   5.694   6.731  15.403 -0.7289  0.7004  2.4161
 6337TIP3   OH240425   0.022   0.336  12.440 -0.5452 -0.1290 -0.2237
 6337TIP3    H140426  -0.038   0.334  12.365 -1.6466 -1.5715  0.6438
 6337TIP3    H240427  -0.015   0.402  12.498 -0.4668  0.0127 -0.3347
 6338TIP3   OH240428   1.534   3.650   3.723 -0.3585  0.3857  0.1353
 6338TIP3    H140429   1.460   3.590   3.712 -2.1716  2.3550  0.8247
 6338TIP3    H240430   1.541   3.662   3.818 -1.0155  2.3294 -0.0145
 6339TIP3   OH240431   4.545   2.617  11.390  0.5947 -0.0060 -0.0688
 6339TIP3    H140432   4.563   2.660  11.473  0.9951 -0.5846  0.1509
 6339TIP3    H240433   4.503   2.534  11.414  2.5627 -1.1369 -0.3072
 6340TIP3   OH240434   2.692   5.361   4.213 -0.3250  0.3052  0.3808
 6340TIP3    H140435   2.703   5.397   4.124  1.0657  1.4723  0.9874
 6340TIP3    H240436   2.749   5.284   4.215 -0.5326  0.1457  0.1937
 6341TIP3   OH240437   6.121   0.366  14.224  0.3917 -0.1578 -0.6520
 6341TIP3    H140438   6.163   0.299  14.278 -0.1129 -0.2253 -0.3379
 6341TIP3    H240439   6.180   0.377  14.149  0.9557 -0.2622 -0.2251
 6342TIP3   OH240440   5.635   1.344  17.040  0.2445 -0.0158  0.0145
 6342TIP3    H140441   5.642   1.288  17.117  1.7823 -0.1407 -0.1705
 6342TIP3    H240442   5.542   1.343  17.017  0.2050 -2.6586 -0.0978
 6343TIP3   OH240443   3.270   1.783  17.280 -0.0939  0.3331  0.3374
 6343TIP3    H140444   3.321   1.863  17.291  0.3941 -0.0008  0.5400
 6343TIP3    H240445   3.219   1.797  17.200  0.1000  0.7809  0.2936
 6344TIP3   OH240446   6.562   2.360  16.093  0.0015 -0.1224 -0.1404
 6344TIP3    H140447   6.490   2.366  16.030  0.2935  0.7621 -0.4037
 6344TIP3    H240448   6.520   2.332  16.174 -0.1630 -2.9130 -1.0720
 6345TIP3   OH240449   1.212   5.290  12.540  0.5262  0.2854  0.0661
 6345TIP3    H140450   1.177   5.368  12.497 -0.0684  1.9274  3.2542
 6345TIP3    H240451   1.303   5.311  12.560  0.8496 -0.5274 -0.4807
 6346TIP3   OH240452   0.357   6.758  16.598  0.2607  0.2508  0.1447
 6346TIP3    H140453   0.410   6.810  16.658 -0.8397  1.7998 -0.1714
 6346TIP3    H240454   0.267   6.786  16.615 -0.4128 -1.7013  0.0790
 6347TIP3   OH240455   4.504   2.880  16.842  0.0698 -0.2363  0.3530
 6347TIP3    H140456   4.585   2.924  16.868  1.0652 -1.9641  0.3180
 6347TIP3    H240457   4.436   2.923  16.893  0.6463  2.6442 -1.1094
 6348TIP3   OH240458   6.309   1.439   3.983  0.3905  0.1212  0.6075
 6348TIP3    H140459   6.362   1.393   4.048  0.8362  0.1835  0.2918
 6348TIP3    H240460   6.310   1.381   3.907 -1.0103 -0.4575  1.0006
 6349TIP3   OH240461   5.972   6.687  10.375  0.7135 -0.3060  0.6103
 6349TIP3    H140462   6.043   6.682  10.439  0.1086  0.6454  1.3832
 6349TIP3    H240463   5.994   6.762  10.320 -1.1333  1.9894  2.7511
 6350TIP3   OH240464   3.952   6.173   0.472 -0.0583 -0.1351 -0.6225
 6350TIP3    H140465   3.938   6.165   0.378  0.6540  1.2393 -0.8745
 6350TIP3    H240466   3.980   6.264   0.484 -1.7475  0.2187  1.1264
 6351TIP3   OH240467   4.619   4.734   0.210 -0.1747 -0.1719 -0.3966
 6351TIP3    H140468   4.600   4.752   0.302  1.0283  2.5598 -0.5964
 6351TIP3    H240469   4.706   4.694   0.210  0.6135  1.4537 -0.3850
 6352TIP3   OH240470   5.986   6.535  16.924 -0.8293 -0.4175 -0.2238
 6352TIP3    H140471   6.007   6.624  16.897  0.2924 -0.4732  0.4120
 6352TIP3    H240472   5.896   6.540  16.956 -0.5229  0.6442  0.5057
 6353TIP3   OH240473   2.681   2.823   6.525  0.4740 -0.0265 -0.3794
 6353TIP3    H140474   2.726   2.872   6.594  0.2031 -0.2415 -0.0477
 6353TIP3    H240475   2.751   2.777   6.480  0.7291  0.6323 -0.6717
 6354TIP3   OH240476   2.732   2.885  11.710  0.5527  0.2263 -0.1161
 6354TIP3    H140477   2.776   2.807  11.678  0.6145  0.3139 -0.2406
 6354TIP3    H240478   2.768   2.898  11.798 -1.0737 -1.1957  0.8340
 6355TIP3   OH240479   6.488   0.371   5.756  0.1134  0.4066  0.2467
 6355TIP3    H140480   6.418   0.309   5.777 -0.4692  0.8463 -0.3357
 6355TIP3    H240481   6.562   0.343   5.810  0.2633 -1.5267 -0.8457
 6356TIP3   OH240482   3.536   1.069  16.888 -0.0144 -0.0627  0.1917
 6356TIP3    H140483   3.621   1.103  16.862  0.5532 -1.5351  0.0306
 6356TIP3    H240484   3.479   1.089  16.813  0.7798 -1.1921 -0.7425
 6357TIP3   OH240485   6.105   5.100  17.095  0.0135  0.3060 -0.3161
 6357TIP3    H140486   6.102   5.004  17.100  1.8329  0.2488  0.6855
 6357TIP3    H240487   6.176   5.124  17.154 -1.7439  2.4242  1.0882
 6358TIP3   OH240488   5.211   5.052   3.569  0.5129  0.7551 -0.1188
 6358TIP3    H140489   5.269   5.015   3.636 -0.2467  0.6536  0.4995
 6358TIP3    H240490   5.192   4.979   3.510 -0.4381  0.3119  0.7130
 6359TIP3   OH240491   0.665   1.743   4.542 -0.4755  0.1482  0.2174
 6359TIP3    H140492   0.691   1.790   4.463  2.5546  2.0440  2.1644
 6359TIP3    H240493   0.707   1.658   4.534  0.6337  0.6860  0.1979
 6360TIP3   OH240494   3.031   0.612   0.346 -0.0241 -0.2794 -0.3070
 6360TIP3    H140495   3.065   0.670   0.278 -2.0673  0.2380 -0.9618
 6360TIP3    H240496   2.952   0.656   0.378  0.2866 -1.0518  1.6400
 6361TIP3   OH240497   0.630   1.614   0.573 -0.9926  0.6036 -0.0155
 6361TIP3    H140498   0.682   1.675   0.625 -0.1767 -0.5374  0.5705
 6361TIP3    H240499   0.650   1.636   0.482  0.9672 -0.1317  0.1950
 6362TIP3   OH240500   1.527   2.033   4.070  0.0794  0.1730 -0.4736
 6362TIP3    H140501   1.574   1.984   4.002  0.6454  0.9804 -0.6820
 6362TIP3    H240502   1.445   1.986   4.082  1.5986 -2.2921  1.0925
 6363TIP3   OH240503   3.305   5.747   2.785  0.1717  0.0025  0.4604
 6363TIP3    H140504   3.259   5.753   2.701 -0.6333  2.6296  1.0036
 6363TIP3    H240505   3.252   5.688   2.838 -0.2036 -0.3823 -0.3311
 6364TIP3   OH240506   6.685   1.870  13.185  0.1140 -0.1886  0.4528
 6364TIP3    H140507   6.633   1.939  13.146  2.1063 -0.1701 -2.5222
 6364TIP3    H240508   6.644   1.789  13.156 -0.3179 -0.2255  1.1552
 6365TIP3   OH240509   0.928   2.685   5.443 -0.1258  0.3676  0.2416
 6365TIP3    H140510   0.864   2.756   5.451 -1.0408 -0.2745 -1.1114
 6365TIP3    H240511   0.902   2.622   5.509 -2.4480 -1.0056 -1.8264
 6366TIP3   OH240512   2.061   2.917  11.014  0.7642 -0.1641 -0.2480
 6366TIP3    H140513   2.107   2.882  10.938 -0.8593  0.6621 -1.6611
 6366TIP3    H240514   1.968   2.905  10.994  0.2213  2.4807  0.3702
 6367TIP3   OH240515   3.134   2.813  14.693  0.1562  0.2949  0.2677
 6367TIP3    H140516   3.043   2.838  14.711 -0.6786 -1.3467 -1.3497
 6367TIP3    H240517   3.130   2.769  14.608  2.4872  0.1917  0.1567
 6368TIP3   OH240518   2.357   2.881   4.757 -0.6921 -0.4534 -0.4891
 6368TIP3    H140519   2.266   2.885   4.786 -0.7284 -2.8789 -0.0403
 6368TIP3    H240520   2.359   2.809   4.694  1.0933 -1.1720  0.3140
 6369TIP3   OH240521   3.029   0.336  12.677 -0.5542 -0.5574  0.4261
 6369TIP3    H140522   3.047   0.243  12.667  0.3380 -0.3086 -0.5167
 6369TIP3    H240523   3.032   0.370  12.587  1.3174  0.7486  0.9307
 6370TIP3   OH240524   2.106   6.764  12.527 -0.1060 -0.1995  0.0090
 6370TIP3    H140525   2.071   6.774  12.616 -0.2684 -0.4761 -0.0205
 6370TIP3    H240526   2.142   6.675  12.526 -0.7234 -0.4486 -0.4107
 6371TIP3   OH240527   3.527   0.786  17.005  0.0069  0.1428 -0.3183
 6371TIP3    H140528   3.559   0.863  16.958  0.2720 -0.6629 -1.4927
 6371TIP3    H240529   3.452   0.819  17.056  1.3636  1.5973  0.8336
 6372TIP3   OH240530   1.884   0.667  12.339  0.1177  0.0302 -0.3459
 6372TIP3    H140531   1.951   0.615  12.295  0.2616  0.7476 -1.0033
 6372TIP3    H240532   1.806   0.611  12.338  0.8241 -1.0338  0.9299
 6373TIP3   OH240533   5.752   4.050   2.329 -0.3219  0.3257  0.0868
 6373TIP3    H140534   5.715   4.138   2.325 -0.9760  0.0953  0.7781
 6373TIP3    H240535   5.807   4.050   2.407  0.0684  0.2676 -0.1878
 6374TIP3   OH240536   0.293   5.661  16.610 -0.3407 -0.2323 -0.1142
 6374TIP3    H140537   0.317   5.730  16.672  0.8258 -0.1301 -0.6570
 6374TIP3    H240538   0.231   5.606  16.659  0.8743 -0.4109  1.2987
 6375TIP3   OH240539   1.399   1.652  16.719  0.5311 -0.0179  0.3798
 6375TIP3    H140540   1.471   1.678  16.663 -0.2184  0.1873 -0.5096
 6375TIP3    H240541   1.322   1.655  16.663  0.1755 -2.8152  0.6036
 6376TIP3   OH240542   3.713   2.486   4.887 -0.5868  0.3259 -0.1390
 6376TIP3    H140543   3.685   2.540   4.813  0.0169  0.0195 -0.6002
 6376TIP3    H240544   3.800   2.455   4.863 -1.2373 -1.5317 -0.2528
 6377TIP3   OH240545   6.209   2.966  15.417  0.1902 -0.4453  0.4640
 6377TIP3    H140546   6.155   2.890  15.394  0.7521 -0.2754 -1.6980
 6377TIP3    H240547   6.215   3.015  15.335  0.3209  1.6435  1.6791
 6378TIP3   OH240548   1.201   3.586   2.654  0.0861 -0.6869 -0.3509
 6378TIP3    H140549   1.141   3.552   2.720  0.9530  2.7353  2.4752
 6378TIP3    H240550   1.147   3.643   2.600  0.1448 -0.2101  0.0871
 6379TIP3   OH240551   6.305   2.360  15.930  0.4677 -0.1399 -0.1662
 6379TIP3    H140552   6.232   2.413  15.959  0.6652  0.6778 -1.1070
 6379TIP3    H240553   6.324   2.391  15.841  2.3522  0.1224  0.2750
 6380TIP3   OH240554   2.190   2.996   3.838  0.1387  0.4202 -0.4526
 6380TIP3    H140555   2.206   2.930   3.771 -1.0429 -0.6015  0.2200
 6380TIP3    H240556   2.266   3.054   3.834 -0.2745  0.9066 -3.2275
 6381TIP3   OH240557   6.618   2.941  11.765  0.1704 -0.3581 -0.4443
 6381TIP3    H140558   6.525   2.962  11.772  0.0812 -0.6547 -0.6979
 6381TIP3    H240559   6.661   2.995  11.832 -0.0089  0.8541 -1.2789
 6382TIP3   OH240560   6.401   2.408   0.897  0.1664  0.0030  0.3223
 6382TIP3    H140561   6.414   2.481   0.837 -0.1316  0.4352  0.7774
 6382TIP3    H240562   6.483   2.358   0.892 -0.4537 -0.8930 -1.6560
 6383TIP3   OH240563   2.657   3.089   1.473 -0.2339 -0.2577  0.0301
 6383TIP3    H140564   2.638   3.101   1.566  0.9538  2.8931 -0.0323
 6383TIP3    H240565   2.752   3.097   1.466 -0.1715 -1.6932 -1.3487
 6384TIP3   OH240566   0.525   3.347   0.066  0.1787 -0.5457  0.7426
 6384TIP3    H140567   0.613   3.364   0.033  0.5320  0.0296  1.8910
 6384TIP3    H240568   0.536   3.274   0.126  0.6503  1.7357  3.6882
 6385TIP3   OH240569   4.232   4.828   2.831 -0.2846  0.1848  0.5556
 6385TIP3    H140570   4.172   4.754   2.823 -0.3217  0.2775 -0.0977
 6385TIP3    H240571   4.191   4.897   2.779  0.0030  0.5032  0.7478
 6386TIP3   OH240572   4.959   2.497   3.299 -0.5369  0.1500 -0.3284
 6386TIP3    H140573   4.873   2.483   3.258 -1.3159 -2.5232  1.9345
 6386TIP3    H240574   4.964   2.591   3.313 -2.4540  0.5318 -1.8268
 6387TIP3   OH240575   6.608   2.713   0.191  0.1880  0.3071 -0.2558
 6387TIP3    H140576   6.623   2.806   0.170  1.1642  0.4101  0.8235
 6387TIP3    H240577   6.529   2.714   0.244  0.6076  0.6178  0.3781
 6388TIP3   OH240578   5.708   0.113   1.089  0.7939 -0.0307  0.1356
 6388TIP3    H140579   5.749   0.026   1.079 -1.9063 -1.3517 -0.1944
 6388TIP3    H240580   5.616   0.094   1.108  0.3860  2.7864  1.4075
 6389TIP3   OH240581   0.065   4.041   6.564 -0.8628  0.4319  0.5342
 6389TIP3    H140582   0.067   3.949   6.535  1.0078  0.2473  1.1085
 6389TIP3    H240583  -0.027   4.056   6.588 -1.1605 -1.3802  0.7029
 6390TIP3   OH240584   2.723   3.348   5.980  0.0634 -0.5427  0.2377
 6390TIP3    H140585   2.750   3.311   6.063  0.2724 -4.2429 -1.2900
 6390TIP3    H240586   2.797   3.402   5.952  1.0198 -1.2421  1.3433
 6391TIP3   OH240587   2.733   0.544   2.301 -0.5375 -0.4846 -0.4370
 6391TIP3    H140588   2.817   0.517   2.338 -0.7115 -0.1881  0.1811
 6391TIP3    H240589   2.668   0.493   2.350 -0.6151 -2.9230 -2.8256
 6392TIP3   OH240590   0.064   0.289  11.939  0.1899  0.1432  0.2410
 6392TIP3    H140591   0.113   0.224  11.889  0.5242  1.3455 -1.0296
 6392TIP3    H240592  -0.024   0.288  11.900 -0.2553 -0.5897  1.2136
 6393TIP3   OH240593   0.446   5.017   0.398 -0.1566 -0.2689 -0.3303
 6393TIP3    H140594   0.408   5.045   0.315 -0.6079 -0.0290 -0.0462
 6393TIP3    H240595   0.508   4.949   0.374  0.3106  0.3618 -0.9429
 6394TIP3   OH240596   3.855   5.740   0.558 -0.1475  0.4397  0.4874
 6394TIP3    H140597   3.916   5.767   0.489 -1.2804 -1.4492 -1.3736
 6394TIP3    H240598   3.769   5.748   0.518 -0.7876 -1.7211  1.2652
 6395TIP3   OH240599   3.970   5.293  11.982  0.7394  0.2427  0.0504
 6395TIP3    H140600   3.952   5.219  12.040  1.7687  1.7282  2.4187
 6395TIP3    H240601   3.961   5.257  11.894 -0.7416 -2.1806  1.0853
 6396TIP3   OH240602   4.815   3.875   4.087  0.1537  0.2417  0.7889
 6396TIP3    H140603   4.721   3.870   4.108  0.1841  1.2923  1.2419
 6396TIP3    H240604   4.843   3.958   4.125  1.9744 -1.4388  3.5203
 6397TIP3   OH240605   1.197   5.645  11.782 -0.3064  0.1832 -0.3134
 6397TIP3    H140606   1.229   5.645  11.692 -0.6116 -1.0093 -0.4496
 6397TIP3    H240607   1.103   5.629  11.774 -0.2400 -0.5439  0.2218
 6398TIP3   OH240608   6.565   4.059   3.848 -0.0735 -0.2727  0.5387
 6398TIP3    H140609   6.525   4.036   3.931 -0.3277  1.1912  0.8448
 6398TIP3    H240610   6.612   4.140   3.865 -0.2745  0.1533 -0.7883
 6399TIP3   OH240611   0.010   2.563   1.070  0.8997 -0.2351  0.3606
 6399TIP3    H140612  -0.067   2.506   1.078  1.0622 -0.3776  0.9113
 6399TIP3    H240613  -0.013   2.642   1.118  0.8311  0.0032 -0.0617
 6400TIP3   OH240614   3.126   5.287   4.888 -0.1592 -0.1670  0.2758
 6400TIP3    H140615   3.196   5.349   4.910 -0.1678  0.2638 -0.8471
 6400TIP3    H240616   3.092   5.319   4.805 -1.1379 -0.8616  0.3991
 6401TIP3   OH240617   4.677   0.294  15.884  0.3414  0.2384 -0.4933
 6401TIP3    H140618   4.619   0.244  15.826  0.7184 -0.7218 -0.0583
 6401TIP3    H240619   4.617   0.350  15.933 -0.0782  0.3268 -1.0858
 6402TIP3   OH240620   6.114   2.681   1.713 -0.0858  0.1951 -0.1637
 6402TIP3    H140621   6.195   2.646   1.676  1.1325  1.8282  0.8640
 6402TIP3    H240622   6.082   2.612   1.770 -0.4356 -1.1934 -1.9368
 6403TIP3   OH240623   5.306   2.325   2.620 -0.0783  0.0430  0.0043
 6403TIP3    H140624   5.270   2.277   2.695 -0.3167 -2.2792 -1.5174
 6403TIP3    H240625   5.264   2.411   2.625 -2.8451 -1.2145  0.5799
 6404TIP3   OH240626   2.298   6.315  17.217  0.2686  0.3809 -0.5661
 6404TIP3    H140627   2.258   6.396  17.185 -1.0512  1.0501  2.4564
 6404TIP3    H240628   2.322   6.334  17.307  1.2146 -2.2068 -0.1846
 6405TIP3   OH240629   5.360   3.330   2.465 -0.6581  0.5968  0.0438
 6405TIP3    H140630   5.304   3.278   2.523 -1.1765  2.1661  1.0139
 6405TIP3    H240631   5.422   3.372   2.524  1.0148 -0.4015 -0.9247
 6406TIP3   OH240632   2.227   1.574   2.206  0.6858  0.1255 -0.1108
 6406TIP3    H140633   2.184   1.615   2.281  1.9332 -1.6026  1.6336
 6406TIP3    H240634   2.280   1.644   2.167 -0.2256  1.1251  0.3952
 6407TIP3   OH240635   6.625   5.385   4.770 -0.2451 -0.3089 -0.1846
 6407TIP3    H140636   6.636   5.342   4.854 -2.1078 -1.1087 -0.2885
 6407TIP3    H240637   6.679   5.464   4.775  2.2922 -1.9779  0.4792
 6408TIP3   OH240638   2.302   3.540  14.200 -0.2857  0.5942  0.0895
 6408TIP3    H140639   2.352   3.489  14.136 -2.2310 -2.2661  0.6214
 6408TIP3    H240640   2.367   3.589  14.249  1.7273 -0.9609 -0.8876
 6409TIP3   OH240641   3.038   5.789  12.160 -0.2463  0.3721 -0.4547
 6409TIP3    H140642   3.044   5.866  12.217 -0.1697 -0.7928  1.1969
 6409TIP3    H240643   2.959   5.743  12.190  0.6175 -1.0375 -0.2565
 6410TIP3   OH240644   5.137   4.638   4.929  0.1032  0.0756 -0.1381
 6410TIP3    H140645   5.169   4.572   4.867  1.0475 -1.1274  1.5586
 6410TIP3    H240646   5.212   4.695   4.943  0.2422 -0.3045  0.7061
 6411TIP3   OH240647   2.015   6.263  17.183 -0.3581  0.2085 -0.1652
 6411TIP3    H140648   2.099   6.260  17.138 -0.7392  1.5512 -1.0259
 6411TIP3    H240649   2.022   6.337  17.243 -0.0360 -1.2598  1.7039
 6412TIP3   OH240650   3.735   2.195  10.707 -0.4525 -0.2805  0.0811
 6412TIP3    H140651   3.761   2.142  10.782  0.7817  0.6235  0.3278
 6412TIP3    H240652   3.646   2.224  10.728 -0.2587 -0.3381  1.0236
 6413TIP3   OH240653   4.579   4.615   6.035  0.3270 -0.0627 -0.5924
 6413TIP3    H140654   4.496   4.572   6.010  0.3885  0.2379 -1.3260
 6413TIP3    H240655   4.600   4.671   5.961  1.3734 -0.3925 -0.5543
 6414TIP3   OH240656   4.469   4.458   2.825 -0.7554  0.1754 -0.6600
 6414TIP3    H140657   4.501   4.417   2.905 -0.3392 -0.1616 -0.9938
 6414TIP3    H240658   4.517   4.540   2.818 -1.2145  0.4851 -0.2630
 6415TIP3   OH240659   6.331   5.851   3.168  0.0218 -0.3267 -0.3057
 6415TIP3    H140660   6.274   5.792   3.217 -0.1012 -1.7460 -2.0586
 6415TIP3    H240661   6.419   5.836   3.204 -0.3258  0.1240  0.7847
 6416TIP3   OH240662   2.542   6.450  16.576 -0.3347  0.0472  0.0716
 6416TIP3    H140663   2.580   6.489  16.498 -1.8264 -1.3973 -1.4817
 6416TIP3    H240664   2.583   6.496  16.649  1.2275  1.3543 -1.5435
 6417TIP3   OH240665   6.565   5.318  14.820  0.1873  0.4760  0.7187
 6417TIP3    H140666   6.644   5.372  14.819  0.0697  0.6484  0.0010
 6417TIP3    H240667   6.538   5.314  14.729  0.5554 -1.3395  0.6344
 6418TIP3   OH240668   2.429   6.535  12.153 -0.0829 -0.3104 -0.3414
 6418TIP3    H140669   2.415   6.441  12.159 -2.0961 -0.0555 -0.2094
 6418TIP3    H240670   2.479   6.547  12.072  0.9690 -1.5240  0.0929
 6419TIP3   OH240671   6.087   5.605   4.282  1.0044 -0.0625 -0.7025
 6419TIP3    H140672   6.054   5.611   4.372 -0.9458 -0.4253 -1.3428
 6419TIP3    H240673   6.140   5.684   4.271 -0.3209  1.0138  0.1751
 6420TIP3   OH240674   2.216   1.899   1.638 -0.3101 -0.2116 -0.2329
 6420TIP3    H140675   2.180   1.812   1.653 -2.5537  0.6121 -0.4307
 6420TIP3    H240676   2.225   1.906   1.543 -0.3043 -0.1515 -0.2280
 6421TIP3   OH240677   4.328   1.796   4.192 -0.5914  0.3272  0.3148
 6421TIP3    H140678   4.410   1.750   4.207  0.5038  1.9417 -0.4531
 6421TIP3    H240679   4.332   1.825   4.101 -1.3475  1.6812  0.6817
 6422TIP3   OH240680   3.081   2.331  11.979 -0.4171  0.0711 -0.6105
 6422TIP3    H140681   3.074   2.278  12.058  0.7242  0.4070 -0.2656
 6422TIP3    H240682   3.146   2.286  11.925 -1.5137 -0.4077 -1.5865
 6423TIP3   OH240683   5.144   3.273   1.966 -0.3479  0.1499  0.2351
 6423TIP3    H140684   5.078   3.229   2.019 -0.2593 -1.8008 -1.1672
 6423TIP3    H240685   5.113   3.264   1.876  0.3566  1.8547 -0.2111
 6424TIP3   OH240686   0.311   5.457  14.705  0.0224  0.1782  0.3695
 6424TIP3    H140687   0.401   5.471  14.736  0.3423  0.8061 -0.7954
 6424TIP3    H240688   0.310   5.494  14.617 -1.6145  0.9332  0.6788
 6425TIP3   OH240689   5.526   4.049   3.996 -0.1058 -0.3506  0.0820
 6425TIP3    H140690   5.552   4.113   3.930  1.5234 -0.4163  0.6106
 6425TIP3    H240691   5.483   3.979   3.946  0.1946  0.0737 -0.7863
 6426TIP3   OH240692   5.501   3.160  13.763 -0.5726  0.3844 -0.3406
 6426TIP3    H140693   5.530   3.076  13.800  0.8298  0.7854 -0.4693
 6426TIP3    H240694   5.543   3.163  13.677 -0.3829  1.3430 -0.2190
 6427TIP3   OH240695   4.828   2.540  16.371 -0.3795  0.3156  0.1400
 6427TIP3    H140696   4.830   2.552  16.466 -1.1124 -0.7063  0.3031
 6427TIP3    H240697   4.802   2.449  16.359  0.3865  0.2239 -1.0425
 6428TIP3   OH240698   3.613   6.552  14.406 -0.8084 -0.5686  0.6759
 6428TIP3    H140699   3.680   6.588  14.347 -0.3419 -1.0939  0.8717
 6428TIP3    H240700   3.546   6.516  14.348 -1.3422  0.6899  0.4750
 6429TIP3   OH240701   0.968   6.211   2.376 -0.7130 -0.3439  0.2503
 6429TIP3    H140702   0.921   6.154   2.436 -2.8668  1.4544  0.4262
 6429TIP3    H240703   1.014   6.273   2.433  1.1394 -1.4805  0.0564
 6430TIP3   OH240704   5.912   3.234   0.754 -0.3347  0.0886  0.8292
 6430TIP3    H140705   5.939   3.209   0.666 -1.0010  2.1383 -0.0181
 6430TIP3    H240706   5.989   3.277   0.792 -0.4381  0.3414  0.7564
 6431TIP3   OH240707   2.914   4.698  16.661 -0.3953  0.5429 -0.1039
 6431TIP3    H140708   2.889   4.740  16.743 -0.0567  0.2607  0.1495
 6431TIP3    H240709   2.862   4.618  16.658 -0.6156  0.6950 -0.3015
 6432TIP3   OH240710   0.524   2.455   0.178 -0.2833  0.4252 -0.4647
 6432TIP3    H140711   0.598   2.458   0.116  0.0168 -1.3716 -0.2605
 6432TIP3    H240712   0.531   2.368   0.218 -3.3928 -0.4307 -1.5212
 6433TIP3   OH240713   4.621   6.404   5.243 -0.0197 -0.0907  0.2589
 6433TIP3    H140714   4.557   6.417   5.313  0.0889 -0.4566  0.4323
 6433TIP3    H240715   4.595   6.465   5.174 -1.9473 -1.7934 -0.6309
 6434TIP3   OH240716   4.848   6.365   3.079  0.3321  0.2622 -0.3009
 6434TIP3    H140717   4.766   6.404   3.109 -0.4596 -0.2688 -1.6682
 6434TIP3    H240718   4.908   6.374   3.153 -0.4678  2.0997  0.1785
 6435TIP3   OH240719   4.355   4.652  12.002  0.0518 -0.0509  0.0270
 6435TIP3    H140720   4.332   4.744  12.019 -0.2080  0.1369 -1.3023
 6435TIP3    H240721   4.426   4.634  12.064 -1.7867  0.1541  2.3246
 6436TIP3   OH240722   2.912   6.743   5.338 -0.2269 -0.1647 -0.1048
 6436TIP3    H140723   3.004   6.759   5.361 -0.1553 -2.0630  1.1275
 6436TIP3    H240724   2.908   6.650   5.318 -2.1589 -0.4727  1.3855
 6437TIP3   OH240725   0.439   1.476   3.166 -0.2789 -0.3151  0.4954
 6437TIP3    H140726   0.499   1.485   3.241  1.3114  3.2017 -0.9540
 6437TIP3    H240727   0.466   1.394   3.124  1.4692 -0.3822  1.6268
 6438TIP3   OH240728   2.793   4.699  11.834  0.1961  0.2667 -0.0292
 6438TIP3    H140729   2.847   4.724  11.759  0.3785 -0.6389 -0.2095
 6438TIP3    H240730   2.743   4.778  11.855 -0.4517  0.3091 -1.5980
 6439TIP3   OH240731   0.504   1.960  12.966 -0.2337 -0.5834 -0.3635
 6439TIP3    H140732   0.562   2.030  12.937 -0.5707  0.1462  0.6656
 6439TIP3    H240733   0.416   1.995  12.953 -0.4862 -1.7834 -2.1777
 6440TIP3   OH240734   3.049   4.556  11.433  0.4614 -0.8538  0.2907
 6440TIP3    H140735   3.075   4.468  11.459  0.9753 -0.5534  0.8098
 6440TIP3    H240736   3.128   4.594  11.394  0.6228 -0.1795  1.2406
 6441TIP3   OH240737   2.644   4.337  12.980 -0.1048  0.3095  0.1535
 6441TIP3    H140738   2.587   4.268  13.015 -0.0376  0.2652  0.1752
 6441TIP3    H240739   2.655   4.314  12.888  0.1844  0.1093  0.2374
 6442TIP3   OH240740   2.438   1.874   1.821  0.7642 -0.2652  0.8792
 6442TIP3    H140741   2.502   1.900   1.755 -0.2572  1.9784  0.6891
 6442TIP3    H240742   2.354   1.893   1.781  0.0852 -0.2159  2.2814
 6443TIP3   OH240743   3.296   3.757   0.573  0.2593 -0.1312  0.2402
 6443TIP3    H140744   3.232   3.756   0.644 -0.0339 -1.0377 -0.0249
 6443TIP3    H240745   3.247   3.786   0.497  0.4515  0.3379  0.2940
 6444TIP3   OH240746   0.372   5.442  12.629  0.5736  0.1495 -0.5705
 6444TIP3    H140747   0.454   5.489  12.647  1.9023 -2.1113 -0.3350
 6444TIP3    H240748   0.338   5.483  12.550  2.3406  0.6946 -1.1024
 6445TIP3   OH240749   0.810   3.083  13.436  0.2602  0.3782  0.4027
 6445TIP3    H140750   0.894   3.095  13.392  1.5540  0.6190  2.7709
 6445TIP3    H240751   0.830   3.024  13.509 -1.0750  2.2316  2.3726
 6446TIP3   OH240752   4.981   0.637   4.785  0.0096  0.3079  0.0107
 6446TIP3    H140753   5.022   0.558   4.750 -0.1317  0.6980 -1.0487
 6446TIP3    H240754   4.904   0.605   4.831  0.9078 -0.3324  1.1325
 6447TIP3   OH240755   6.047   6.148   1.675  0.2559  0.0635 -0.3550
 6447TIP3    H140756   6.022   6.133   1.584 -0.9399 -0.7212  0.0833
 6447TIP3    H240757   6.066   6.061   1.710  3.7252  0.5606 -0.6291
 6448TIP3   OH240758   5.804   5.090   0.806 -0.1507 -0.3103 -0.9779
 6448TIP3    H140759   5.757   5.022   0.759 -0.6595 -1.6163  1.2804
 6448TIP3    H240760   5.891   5.053   0.821  0.1028  0.2076 -1.1366
 6449TIP3   OH240761   6.572   0.291   3.726 -0.1010 -0.1612 -0.3119
 6449TIP3    H140762   6.493   0.238   3.712 -0.2807  0.1786 -0.6140
 6449TIP3    H240763   6.539   0.370   3.770  0.1769 -0.3368  0.2136
 6450TIP3   OH240764   5.650   5.198  16.834 -0.2947 -0.1956  0.3497
 6450TIP3    H140765   5.698   5.206  16.917 -0.1667  1.6861  0.1499
 6450TIP3    H240766   5.613   5.285  16.820  0.0963 -0.3169 -1.8237
 6451TIP3   OH240767   4.852   5.406  14.156 -0.5151  0.6940  0.0545
 6451TIP3    H140768   4.859   5.486  14.208 -1.0209 -0.1850  1.5370
 6451TIP3    H240769   4.781   5.357  14.197  1.1350 -1.4547  0.5013
 6452TIP3   OH240770   2.959   4.083   0.290 -0.0425  0.4193 -0.7780
 6452TIP3    H140771   2.967   4.165   0.340 -1.9969  0.1603  0.0867
 6452TIP3    H240772   2.864   4.067   0.287  0.2975 -1.9899 -0.6057
 6453TIP3   OH240773   5.915   2.511  15.831 -0.0380  0.0769 -0.5273
 6453TIP3    H140774   5.920   2.452  15.756 -0.7303  0.1126 -0.6021
 6453TIP3    H240775   5.935   2.597  15.794  1.6977 -0.1740 -0.2964
 6454TIP3   OH240776   2.262   2.179  16.815 -0.5331 -0.1579  0.3036
 6454TIP3    H140777   2.249   2.262  16.768  0.6894 -0.5470 -0.7900
 6454TIP3    H240778   2.357   2.174  16.827 -0.7021 -0.8138  1.4816
 6455TIP3   OH240779   5.598   0.236  16.729 -0.7467 -0.1812 -0.1970
 6455TIP3    H140780   5.676   0.281  16.697  0.3318 -0.9499  1.2112
 6455TIP3    H240781   5.540   0.306  16.759 -0.5295  0.3886 -1.0722
 6456TIP3   OH240782   2.930   5.090  13.953 -0.1618 -0.0292 -0.1389
 6456TIP3    H140783   2.955   5.122  13.867  0.1354  0.5084  0.1460
 6456TIP3    H240784   2.995   5.126  14.013 -0.8270  0.2654  0.4223
 6457TIP3   OH240785   2.349   1.453  11.520 -0.8607 -0.0625  0.2623
 6457TIP3    H140786   2.412   1.445  11.591  0.5653 -1.7905 -1.0899
 6457TIP3    H240787   2.329   1.362  11.496 -1.7656  0.4686 -1.1347
 6458TIP3   OH240788   1.228   1.984   5.523 -0.3203  0.7595 -0.2377
 6458TIP3    H140789   1.260   2.061   5.477 -1.2867  1.3589  0.0755
 6458TIP3    H240790   1.136   2.002   5.541 -0.7694 -0.7939 -0.8277
 6459TIP3   OH240791   6.637   2.486  12.705  0.0554  0.1731  0.3975
 6459TIP3    H140792   6.554   2.514  12.667  1.1958  1.7958 -1.0760
 6459TIP3    H240793   6.704   2.520  12.645  1.7991 -1.2622  1.3927
 6460TIP3   OH240794   3.627   4.678  12.468  0.2964 -0.2329  0.0091
 6460TIP3    H140795   3.687   4.744  12.434 -0.1567  0.1465 -0.0470
 6460TIP3    H240796   3.685   4.614  12.510  1.0442 -1.5083 -2.7086
 6461TIP3   OH240797   3.411   3.753  11.729 -0.2951 -0.8040 -0.4439
 6461TIP3    H140798   3.451   3.738  11.643 -1.0793  0.1333 -0.9909
 6461TIP3    H240799   3.329   3.799  11.710 -0.3724 -0.3713  0.8199
 6462TIP3   OH240800   3.906   5.835   5.041  0.3183 -0.8797  0.7158
 6462TIP3    H140801   3.889   5.851   4.948  0.1597 -1.0343  0.7177
 6462TIP3    H240802   3.999   5.815   5.045  0.5768  0.2614  0.7440
 6463TIP3   OH240803   2.337   2.570  14.070 -0.5691  0.7005  0.1606
 6463TIP3    H140804   2.345   2.481  14.103  0.2235 -0.2538 -2.3731
 6463TIP3    H240805   2.411   2.617  14.109 -0.6821  0.1448  1.0832
 6464TIP3   OH240806   5.201   5.468  15.644 -0.6363 -0.4467  0.4303
 6464TIP3    H140807   5.253   5.491  15.721  1.0740 -0.1597 -0.7562
 6464TIP3    H240808   5.210   5.373  15.635  1.0787 -0.2212 -0.6736
 6465TIP3   OH240809   5.443   1.012  16.896  0.0619  0.4961  0.4233
 6465TIP3    H140810   5.443   0.919  16.874  0.3149  0.5085  0.3622
 6465TIP3    H240811   5.533   1.030  16.924  0.1231  0.8147  0.0313
 6466TIP3   OH240812   4.217   5.463  11.788 -0.4003  0.0203  0.0647
 6466TIP3    H140813   4.215   5.370  11.812 -1.8847  0.0956  0.3241
 6466TIP3    H240814   4.131   5.480  11.752  0.2882  1.0218 -1.1754
 6467TIP3   OH240815   3.502   1.965   4.517 -0.6683  0.2154  0.2181
 6467TIP3    H140816   3.523   2.000   4.430 -0.0953 -0.3003  0.1412
 6467TIP3    H240817   3.509   1.870   4.506 -0.8863  0.1371  0.7555
 6468TIP3   OH240818   2.351   3.495  10.757  0.1488 -0.0947  0.4282
 6468TIP3    H140819   2.280   3.524  10.699 -0.1357 -1.2777  0.1670
 6468TIP3    H240820   2.416   3.457  10.698 -0.0661 -1.1545  0.8501
 6469TIP3   OH240821   0.169   0.026   2.722 -0.1590  0.0948 -0.0993
 6469TIP3    H140822   0.148  -0.067   2.710  1.0297 -0.5814  2.3625
 6469TIP3    H240823   0.264   0.030   2.716 -0.1787  1.1103  0.1561
 6470TIP3   OH240824   6.075   0.113   3.617  0.6928  0.5971  0.5371
 6470TIP3    H140825   6.083   0.064   3.535  1.4741  0.8638  0.4400
 6470TIP3    H240826   6.037   0.197   3.591 -0.0170  0.3030  0.6055
 6471TIP3   OH240827   1.257   3.624   3.450  0.1321 -0.5965 -0.2495
 6471TIP3    H140828   1.275   3.718   3.441 -2.8721  0.0207 -0.9042
 6471TIP3    H240829   1.219   3.615   3.537  0.0790 -1.1326 -0.3261
 6472TIP3   OH240830   2.426   4.940   1.595  0.3078  0.2416 -0.1722
 6472TIP3    H140831   2.389   5.028   1.594 -0.5045 -0.0841 -1.2833
 6472TIP3    H240832   2.438   4.918   1.502  1.3224 -0.4881  0.1134
 6473TIP3   OH240833   6.036   5.394  16.742  0.3677 -0.4088 -0.4722
 6473TIP3    H140834   6.111   5.335  16.737  0.3421 -0.3546 -3.0757
 6473TIP3    H240835   5.963   5.344  16.706 -0.3835  0.2098  0.1496
 6474TIP3   OH240836   0.004   6.106  12.619  0.4981 -0.3202  0.4366
 6474TIP3    H140837  -0.070   6.151  12.579  0.5224 -0.6061  0.0606
 6474TIP3    H240838  -0.011   6.013  12.600  1.4648 -0.3013 -0.5222
 6475TIP3   OH240839   6.626   6.683  12.781 -0.4379  0.3401  0.4652
 6475TIP3    H140840   6.537   6.700  12.752  0.2442  1.9079 -0.8711
 6475TIP3    H240841   6.678   6.754  12.743  1.4636 -0.7805  0.8149
 6476TIP3   OH240842   6.539   6.466   4.849 -0.0358  0.2397  0.4297
 6476TIP3    H140843   6.608   6.421   4.800  0.1243  1.6382 -0.6672
 6476TIP3    H240844   6.495   6.521   4.785 -1.1563  0.5766  1.4517
 6477TIP3   OH240845   2.494   0.732  11.751 -0.5854  0.1834  0.0287
 6477TIP3    H140846   2.479   0.775  11.666 -2.0784 -0.7728 -0.2319
 6477TIP3    H240847   2.461   0.643  11.738  0.6826 -0.4763  1.1412
 6478TIP3   OH240848   2.262   4.820  15.338 -0.2885  0.0880 -0.1354
 6478TIP3    H140849   2.302   4.849  15.420  0.4430 -0.7748 -0.1785
 6478TIP3    H240850   2.186   4.768  15.366  0.2162 -0.5809  0.0149
 6479TIP3   OH240851   4.822   5.706  12.915 -0.0967 -0.0793 -0.3082
 6479TIP3    H140852   4.911   5.695  12.883  0.4533  1.0991  0.7258
 6479TIP3    H240853   4.818   5.797  12.943 -2.2319  0.4742 -2.1186
 6480TIP3   OH240854   5.510   4.211   5.479 -0.3511  0.5025  0.4572
 6480TIP3    H140855   5.591   4.244   5.440 -0.9138  1.1545 -0.1767
 6480TIP3    H240856   5.495   4.127   5.436  0.2116  0.1718  0.8900
 6481TIP3   OH240857   1.416   2.788  11.898 -0.2671 -0.0418  0.7150
 6481TIP3    H140858   1.481   2.729  11.936 -0.7182 -0.8707  0.2331
 6481TIP3    H240859   1.343   2.731  11.873 -0.4576  0.6345 -0.3397
 6482TIP3   OH240860   6.429   3.459  13.236  0.2287 -0.7154 -0.1945
 6482TIP3    H140861   6.338   3.443  13.262 -0.7414  2.3513 -1.2417
 6482TIP3    H240862   6.422   3.501  13.150  2.7120 -0.9027 -0.5629
 6483TIP3   OH240863   3.772   6.086   2.927 -0.1516  0.1495  0.0938
 6483TIP3    H140864   3.681   6.114   2.917 -1.4103 -2.5549  2.4532
 6483TIP3    H240865   3.772   6.034   3.008  3.1249 -1.4778 -0.7813
 6484TIP3   OH240866   1.105   6.584  14.808  0.5165 -0.4342 -0.2227
 6484TIP3    H140867   1.051   6.505  14.806  0.9329 -0.7094 -0.7065
 6484TIP3    H240868   1.147   6.587  14.722  0.5167  0.3087 -0.2103
 6485TIP3   OH240869   5.221   5.716  11.909  0.3969  0.1504 -0.4707
 6485TIP3    H140870   5.130   5.689  11.914  0.5626 -0.4883 -0.7317
 6485TIP3    H240871   5.257   5.664  11.837  0.6959  1.1942 -1.0974
 6486TIP3   OH240872   0.772   4.338   0.308  0.5642 -0.0488  0.0990
 6486TIP3    H140873   0.749   4.246   0.326  0.8055  0.0456  0.9438
 6486TIP3    H240874   0.769   4.345   0.213  3.3325 -1.7155 -0.2467
 6487TIP3   OH240875   1.350   2.701   1.135  0.3154 -0.5480  0.9409
 6487TIP3    H140876   1.278   2.723   1.194 -0.8241 -1.5516 -0.0093
 6487TIP3    H240877   1.339   2.608   1.118 -1.4660  0.2390 -3.4186
 6488TIP3   OH240878   0.468   0.926  14.574  0.2951 -0.3789 -0.2502
 6488TIP3    H140879   0.470   0.850  14.516  2.5833 -0.3675 -0.2535
 6488TIP3    H240880   0.376   0.932  14.602 -0.7444 -0.9168 -3.1505
 6489TIP3   OH240881   4.626   2.481  14.998  0.3404  0.0205 -0.1636
 6489TIP3    H140882   4.532   2.465  14.989  0.2280  0.8525 -0.5786
 6489TIP3    H240883   4.635   2.576  14.994  1.2632 -0.0754 -0.7426
 6490TIP3   OH240884   5.427   3.888  10.903 -0.0499 -0.2175 -0.5349
 6490TIP3    H140885   5.456   3.868  10.992  0.3418 -0.2623 -0.6733
 6490TIP3    H240886   5.477   3.965  10.878 -0.5196  0.0902 -0.5369
 6491TIP3   OH240887   4.343   5.817   3.473 -0.3565 -0.1431 -0.5549
 6491TIP3    H140888   4.312   5.907   3.487  1.3063  0.3811 -0.1240
 6491TIP3    H240889   4.271   5.776   3.424 -1.1179  1.4362 -0.8534
 6492TIP3   OH240890   3.418   3.201   4.795 -0.3019  0.0375 -0.5450
 6492TIP3    H140891   3.352   3.173   4.859  0.1485  2.7064  1.2713
 6492TIP3    H240892   3.424   3.129   4.733 -2.2706 -1.8345  1.2828
 6493TIP3   OH240893   6.463   4.751   2.539 -0.6135  0.1660  0.3599
 6493TIP3    H140894   6.536   4.739   2.479 -0.9442 -0.1443  0.0104
 6493TIP3    H240895   6.436   4.663   2.563 -1.5352  0.2334 -0.3410
 6494TIP3   OH240896   1.918   3.381   5.733 -0.5584  0.0870  0.1134
 6494TIP3    H140897   1.902   3.464   5.687 -0.5615  1.2909  2.1537
 6494TIP3    H240898   2.013   3.369   5.727 -0.4917  0.5148  0.2323
 6495TIP3   OH240899   5.456   1.292  16.300  0.1900 -0.3385 -0.2800
 6495TIP3    H140900   5.505   1.364  16.261 -1.6920  0.9345 -0.4206
 6495TIP3    H240901   5.500   1.276  16.384  0.0918  1.6454  0.1975
 6496TIP3   OH240902   3.902   6.269  13.082  0.4515  0.5931  0.0074
 6496TIP3    H140903   3.827   6.234  13.132  1.1876  0.9010  1.3895
 6496TIP3    H240904   3.940   6.193  13.039 -1.2618  0.5760 -1.6055
 6497TIP3   OH240905   6.660   0.995   3.702  0.7144  0.4801  0.4513
 6497TIP3    H140906   6.634   0.904   3.716  0.8865  0.4019  0.2747
 6497TIP3    H240907   6.690   0.997   3.611 -0.9996  1.1245 -0.1230
 6498TIP3   OH240908   4.713   0.182  10.989 -0.5373 -0.1450  0.3509
 6498TIP3    H140909   4.711   0.105  10.933  0.4630  0.4564 -0.5541
 6498TIP3    H240910   4.646   0.166  11.055 -2.8376 -0.2132 -1.8780
 6499TIP3   OH240911   6.428   0.702  11.139 -0.1196 -0.2753 -0.2774
 6499TIP3    H140912   6.420   0.609  11.115 -0.0420 -0.7525  1.4005
 6499TIP3    H240913   6.350   0.719  11.193 -0.1829  0.6655 -0.6542
 6500TIP3   OH240914   6.695   1.416   0.103 -0.0573 -0.5101 -0.3859
 6500TIP3    H140915   6.760   1.457   0.159 -0.4170  0.7751 -0.8483
 6500TIP3    H240916   6.649   1.354   0.159  0.6657 -0.4373  0.2963
 6501TIP3   OH240917   0.249   2.092   0.325  0.0308  0.0268  0.8628
 6501TIP3    H140918   0.213   2.178   0.304 -0.7856 -0.6015 -0.4795
 6501TIP3    H240919   0.177   2.031   0.308  1.2133 -1.1178 -0.3460
 6502TIP3   OH240920   0.818   1.725   3.655  0.4473  0.3735 -0.1374
 6502TIP3    H140921   0.780   1.804   3.618  0.0022  0.4660  0.5008
 6502TIP3    H240922   0.906   1.721   3.617  0.5460  1.2737 -0.0305
 6503TIP3   OH240923   5.740   5.368   1.174 -0.2314 -0.0458 -0.2331
 6503TIP3    H140924   5.806   5.391   1.240 -1.2056 -0.9295  1.1059
 6503TIP3    H240925   5.786   5.312   1.112  0.9434  1.5556 -0.8529
 6504TIP3   OH240926   6.211   3.584  12.715  0.5499 -0.1007 -0.3909
 6504TIP3    H140927   6.194   3.661  12.661  0.6754  0.5370  0.4575
 6504TIP3    H240928   6.185   3.510  12.661 -2.5113  0.6421 -0.1331
 6505TIP3   OH240929   2.816   6.434   4.483 -0.4177 -0.0214 -0.5432
 6505TIP3    H140930   2.879   6.368   4.514 -0.0127  0.4228 -0.4079
 6505TIP3    H240931   2.734   6.386   4.473 -0.4213 -0.3091  0.6666
 6506TIP3   OH240932   5.215   4.742  16.832  0.2622  0.0865  0.4191
 6506TIP3    H140933   5.255   4.763  16.748  0.7448 -1.7650  0.1248
 6506TIP3    H240934   5.185   4.651  16.822  1.5637 -0.6859  2.6308
 6507TIP3   OH240935   4.414   6.746  14.649  0.3528 -0.5200  0.0362
 6507TIP3    H140936   4.383   6.657  14.630 -2.0497  0.4006 -0.7712
 6507TIP3    H240937   4.338   6.790  14.687  2.1325  0.6205  2.4967
 6508TIP3   OH240938   3.550   4.543  17.066 -0.0881 -0.7146  0.3222
 6508TIP3    H140939   3.475   4.580  17.112 -0.5499  0.4707 -1.2540
 6508TIP3    H240940   3.544   4.580  16.977  1.6328 -1.6094 -0.2250
 6509TIP3   OH240941   6.568   6.179   0.012 -0.5853 -0.4080 -0.6759
 6509TIP3    H140942   6.640   6.142   0.062  0.3017  0.7912 -1.0142
 6509TIP3    H240943   6.490   6.157   0.063  0.0227 -1.5198 -0.1784
 6510TIP3   OH240944   5.854   3.449  12.597 -0.2463 -0.3613  0.0701
 6510TIP3    H140945   5.789   3.518  12.606 -0.6876 -0.6403 -0.8078
 6510TIP3    H240946   5.872   3.420  12.686 -1.8020 -0.7273  0.2860
 6511TIP3   OH240947   2.447   5.348   4.343  0.4096  0.0622 -0.2305
 6511TIP3    H140948   2.521   5.360   4.283 -1.9370 -1.9636 -3.8711
 6511TIP3    H240949   2.381   5.409   4.313 -0.9955 -1.3022 -0.0232
 6512TIP3   OH240950   2.436   6.212   1.568  0.4513  0.3714 -0.2353
 6512TIP3    H140951   2.424   6.300   1.605  1.4149  1.0299 -1.3935
 6512TIP3    H240952   2.362   6.201   1.508  0.9981  0.9279 -1.0298
 6513TIP3   OH240953   4.293   1.444  15.394  0.0551 -0.2366  0.2403
 6513TIP3    H140954   4.201   1.421  15.379 -0.2042 -0.5852  2.1214
 6513TIP3    H240955   4.289   1.532  15.431  0.3664 -0.6878  1.3909
 6514TIP3   OH240956   5.207   6.161  16.545 -0.6440 -0.1724  0.1761
 6514TIP3    H140957   5.207   6.139  16.452  0.2456  1.8848 -0.3756
 6514TIP3    H240958   5.134   6.111  16.582 -0.2853 -1.9703 -1.3539
 6515TIP3   OH240959   4.817   5.126  11.884  0.7874 -0.0050 -0.3163
 6515TIP3    H140960   4.802   5.182  11.959  2.1561  0.9007 -0.6772
 6515TIP3    H240961   4.912   5.123  11.875  0.7426 -1.9864 -0.6266
 6516TIP3   OH240962   2.553   2.333  14.009  0.0177 -0.3461  0.1868
 6516TIP3    H140963   2.636   2.308  13.968 -0.4854  0.2003 -1.2184
 6516TIP3    H240964   2.521   2.252  14.049 -0.0342 -1.2135 -1.5274
 6517TIP3   OH240965   0.273   4.590   0.900 -0.1160 -0.2334  0.3403
 6517TIP3    H140966   0.317   4.617   0.981  0.3504  2.1413 -0.6462
 6517TIP3    H240967   0.323   4.632   0.830 -2.4979  0.5861 -0.9818
 6518TIP3   OH240968   4.308   3.513   4.395  0.1448 -0.0651 -0.5284
 6518TIP3    H140969   4.241   3.562   4.443 -0.2581  0.5824 -1.7014
 6518TIP3    H240970   4.300   3.543   4.305  1.7191 -0.3219 -0.7890
 6519TIP3   OH240971   2.447   0.519  16.730 -0.4025 -0.4968  0.3254
 6519TIP3    H140972   2.352   0.511  16.726 -0.4697  0.6178 -1.5914
 6519TIP3    H240973   2.473   0.544  16.641  1.4694  1.1043  1.2314
 6520TIP3   OH240974   1.803   2.129   5.632  0.7912  0.4666  0.2662
 6520TIP3    H140975   1.809   2.062   5.700  2.1123 -0.5660 -0.7955
 6520TIP3    H240976   1.728   2.182   5.657  0.1357 -0.9746  1.5478
 6521TIP3   OH240977   4.545   2.715  14.122 -0.2698 -0.6508 -0.3342
 6521TIP3    H140978   4.532   2.696  14.029 -3.7542 -0.9433  0.0606
 6521TIP3    H240979   4.493   2.794  14.137 -1.6388 -1.8518  1.7248
 6522TIP3   OH240980   3.951   1.870   5.510  0.1154  0.5199  0.6543
 6522TIP3    H140981   3.965   1.937   5.444  1.0871  0.4876  0.8186
 6522TIP3    H240982   3.879   1.904   5.563 -0.7194  0.5131 -0.4386
 6523TIP3   OH240983   1.727   2.793   1.459 -0.5370 -0.5736  0.3661
 6523TIP3    H140984   1.778   2.749   1.527 -0.5331 -0.7256  0.2644
 6523TIP3    H240985   1.788   2.805   1.387 -0.6136 -0.6475  0.2895
 6524TIP3   OH240986   6.447   5.839   6.454  0.1848 -0.4548 -0.1399
 6524TIP3    H140987   6.484   5.901   6.517  0.7251  0.4116 -1.2685
 6524TIP3    H240988   6.424   5.893   6.379 -0.8224 -1.4112 -0.5345
 6525TIP3   OH240989   1.778   6.104   4.146 -0.7251 -0.2276  0.9423
 6525TIP3    H140990   1.765   6.072   4.235  0.5673  2.4070  2.2002
 6525TIP3    H240991   1.869   6.084   4.126 -1.3918 -2.1846 -0.5042
 6526TIP3   OH240992   5.817   3.168  16.224  0.2949 -0.2991 -0.5015
 6526TIP3    H140993   5.730   3.127  16.223  0.3200 -0.4329  0.9481
 6526TIP3    H240994   5.803   3.253  16.265  1.0767 -0.9358  1.1693
 6527TIP3   OH240995   0.504   3.916   0.675 -0.1290  0.1105 -0.3434
 6527TIP3    H140996   0.573   3.849   0.670  0.6763  0.9110 -0.1630
 6527TIP3    H240997   0.509   3.961   0.591 -0.7054 -0.0831 -0.4826
 6528TIP3   OH240998   4.958   2.411  12.826 -0.1340  0.3155 -0.1812
 6528TIP3    H140999   4.943   2.359  12.906  1.4007 -1.1800 -0.8153
 6528TIP3    H241000   4.965   2.501  12.858 -1.1417 -0.0411  1.1690
 6529TIP3   OH241001   3.522   0.401   4.633  0.0135 -0.1225 -0.3243
 6529TIP3    H141002   3.590   0.399   4.700  1.1694  1.7672 -1.3621
 6529TIP3    H241003   3.520   0.492   4.604 -1.2843 -0.6507 -2.0284
 6530TIP3   OH241004   4.658   5.266  12.766 -0.2602 -0.3136  0.1561
 6530TIP3    H141005   4.661   5.281  12.671 -0.0952 -0.2837  0.1651
 6530TIP3    H241006   4.680   5.352  12.804  0.3595 -0.4877  0.2125
 6531TIP3   OH241007   3.400   6.422   5.101 -0.0308 -0.0060  0.6019
 6531TIP3    H141008   3.305   6.419   5.096 -0.2104 -0.5434  3.0286
 6531TIP3    H241009   3.428   6.443   5.012 -2.3325 -1.1111 -0.4709
 6532TIP3   OH241010   1.320   2.152  14.524  0.0666 -0.3116  0.2965
 6532TIP3    H141011   1.297   2.242  14.543  0.2397 -0.5595  1.8342
 6532TIP3    H241012   1.241   2.114  14.485  0.3355  0.7518 -1.3598
 6533TIP3   OH241013   0.175   6.082  10.547  0.3302  0.0462  0.1100
 6533TIP3    H141014   0.102   6.087  10.609 -0.3540 -0.5277 -0.6229
 6533TIP3    H241015   0.221   6.002  10.571 -1.5839 -1.7436 -1.8231
 6534TIP3   OH241016   1.643   4.506   1.293  0.3647 -0.4587 -0.2867
 6534TIP3    H141017   1.610   4.596   1.291 -1.1576 -0.9883 -0.6446
 6534TIP3    H241018   1.620   4.474   1.380  2.1218 -0.1050  0.3458
 6535TIP3   OH241019   6.355   6.481  14.715  0.4746 -0.3994  0.2160
 6535TIP3    H141020   6.359   6.399  14.667  1.7292  0.7801 -1.8349
 6535TIP3    H241021   6.264   6.509  14.707  0.2558 -1.1236  0.1201
 6536TIP3   OH241022   5.077   6.719   6.246  0.2491  0.3819 -0.1610
 6536TIP3    H141023   5.149   6.700   6.186 -0.4422 -0.7748 -0.6616
 6536TIP3    H241024   5.067   6.640   6.298 -1.4866 -0.0197 -1.0055
 6537TIP3   OH241025   2.752   1.227   1.192  0.3663  0.4175  0.0842
 6537TIP3    H141026   2.716   1.227   1.103  0.9001  1.6620 -0.1652
 6537TIP3    H241027   2.683   1.267   1.245  0.9312  1.8871 -0.2212
 6538TIP3   OH241028   2.149   1.189   3.146  0.3665 -0.0173  0.3943
 6538TIP3    H141029   2.228   1.234   3.175  0.3964 -0.5266  1.1167
 6538TIP3    H241030   2.179   1.133   3.074  0.0595  2.2241 -1.6223
 6539TIP3   OH241031   5.936   3.101  14.913 -0.0478 -0.3385 -0.4282
 6539TIP3    H141032   5.920   3.036  14.982 -1.5824  0.8017  0.3744
 6539TIP3    H241033   5.871   3.081  14.846  0.1277 -0.2393 -0.6273
 6540TIP3   OH241034   5.732   2.587   3.201 -0.2707 -0.0373  0.0466
 6540TIP3    H141035   5.696   2.532   3.270  1.3652  0.1163  1.0665
 6540TIP3    H241036   5.772   2.661   3.247  2.1213 -0.6472 -0.9174
 6541TIP3   OH241037   1.362   6.471   1.857  0.1052  0.0909  0.2152
 6541TIP3    H141038   1.342   6.563   1.845  1.0400  0.2281 -0.3367
 6541TIP3    H241039   1.389   6.440   1.771 -1.2535 -0.9851  0.1277
 6542TIP3   OH241040   1.045   2.825   0.970  0.2737 -0.2065  0.3097
 6542TIP3    H141041   1.132   2.841   1.007  1.2538 -1.6663 -1.2112
 6542TIP3    H241042   1.004   2.764   1.032 -0.1992  1.4235  1.6746
 6543TIP3   OH241043   4.500   4.500  14.531  0.2061 -0.2835 -0.1988
 6543TIP3    H141044   4.484   4.573  14.590 -0.4749 -1.0128  0.5415
 6543TIP3    H241045   4.554   4.439  14.581  1.5373  0.1088 -1.1247
 6544TIP3   OH241046   2.237   5.501  12.759  0.1722  0.1765  0.0912
 6544TIP3    H141047   2.258   5.511  12.852 -0.8695 -0.2559  0.3889
 6544TIP3    H241048   2.188   5.419  12.755  2.3369 -1.1392 -1.2196
 6545TIP3   OH241049   1.988   4.473   2.406  0.3686 -0.1748  0.4394
 6545TIP3    H141050   2.018   4.455   2.317  0.4420 -1.4946  0.7151
 6545TIP3    H241051   2.068   4.485   2.456  0.3655  3.1629 -0.0951
 6546TIP3   OH241052   3.056   1.718  16.317 -0.1543  0.2798 -0.0058
 6546TIP3    H141053   3.104   1.639  16.293  0.0584  0.2401  0.5282
 6546TIP3    H241054   2.996   1.733  16.244 -0.2513 -0.4206 -0.0776
 6547TIP3   OH241055   6.103   1.712  10.639  0.0757 -0.0556  0.1897
 6547TIP3    H141056   6.060   1.787  10.597  0.2203 -0.2776 -0.3634
 6547TIP3    H241057   6.181   1.750  10.680 -0.3366  0.2513  0.7122
 6548TIP3   OH241058   1.564   4.790   5.618 -0.6430 -0.1488 -0.2976
 6548TIP3    H141059   1.613   4.755   5.692 -0.7031 -1.9167 -1.0517
 6548TIP3    H241060   1.490   4.731   5.607 -1.2673  0.7350 -1.0740
 6549TIP3   OH241061   1.271   6.233  12.059 -0.5921 -0.2634 -0.7134
 6549TIP3    H141062   1.213   6.307  12.079  0.8814  1.3506 -2.1481
 6549TIP3    H241063   1.325   6.222  12.138 -0.8189  0.1640 -0.4971
 6550TIP3   OH241064   0.088   4.874  16.848  0.4935  0.0734 -0.2637
 6550TIP3    H141065   0.061   4.870  16.756 -0.0363 -0.4030 -0.0873
 6550TIP3    H241066   0.025   4.820  16.895 -0.7810  2.2967  0.7482
 6551TIP3   OH241067   0.017   1.511  11.567  0.1621 -0.9066 -0.3524
 6551TIP3    H141068  -0.066   1.463  11.573 -0.4237 -0.3861 -2.8639
 6551TIP3    H241069   0.069   1.461  11.504  1.3297 -0.6245  0.3638
 6552TIP3   OH241070   4.282   5.782   4.281  0.0704 -0.0172  0.2353
 6552TIP3    H141071   4.310   5.850   4.219  0.8518  0.6946  1.3395
 6552TIP3    H241072   4.188   5.795   4.290 -0.3883 -1.1396 -1.9641
 6553TIP3   OH241073   6.497   5.514   2.747  0.1972 -0.1319 -0.1843
 6553TIP3    H141074   6.469   5.457   2.818 -0.2622  0.3175  0.0018
 6553TIP3    H241075   6.420   5.568   2.728  0.3885 -0.0902 -0.8658
 6554TIP3   OH241076   5.886   3.540   2.975 -0.0708 -0.1019  0.2252
 6554TIP3    H141077   5.892   3.464   2.917  0.5459  0.5903 -0.6483
 6554TIP3    H241078   5.805   3.526   3.024 -0.3937 -0.9119 -0.5014
 6555TIP3   OH241079   2.087   6.560   4.990 -0.2634  0.3124 -0.8419
 6555TIP3    H141080   2.047   6.517   4.914 -2.0587 -1.7144  1.1261
 6555TIP3    H241081   2.061   6.507   5.065  1.1588  2.4012  1.2852
 6556TIP3   OH241082   1.019   0.517   4.360 -0.8823 -0.5164 -0.0135
 6556TIP3    H141083   0.985   0.537   4.273 -3.6112 -2.5925  0.4071
 6556TIP3    H241084   0.978   0.582   4.417 -0.4897 -0.2325 -0.0513
 6557TIP3   OH241085   0.881   4.685   0.069 -0.7695 -0.0407  0.6570
 6557TIP3    H141086   0.928   4.673   0.151  0.4413  3.6246  0.6819
 6557TIP3    H241087   0.811   4.746   0.090  0.1355  1.7249 -1.1121
 6558TIP3   OH241088   6.448   2.990   3.413 -0.1334 -0.3082 -0.0062
 6558TIP3    H141089   6.460   2.919   3.351 -0.0423 -1.1633  0.9648
 6558TIP3    H241090   6.355   3.014   3.405 -0.0218 -0.0972 -0.7719
 6559TIP3   OH241091   0.684   5.814  12.166 -0.7990  0.1726  0.2134
 6559TIP3    H141092   0.632   5.783  12.240  0.1478  1.0834  1.3029
 6559TIP3    H241093   0.732   5.889  12.201  2.7160 -1.7347 -0.1120
 6560TIP3   OH241094   2.343   1.944   4.907 -0.5069  0.2087  0.3782
 6560TIP3    H141095   2.346   1.912   4.816  1.7613  1.8126 -0.2018
 6560TIP3    H241096   2.432   1.933   4.939 -1.6011 -1.7674  3.0364
 6561TIP3   OH241097   3.972   3.395  11.420 -0.5893 -0.0543 -0.0633
 6561TIP3    H141098   3.896   3.346  11.452 -0.9814 -0.3021 -1.3295
 6561TIP3    H241099   3.952   3.487  11.442 -0.2468 -0.3192  1.5242
 6562TIP3   OH241100   3.819   4.900  12.412 -0.1201  0.1493  0.1082
 6562TIP3    H141101   3.824   4.979  12.465  1.4120  1.3273 -1.6668
 6562TIP3    H241102   3.803   4.932  12.323  0.1886 -1.5656 -0.6091
 6563TIP3   OH241103   1.062   2.321  15.512 -0.4123 -0.0425  0.1518
 6563TIP3    H141104   1.022   2.315  15.425 -0.2850 -0.6611  0.1338
 6563TIP3    H241105   1.004   2.271  15.569  0.5544 -1.3207  0.0421
 6564TIP3   OH241106   2.497   0.101   4.334  0.5558  0.0825  0.1679
 6564TIP3    H141107   2.572   0.059   4.375 -0.0563 -1.3873 -0.1710
 6564TIP3    H241108   2.471   0.171   4.395  1.9641  0.3826  0.4432
 6565TIP3   OH241109   2.820   3.640  13.772  0.9148 -0.3124  0.3088
 6565TIP3    H141110   2.763   3.662  13.846 -0.4472 -0.3091 -0.7149
 6565TIP3    H241111   2.811   3.713  13.711  2.7672  0.1463  0.5122
 6566TIP3   OH241112   4.663   5.143  16.448 -0.3627  0.2488  0.1746
 6566TIP3    H141113   4.723   5.122  16.520  0.2063 -0.4639 -0.4964
 6566TIP3    H241114   4.593   5.079  16.456 -0.0228 -0.1802 -0.2212
 6567TIP3   OH241115   6.243   1.580  11.629 -0.4906  0.4381  0.5720
 6567TIP3    H141116   6.172   1.644  11.622 -0.1709  0.6248 -1.8434
 6567TIP3    H241117   6.321   1.628  11.599  0.2500 -0.3774  1.1546
 6568TIP3   OH241118   3.017   0.714  16.883  0.3094  0.9308  0.2236
 6568TIP3    H141119   2.952   0.656  16.845  2.1815 -0.6157 -0.8255
 6568TIP3    H241120   3.052   0.667  16.958  0.2339  1.7374  0.7810
 6569TIP3   OH241121   3.489   6.634  12.116 -0.2095  0.3070  0.0764
 6569TIP3    H141122   3.445   6.712  12.150 -1.6620 -0.1363 -0.7232
 6569TIP3    H241123   3.419   6.570  12.105  0.4064 -0.0084 -2.4786
 6570TIP3   OH241124   2.869   1.045  14.569 -0.2208 -0.2286  0.3808
 6570TIP3    H141125   2.844   0.955  14.589 -0.6460 -0.3236 -0.5249
 6570TIP3    H241126   2.940   1.037  14.506 -0.1072  0.0683  0.4677
 6571TIP3   OH241127   5.357   4.389  14.993 -0.4566 -0.5642  0.1433
 6571TIP3    H141128   5.432   4.351  14.946  0.4735 -0.8563  1.7846
 6571TIP3    H241129   5.284   4.331  14.973  0.4202 -1.9331  0.7576
 6572TIP3   OH241130   6.215   5.748   2.076 -0.3047 -0.0731 -0.4680
 6572TIP3    H141131   6.237   5.694   2.000 -0.1143  1.0129 -1.2084
 6572TIP3    H241132   6.291   5.805   2.088 -0.3089 -0.2739  0.5777
 6573TIP3   OH241133   4.539   6.719   2.800  0.1616 -0.4385  0.2481
 6573TIP3    H141134   4.457   6.766   2.785 -0.2796 -1.3417 -0.2695
 6573TIP3    H241135   4.534   6.643   2.742 -0.1929 -2.3925  2.6579
 6574TIP3   OH241136   6.729   6.436  13.704  0.0239  0.4946  0.4239
 6574TIP3    H141137   6.647   6.475  13.737 -0.0541  0.6440  0.0592
 6574TIP3    H241138   6.704   6.394  13.622  0.3394  0.6491  0.2467
 6575TIP3   OH241139   3.538   1.428  11.389  0.0019  0.4315 -0.2225
 6575TIP3    H141140   3.487   1.451  11.312 -0.0107  0.0057 -0.3441
 6575TIP3    H241141   3.629   1.447  11.364  0.3009 -2.0222 -1.2693
 6576TIP3   OH241142   0.332   2.620   3.299 -0.0204 -0.6022 -0.8279
 6576TIP3    H141143   0.405   2.659   3.348 -0.8363 -0.2369  0.1313
 6576TIP3    H241144   0.359   2.627   3.208  0.5997  0.6883 -0.5788
 6577TIP3   OH241145   4.791   5.288  13.286 -0.2325  0.2376  0.1904
 6577TIP3    H141146   4.813   5.198  13.309 -0.1306  0.0743 -0.5426
 6577TIP3    H241147   4.875   5.333  13.281 -0.0396 -0.3003 -2.2433
 6578TIP3   OH241148   2.089   5.384   2.486 -0.8711  0.2663 -0.7470
 6578TIP3    H141149   2.073   5.401   2.393 -0.7815 -0.7119 -0.9515
 6578TIP3    H241150   2.165   5.438   2.508  0.0184 -0.5989 -1.6176
 6579TIP3   OH241151   1.699   2.277  14.340  0.8973 -0.3069 -0.3449
 6579TIP3    H141152   1.784   2.245  14.371  0.0892 -0.1237  2.3165
 6579TIP3    H241153   1.642   2.200  14.342  0.2598  0.1524  1.0193
 6580TIP3   OH241154   4.506   4.981   6.783 -0.1351 -0.1216  0.2704
 6580TIP3    H141155   4.534   5.010   6.696  0.7172 -1.3810  0.0922
 6580TIP3    H241156   4.576   5.008   6.842 -0.2899 -0.0493  0.4228
 6581TIP3   OH241157   0.883   0.864  14.478  0.5931  0.1295  0.0308
 6581TIP3    H141158   0.869   0.945  14.429 -0.1494  0.1886  0.3189
 6581TIP3    H241159   0.818   0.803  14.442  0.2883  0.0615  0.6752
 6582TIP3   OH241160   1.765   1.724   3.416 -0.3205 -0.2646 -0.1543
 6582TIP3    H141161   1.825   1.681   3.355  0.5620 -0.2960  0.7026
 6582TIP3    H241162   1.735   1.802   3.368 -1.2344 -1.3268 -1.3685
 6583TIP3   OH241163   3.425   0.941   3.068 -0.7686  0.4092 -0.1500
 6583TIP3    H141164   3.394   0.875   3.129 -0.5422 -0.2163 -0.7050
 6583TIP3    H241165   3.448   1.016   3.124  1.7637 -0.9801  0.8713
 6584TIP3   OH241166   6.452   2.329   3.823  0.5182 -0.2953 -0.4723
 6584TIP3    H141167   6.442   2.346   3.916 -1.3508 -3.6637  0.1104
 6584TIP3    H241168   6.545   2.311   3.812  0.6828 -0.3287  0.8235
 6585TIP3   OH241169   2.575   3.945   2.172  0.2785  0.2207 -0.0521
 6585TIP3    H141170   2.648   3.891   2.202 -1.8759 -2.1051  1.3255
 6585TIP3    H241171   2.580   3.939   2.076  0.1714 -2.4254  0.0499
 6586TIP3   OH241172   4.978   0.565   2.585 -0.4037 -0.5850 -0.4812
 6586TIP3    H141173   5.046   0.508   2.549  0.3138  0.2317 -0.4629
 6586TIP3    H241174   4.966   0.534   2.675  2.1437  1.1071  0.5431
 6587TIP3   OH241175   3.984   4.708  17.248 -0.6037 -0.1634 -0.0427
 6587TIP3    H141176   3.906   4.741  17.203 -1.8364 -0.6474  1.6570
 6587TIP3    H241177   4.048   4.779  17.240 -1.7738  0.9218 -0.0752
 6588TIP3   OH241178   0.944   4.006  13.694 -0.1190  0.4779 -0.4871
 6588TIP3    H141179   1.020   4.036  13.645 -1.1303  2.0692 -1.1434
 6588TIP3    H241180   0.884   4.081  13.695 -1.4607 -0.5500  0.4721
 6589TIP3   OH241181   1.537   5.662  14.711  0.0980  0.2742 -0.1833
 6589TIP3    H141182   1.628   5.639  14.732  0.4593  2.8882  1.5489
 6589TIP3    H241183   1.486   5.592  14.752  1.2782 -1.5475 -1.6627
 6590TIP3   OH241184   2.474   2.708  15.095 -0.2271  0.0020  0.2702
 6590TIP3    H141185   2.413   2.780  15.078 -0.5760  0.1614  2.0379
 6590TIP3    H241186   2.560   2.743  15.072 -0.5980  0.3310 -0.6691
 6591TIP3   OH241187   1.648   0.367  11.443 -0.0927 -0.7169  0.2246
 6591TIP3    H141188   1.574   0.309  11.462 -0.3201 -0.2550  0.7637
 6591TIP3    H241189   1.665   0.412  11.525  1.0790 -1.1365  0.2377
 6592TIP3   OH241190   5.237   0.098  15.850  0.4654  0.7255  0.2578
 6592TIP3    H141191   5.167   0.080  15.912  1.3795 -0.2168  1.0658
 6592TIP3    H241192   5.246   0.193  15.851 -4.2592  1.6494 -3.8569
 6593TIP3   OH241193   4.431   1.467  11.143 -0.0953 -0.8595 -0.0374
 6593TIP3    H141194   4.389   1.401  11.088  1.7387 -1.2612 -1.0467
 6593TIP3    H241195   4.470   1.418  11.215  0.1069 -0.7167 -0.0471
 6594TIP3   OH241196   3.880   3.405  13.345  0.9160  0.4625  0.5048
 6594TIP3    H141197   3.873   3.365  13.259  0.8429  0.6679  0.4130
 6594TIP3    H241198   3.793   3.444  13.361  1.4592  2.0115 -0.1323
 6595TIP3   OH241199   3.627   5.545   5.357 -0.2394  0.4773  0.2248
 6595TIP3    H141200   3.622   5.637   5.332 -0.3937 -0.0260 -1.7848
 6595TIP3    H241201   3.636   5.546   5.452 -0.6921  2.5432  0.2858
 6596TIP3   OH241202   5.055   0.324  14.344  0.0029 -0.0757 -0.7475
 6596TIP3    H141203   5.077   0.236  14.314 -0.0904 -0.6283  0.6850
 6596TIP3    H241204   5.107   0.336  14.424 -0.1280  1.0957 -0.8218
 6597TIP3   OH241205   5.279   5.325  13.350  0.3580 -0.2466  0.4965
 6597TIP3    H141206   5.187   5.339  13.375 -0.2661 -0.5362 -1.5014
 6597TIP3    H241207   5.329   5.364  13.422 -1.3158  0.4409  1.3495
 6598TIP3   OH241208   2.366   4.419   5.378 -0.5110  0.0188  0.2249
 6598TIP3    H141209   2.324   4.386   5.299  0.4667  1.8104 -1.1020
 6598TIP3    H241210   2.435   4.478   5.347  1.2508 -0.7738  2.3809
 6599TIP3   OH241211   4.565   1.829   0.896 -0.2330 -0.2158 -0.3008
 6599TIP3    H141212   4.490   1.783   0.860 -0.0218 -0.5207 -0.3578
 6599TIP3    H241213   4.587   1.781   0.976 -1.0713  0.8135  0.5735
 6600TIP3   OH241214   2.744   6.083  11.862  0.3215  0.5227  0.0435
 6600TIP3    H141215   2.667   6.046  11.907  0.1231  0.4255 -0.3631
 6600TIP3    H241216   2.807   6.011  11.861 -0.1989  0.0515 -1.0661
 6601TIP3   OH241217   3.057   1.193  15.633 -0.3768  0.5705 -0.0647
 6601TIP3    H141218   3.068   1.159  15.722  0.5328  0.4931 -0.1909
 6601TIP3    H241219   2.970   1.232  15.632 -0.3597  0.6523  0.8918
 6602TIP3   OH241220   0.050   0.087   5.037  0.3073 -0.1284  0.1299
 6602TIP3    H141221   0.034   0.181   5.048 -0.4214 -0.4433  2.3581
 6602TIP3    H241222   0.053   0.053   5.126  2.2004 -1.9959 -0.5648
 6603TIP3   OH241223   2.201   0.588  14.808 -0.7005 -0.0306 -0.1424
 6603TIP3    H141224   2.228   0.666  14.856  0.3308 -0.3604 -0.1434
 6603TIP3    H241225   2.106   0.585  14.816 -0.8695  1.7458 -0.9374
 6604TIP3   OH241226   6.165   6.371   4.798  0.2600  0.1489 -0.5437
 6604TIP3    H141227   6.223   6.442   4.826 -0.6929  1.0978 -0.8831
 6604TIP3    H241228   6.088   6.379   4.855  1.3608 -2.5694  1.5370
 6605TIP3   OH241229   1.966   6.649  16.785 -0.3109  0.0907  0.1143
 6605TIP3    H141230   1.950   6.655  16.691 -3.3738  0.9115  0.5975
 6605TIP3    H241231   1.958   6.555  16.804  0.0638 -0.0487 -0.3852
 6606TIP3   OH241232   6.526   5.867   5.850 -0.2195  0.1896  0.2104
 6606TIP3    H141233   6.602   5.915   5.817  0.2397  1.0895  2.4189
 6606TIP3    H241234   6.562   5.784   5.881  0.0800  0.9849  2.1076
 6607TIP3   OH241235   2.713   6.471   2.230  0.4794 -0.5872 -0.1035
 6607TIP3    H141236   2.728   6.491   2.137  1.9635  1.2038  0.4641
 6607TIP3    H241237   2.794   6.430   2.259  0.5162  0.0423  0.6977
 6608TIP3   OH241238   5.863   1.344   2.124  0.5583 -0.3665 -0.5713
 6608TIP3    H141239   5.862   1.260   2.078  1.3208 -2.0291  2.1691
 6608TIP3    H241240   5.917   1.327   2.202 -2.0215  1.6383  1.8478
 6609TIP3   OH241241   5.954   1.777   5.650  0.0869  0.0374  0.5630
 6609TIP3    H141242   5.961   1.863   5.609  0.3655 -0.1629  0.1806
 6609TIP3    H241243   5.977   1.715   5.581 -0.1738 -0.3503  0.8147
 6610TIP3   OH241244   0.505   4.849  16.280 -0.3055 -0.0821  0.3844
 6610TIP3    H141245   0.564   4.923  16.267 -2.1792  1.3762 -0.3302
 6610TIP3    H241246   0.525   4.789  16.207 -0.6160  1.0438 -0.6633
 6611TIP3   OH241247   2.907   3.540   4.110 -0.1695  0.1870 -0.1574
 6611TIP3    H141248   2.935   3.461   4.064 -1.6170  1.0425 -2.6763
 6611TIP3    H241249   2.813   3.547   4.090 -0.3574  1.8513  1.1119
 6612TIP3   OH241250   5.276   4.760   3.776  0.1753 -0.2077  0.6931
 6612TIP3    H141251   5.298   4.822   3.846 -1.8277 -0.6532  1.7798
 6612TIP3    H241252   5.202   4.710   3.810  0.5364 -1.9496 -0.8997
 6613TIP3   OH241253   5.538   2.968  14.924  0.2022 -0.1632 -0.4730
 6613TIP3    H141254   5.544   2.999  15.015  1.1207  0.5606 -0.7613
 6613TIP3    H241255   5.468   3.020  14.885  1.2714  1.1130 -0.7623
 6614TIP3   OH241256   2.414   5.380   1.811  0.5535 -0.3862 -0.0486
 6614TIP3    H141257   2.340   5.321   1.827  0.7290 -0.3263  1.0595
 6614TIP3    H241258   2.464   5.378   1.893 -0.3846  2.6951  0.7277
 6615TIP3   OH241259   5.458   2.282   4.671  0.0214 -0.2522 -0.4122
 6615TIP3    H141260   5.445   2.189   4.690 -0.4844  0.2004  1.6033
 6615TIP3    H241261   5.542   2.304   4.710  1.0438 -0.2280 -2.4728
 6616TIP3   OH241262   6.412   3.853  15.859 -0.0310 -0.0647  0.0762
 6616TIP3    H141263   6.331   3.846  15.809 -0.2486 -0.5242  0.4884
 6616TIP3    H241264   6.475   3.889  15.797 -0.3597 -0.4040 -0.4634
 6617TIP3   OH241265   1.295   5.850  12.058  0.3033  0.1746 -0.4098
 6617TIP3    H141266   1.357   5.837  11.986 -0.4937 -1.7502 -0.8223
 6617TIP3    H241267   1.244   5.769  12.060 -0.2217  0.5003  1.8404
 6618TIP3   OH241268   5.346   0.050  11.451  0.3835 -0.4730  0.3120
 6618TIP3    H141269   5.436   0.060  11.419  0.0632 -0.7875 -0.7255
 6618TIP3    H241270   5.330  -0.044  11.447 -0.6666 -0.2641 -1.4734
 6619TIP3   OH241271   2.222   1.604   1.448 -0.5888  0.3852 -0.1996
 6619TIP3    H141272   2.311   1.639   1.439 -0.0491 -1.2956 -1.9772
 6619TIP3    H241273   2.223   1.558   1.532 -0.1533  1.3443  0.3352
 6620TIP3   OH241274   6.396   4.132   2.186  0.4802 -1.1760 -0.0295
 6620TIP3    H141275   6.333   4.086   2.131  0.5004 -0.5711 -0.5671
 6620TIP3    H241276   6.353   4.137   2.272 -0.5435 -0.1219 -0.5701
 6621TIP3   OH241277   0.749   1.055  16.831  0.0515 -0.4789 -0.3590
 6621TIP3    H141278   0.685   0.999  16.875 -1.1183  1.0112 -0.0788
 6621TIP3    H241279   0.825   1.054  16.888 -0.3557 -0.9043  0.1962
 6622TIP3   OH241280   5.134   6.478  15.959  0.0188 -0.0407 -0.4100
 6622TIP3    H141281   5.172   6.553  15.915 -1.8037  1.6489  0.7355
 6622TIP3    H241282   5.185   6.403  15.927  0.9727  1.4681 -2.6686
 6623TIP3   OH241283   4.064   6.394  16.706 -0.6798  0.4200 -0.0181
 6623TIP3    H141284   4.092   6.448  16.780  0.1800 -1.0950  0.8168
 6623TIP3    H241285   4.034   6.312  16.745 -1.8830  0.2303 -1.2469
 6624TIP3   OH241286   4.177   3.722  11.287 -0.6142  0.1893 -0.1314
 6624TIP3    H141287   4.125   3.652  11.246  2.7934 -3.4666  1.1561
 6624TIP3    H241288   4.162   3.711  11.381  2.2461 -0.9960  0.2766
 6625TIP3   OH241289   3.168   1.265   0.298  0.4005 -0.2826 -0.1193
 6625TIP3    H141290   3.206   1.348   0.267 -1.2186  0.9289  0.9694
 6625TIP3    H241291   3.205   1.254   0.386  0.1826 -0.4185 -0.0452
 6626TIP3   OH241292   5.744   1.711  11.869 -0.1288 -0.2508 -0.1212
 6626TIP3    H141293   5.715   1.778  11.932  0.2318  0.0807 -0.3047
 6626TIP3    H241294   5.692   1.729  11.791  2.1471  1.8491 -1.2853
 6627TIP3   OH241295   2.174   1.868  17.124  0.3350  0.0349  0.4806
 6627TIP3    H141296   2.193   1.813  17.200  0.4350 -1.8159 -0.7894
 6627TIP3    H241297   2.089   1.907  17.142  0.9728  0.7423  2.1045
 6628TIP3   OH241298   4.574   4.533  16.132  0.7027  0.1878 -0.5726
 6628TIP3    H141299   4.597   4.440  16.127  0.3830 -0.0194  1.1114
 6628TIP3    H241300   4.654   4.578  16.105  1.3894 -0.5819  0.0928
 6629TIP3   OH241301   0.902   3.664  13.637 -0.1601 -0.4253  0.0986
 6629TIP3    H141302   0.828   3.725  13.630 -0.5124 -0.7943  0.5408
 6629TIP3    H241303   0.878   3.591  13.581  1.2909  0.8209 -2.2997
 6630TIP3   OH241304   6.421   1.516  17.001 -0.2655 -0.6070 -0.1355
 6630TIP3    H141305   6.481   1.560  17.061 -1.3786 -0.3007  0.7970
 6630TIP3    H241306   6.465   1.519  16.916  0.5351  0.6092  0.2954
 6631TIP3   OH241307   6.764   0.633  11.009 -0.2277  0.0540  0.4888
 6631TIP3    H141308   6.848   0.591  11.030 -0.1145  0.0584  0.0574
 6631TIP3    H241309   6.717   0.636  11.092 -0.2332 -0.9164  0.5247
 6632TIP3   OH241310   2.479   0.195   3.252  0.5540 -0.2559  0.1585
 6632TIP3    H141311   2.417   0.220   3.319 -0.8792  0.5348 -1.4034
 6632TIP3    H241312   2.565   0.208   3.293 -0.2587 -0.5047  2.0479
 6633TIP3   OH241313   6.612   4.208   6.246 -0.3122  0.4511 -0.2523
 6633TIP3    H141314   6.550   4.206   6.174  0.4634 -1.3409 -0.9270
 6633TIP3    H241315   6.593   4.128   6.296 -0.8749  1.6757  1.6074
 6634TIP3   OH241316   1.781   5.234  10.901 -0.2393  0.3003  0.3097
 6634TIP3    H141317   1.714   5.248  10.835 -0.9245  1.2283  1.1773
 6634TIP3    H241318   1.814   5.146  10.883  1.3720  1.3797 -2.8218
 6635TIP3   OH241319   0.606   5.469  11.892  0.3926  0.0983 -0.8888
 6635TIP3    H141320   0.659   5.449  11.969 -0.5436  0.5565 -0.1176
 6635TIP3    H241321   0.540   5.530  11.923 -3.2512 -3.4974 -0.7521
 6636TIP3   OH241322   5.774   2.484   5.190  0.3870 -0.2773  0.5336
 6636TIP3    H141323   5.852   2.539   5.187  0.2927 -0.1878 -1.2544
 6636TIP3    H241324   5.740   2.484   5.100 -2.2965  0.5625  1.4447
 6637TIP3   OH241325   3.002   3.120   1.236  0.1438  0.2604 -0.1556
 6637TIP3    H141326   3.066   3.183   1.267  1.8904 -1.1307 -0.7128
 6637TIP3    H241327   2.920   3.146   1.276  1.3315  1.3168  1.7233
 6638TIP3   OH241328   5.356   0.096   0.523 -0.3021 -0.2204  0.2840
 6638TIP3    H141329   5.352   0.010   0.481  0.1026  0.3711 -0.9901
 6638TIP3    H241330   5.447   0.107   0.548 -0.3204 -0.0845  0.2926
 6639TIP3   OH241331   3.970   0.955  15.572  0.2164 -0.5195  0.4806
 6639TIP3    H141332   4.022   0.917  15.501  0.2000 -0.8118  0.6258
 6639TIP3    H241333   3.881   0.924  15.557 -0.7954  3.0170 -2.0225
 6640TIP3   OH241334   1.764   2.276   1.705 -0.3968  0.4609 -0.2366
 6640TIP3    H141335   1.837   2.281   1.644 -0.5217 -0.8516 -0.5131
 6640TIP3    H241336   1.805   2.263   1.791 -0.3089 -1.5903 -0.5527
 6641TIP3   OH241337   0.650   0.355  12.200 -0.0776  0.0685  0.2431
 6641TIP3    H141338   0.574   0.395  12.157  3.3532  2.8518 -4.1652
 6641TIP3    H241339   0.665   0.274  12.151  0.3195  0.0573  0.3789
 6642TIP3   OH241340   4.311   1.198  12.929  0.2995  0.0776  0.1676
 6642TIP3    H141341   4.351   1.131  12.874 -0.9144 -1.2888  0.8617
 6642TIP3    H241342   4.358   1.192  13.012  0.6712  0.6084  0.0004
 6643TIP3   OH241343   4.384   1.553  12.057 -0.5483 -0.0502  0.3117
 6643TIP3    H141344   4.317   1.589  12.115 -0.6448 -0.6900  0.6066
 6643TIP3    H241345   4.400   1.623  11.993 -2.2520 -0.2538 -0.3982
 6644TIP3   OH241346   0.829   4.724  15.227 -0.1395 -0.1632 -0.4615
 6644TIP3    H141347   0.816   4.787  15.298  0.3529 -0.8382  0.2416
 6644TIP3    H241348   0.752   4.666  15.231 -0.4478  0.1980 -0.9244
 6645TIP3   OH241349   0.300   6.233  10.758 -0.1308 -0.3432  0.0768
 6645TIP3    H141350   0.334   6.153  10.720 -0.3350  0.6454 -2.3351
 6645TIP3    H241351   0.305   6.219  10.853  1.3899 -2.5132 -0.2676
 6646TIP3   OH241352   5.307   2.609   3.666  0.5443  1.0868 -0.6279
 6646TIP3    H141353   5.270   2.619   3.753 -1.1808  0.8656 -1.2996
 6646TIP3    H241354   5.281   2.688   3.619  1.6286  1.2998 -0.9175
 6647TIP3   OH241355   0.415   0.866   0.693  0.2720  0.1668  0.3387
 6647TIP3    H141356   0.433   0.954   0.725  2.1101 -0.6725  1.8258
 6647TIP3    H241357   0.502   0.825   0.685 -0.3646 -0.8666 -2.3473
 6648TIP3   OH241358   6.760   5.293  14.545  0.0982  0.1219 -0.0536
 6648TIP3    H141359   6.735   5.201  14.552 -1.8553  0.5225 -0.9383
 6648TIP3    H241360   6.792   5.316  14.632 -0.2252 -1.1746  0.4349
 6649TIP3   OH241361   2.489   3.438  14.864 -0.0230 -0.2537  0.3167
 6649TIP3    H141362   2.471   3.530  14.887 -1.5000  0.1634 -2.0866
 6649TIP3    H241363   2.560   3.443  14.799  0.4484 -0.9034  0.7689
 6650TIP3   OH241364   5.725   5.986  16.848  0.0571 -0.3571  0.3493
 6650TIP3    H141365   5.717   5.984  16.944 -0.5937  0.4823  0.3259
 6650TIP3    H241366   5.652   5.931  16.817 -0.2284  0.0366  0.3210
 6651TIP3   OH241367   5.047   3.120   5.989  0.1555 -0.3830 -0.3513
 6651TIP3    H141368   4.955   3.120   6.017  0.3035 -0.6415  0.1437
 6651TIP3    H241369   5.082   3.201   6.025  0.3214 -0.6689  0.1403
 6652TIP3   OH241370   0.526   1.699   1.096 -0.2236 -0.1396  0.1549
 6652TIP3    H141371   0.607   1.650   1.081 -1.5666 -2.4623  0.0169
 6652TIP3    H241372   0.463   1.662   1.034 -1.8025  0.5654  1.2480
 6653TIP3   OH241373   6.642   0.390  15.264  0.1200  0.0330 -0.4088
 6653TIP3    H141374   6.645   0.411  15.171  3.4913  2.0293 -0.0184
 6653TIP3    H241375   6.724   0.344  15.281 -0.8065 -1.0584  1.4831
 6654TIP3   OH241376   6.273   5.345  13.162  0.3039  0.2842 -0.3140
 6654TIP3    H141377   6.185   5.368  13.191  0.6739  0.4873  0.6618
 6654TIP3    H241378   6.259   5.291  13.084 -0.7126 -0.3927  0.3221
 6655TIP3   OH241379   6.079   3.976   0.897 -0.1445 -0.0651 -0.3349
 6655TIP3    H141380   6.075   3.892   0.944 -0.9689 -0.7305 -1.5574
 6655TIP3    H241381   5.995   3.982   0.852 -0.8406  2.2650  1.0964
 6656TIP3   OH241382   1.127   4.625  13.675  0.0774  0.3219 -0.0347
 6656TIP3    H141383   1.085   4.645  13.591  0.3882  1.4606  0.0638
 6656TIP3    H241384   1.158   4.710  13.707  1.6865 -0.3559  0.3113
 6657TIP3   OH241385   4.826   1.242  13.989  0.6253  0.2179 -0.0612
 6657TIP3    H141386   4.893   1.295  14.033 -0.6575  0.4746  1.7108
 6657TIP3    H241387   4.873   1.199  13.918  2.6219  0.5527  0.9618
 6658TIP3   OH241388   1.710   3.862  15.965 -0.0637  0.3048  0.3833
 6658TIP3    H141389   1.733   3.769  15.978 -0.5414  0.0248 -0.6762
 6658TIP3    H241390   1.691   3.894  16.053 -0.2672 -0.7133  0.7232
 6659TIP3   OH241391   5.146   0.203   2.087  0.0820 -0.6518 -0.2890
 6659TIP3    H141392   5.195   0.133   2.131 -0.8591 -0.0016  1.9624
 6659TIP3    H241393   5.055   0.176   2.092 -0.1846  0.1860 -0.4445
 6660TIP3   OH241394   0.158   0.751   0.696 -0.4345  0.4515 -0.3303
 6660TIP3    H141395   0.143   0.797   0.779 -2.4751 -2.3851  1.0124
 6660TIP3    H241396   0.249   0.771   0.674  1.2071 -0.9091  4.1216
 6661TIP3   OH241397   3.845   1.682  14.444  0.3268  0.3315 -0.3288
 6661TIP3    H141398   3.815   1.770  14.422 -0.9372 -0.1917 -0.7644
 6661TIP3    H241399   3.765   1.633  14.464  0.9886 -0.7838 -0.3066
 6662TIP3   OH241400   5.748   1.029   4.474  0.0808 -0.2774  0.5082
 6662TIP3    H141401   5.758   1.121   4.499 -1.4791 -0.3794  1.6432
 6662TIP3    H241402   5.823   1.012   4.417  0.7370  1.5219  0.7526
 6663TIP3   OH241403   3.178   1.102   3.692 -0.8463  0.2459  0.3171
 6663TIP3    H141404   3.158   1.158   3.768  3.1449  3.5425 -0.6864
 6663TIP3    H241405   3.122   1.135   3.623  0.6215  2.4079  0.0634
 6664TIP3   OH241406   2.113   2.856  12.107 -0.2429 -0.9663 -0.0753
 6664TIP3    H141407   2.128   2.772  12.063 -1.0808 -1.1584 -0.0098
 6664TIP3    H241408   2.088   2.916  12.038 -1.0250 -1.1304  0.0595
 6665TIP3   OH241409   2.387   5.445  10.679 -0.0027  0.7145  0.2650
 6665TIP3    H141410   2.340   5.464  10.598 -1.1139  0.5530  0.8417
 6665TIP3    H241411   2.362   5.355  10.700 -0.1394  0.9197  1.0363
 6666TIP3   OH241412   4.631   3.767  11.428 -0.0587 -0.5652 -0.1007
 6666TIP3    H141413   4.609   3.701  11.493 -2.1946 -2.2328 -2.3299
 6666TIP3    H241414   4.566   3.836  11.441  0.4972 -0.1374  0.4904
 6667TIP3   OH241415   1.301   6.440   4.519  0.0481 -0.5890  0.1287
 6667TIP3    H141416   1.276   6.498   4.446 -2.0453 -4.2482 -2.3659
 6667TIP3    H241417   1.228   6.445   4.580  1.8080  2.4871  2.2459
 6668TIP3   OH241418   4.059   6.459  11.404  0.4199 -0.4900  0.7063
 6668TIP3    H141419   4.044   6.466  11.310 -0.6212  2.3302  0.9771
 6668TIP3    H241420   4.053   6.365  11.423 -1.2875 -0.9727 -1.7445
 6669TIP3   OH241421   3.746   4.205  15.352  0.4259  0.5289  0.7007
 6669TIP3    H141422   3.669   4.166  15.394  0.7686 -1.3371 -0.2773
 6669TIP3    H241423   3.715   4.230  15.265  0.6748  0.7720  0.6827
 6670TIP3   OH241424   0.929   5.242  14.916 -0.3406  0.6799 -0.0850
 6670TIP3    H141425   0.936   5.169  14.977 -0.0192  0.8200  0.0523
 6670TIP3    H241426   0.842   5.234  14.877  0.4992 -1.0817 -1.7215
 6671TIP3   OH241427   0.936   1.739   0.295  0.1877  0.2155  0.0399
 6671TIP3    H141428   0.971   1.780   0.216 -1.8638  2.3711  0.1489
 6671TIP3    H241429   0.979   1.785   0.367  0.1737  0.0219  0.1718
 6672TIP3   OH241430   6.628   0.952  16.363 -0.3540  0.4116  0.3096
 6672TIP3    H141431   6.536   0.949  16.334  0.0294  0.3735 -0.9461
 6672TIP3    H241432   6.678   0.964  16.283  0.8216 -0.6022  0.8545
 6673TIP3   OH241433   3.262   3.892  13.549 -0.1670 -0.2966 -0.2669
 6673TIP3    H141434   3.288   3.948  13.622 -1.0525 -0.3700  0.1209
 6673TIP3    H241435   3.177   3.856  13.576 -0.0595 -1.0733 -0.9209
 6674TIP3   OH241436   4.485   6.226   3.338 -0.1521  0.1102 -0.0077
 6674TIP3    H141437   4.495   6.140   3.297 -2.4975 -0.3415  0.2053
 6674TIP3    H241438   4.514   6.213   3.428 -1.9793 -0.9648  0.4863
 6675TIP3   OH241439   3.556   2.943   5.647 -0.8221  0.0766  1.0879
 6675TIP3    H141440   3.520   3.003   5.713  1.3902  1.8640  0.7824
 6675TIP3    H241441   3.568   2.860   5.694 -0.5491  0.9203  2.5767
 6676TIP3   OH241442   4.417   1.295  12.343  0.1696 -0.4790 -0.7169
 6676TIP3    H141443   4.490   1.316  12.284 -0.7658  0.0172 -1.7276
 6676TIP3    H241444   4.399   1.203  12.325  0.0442 -0.3942 -1.0294
 6677TIP3   OH241445   5.661   5.058   3.348  0.0357  0.9077 -0.2943
 6677TIP3    H141446   5.656   5.090   3.438  0.2344 -1.6138  0.6937
 6677TIP3    H241447   5.745   5.012   3.343 -0.9371 -0.8891 -1.0538
 6678TIP3   OH241448   4.634   1.428  14.738  0.1126  0.3266 -0.0662
 6678TIP3    H141449   4.639   1.341  14.698  1.1193  0.6805 -0.7573
 6678TIP3    H241450   4.723   1.462  14.734  0.1027  0.7031  1.8213
 6679TIP3   OH241451   5.657   1.770   0.606 -0.2974  0.1381 -0.0785
 6679TIP3    H141452   5.631   1.703   0.543  0.6919  0.3975 -0.7972
 6679TIP3    H241453   5.749   1.751   0.624 -0.1125  1.0537  0.0077
 6680TIP3   OH241454   0.248   0.516  10.925  0.0404 -0.3477 -0.5902
 6680TIP3    H141455   0.313   0.530  10.856  0.6705  1.2968  0.2939
 6680TIP3    H241456   0.298   0.518  11.006 -0.8198 -1.3311 -0.0071
 6681TIP3   OH241457   5.772   3.114  13.484  0.4576 -0.5458  0.3846
 6681TIP3    H141458   5.765   3.170  13.407 -2.3557 -0.8006  0.3443
 6681TIP3    H241459   5.852   3.064  13.470  1.4740  1.3449 -1.0083
 6682TIP3   OH241460   0.747   3.702  12.982 -0.4301 -0.0047 -0.6366
 6682TIP3    H141461   0.738   3.781  12.928 -0.8964  0.3748 -0.0107
 6682TIP3    H241462   0.790   3.732  13.062 -1.4555 -0.1914 -0.0002
 6683TIP3   OH241463   1.625   1.278  15.252 -0.1114  0.1551  0.2384
 6683TIP3    H141464   1.704   1.226  15.240 -1.2448 -1.2916 -1.5227
 6683TIP3    H241465   1.605   1.312  15.165 -3.3860 -2.6472 -0.3545
 6684TIP3   OH241466   6.290   2.110   2.028 -0.3514 -0.1165 -0.2893
 6684TIP3    H141467   6.201   2.076   2.017 -0.9580  0.9399  1.0962
 6684TIP3    H241468   6.342   2.059   1.966 -1.4358 -2.6271  0.7099
 6685TIP3   OH241469   2.295   1.993  15.730  0.0868  0.4040  0.4579
 6685TIP3    H141470   2.309   1.973  15.638  0.1386 -0.4062  0.6309
 6685TIP3    H241471   2.309   2.087  15.737  0.4061  0.4193 -0.3026
 6686TIP3   OH241472   1.511   4.802  14.422 -0.2814 -0.0329  0.4098
 6686TIP3    H141473   1.548   4.872  14.367 -0.1790  0.4572  1.0871
 6686TIP3    H241474   1.558   4.723  14.394 -0.1474  0.2308 -0.1259
 6687TIP3   OH241475   2.649   5.045   4.676 -0.2805  0.4336  0.2614
 6687TIP3    H141476   2.692   4.982   4.734  0.0893  0.1607 -0.2977
 6687TIP3    H241477   2.609   4.991   4.608  0.1712  0.8080 -0.3132
 6688TIP3   OH241478   6.211   1.028   0.960  0.7072 -0.2212 -0.4658
 6688TIP3    H141479   6.154   1.038   0.885 -0.2603 -2.9118 -0.2137
 6688TIP3    H241480   6.272   0.958   0.935  0.6399 -0.8679  1.0418
 6689TIP3   OH241481   0.051   3.515  17.077 -0.3345 -0.0504 -0.3915
 6689TIP3    H141482   0.093   3.581  17.132  0.7668  0.0449 -1.3012
 6689TIP3    H241483   0.088   3.530  16.990  2.9312 -4.1268 -0.0487
 6690TIP3   OH241484   1.462   6.691  16.454  0.1702 -0.0917 -0.4479
 6690TIP3    H141485   1.436   6.689  16.546  0.2360 -0.2478 -0.4304
 6690TIP3    H241486   1.557   6.683  16.457  0.0826 -1.3027 -0.5714
 6691TIP3   OH241487   5.364   1.770  12.468 -0.3770 -0.2171 -0.1141
 6691TIP3    H141488   5.390   1.759  12.377  0.6215  1.0145  0.0055
 6691TIP3    H241489   5.350   1.680  12.500  0.5100 -0.7240 -1.1096
 6692TIP3   OH241490   5.117   2.262  14.749  0.2019  0.0980 -0.2407
 6692TIP3    H141491   5.107   2.242  14.656 -3.6462 -1.8478  0.3628
 6692TIP3    H241492   5.174   2.193  14.783  1.1359  0.4727 -1.0041
 6693TIP3   OH241493   5.232   0.628   2.942 -0.1774  0.2398  0.0535
 6693TIP3    H141494   5.320   0.648   2.911 -0.0301 -1.3898 -0.6771
 6693TIP3    H241495   5.237   0.638   3.037  0.6231  0.7758 -0.0451
 6694TIP3   OH241496   3.326   0.008   1.247  0.1785  0.4398  0.3451
 6694TIP3    H141497   3.281  -0.037   1.176  1.7044  0.2362 -0.5277
 6694TIP3    H241498   3.408   0.039   1.208  1.2639 -0.0667  2.1005
 6695TIP3   OH241499   2.653   4.737   0.853  0.1776 -0.1669 -0.6136
 6695TIP3    H141500   2.608   4.782   0.782  0.2154  0.7889 -0.0535
 6695TIP3    H241501   2.744   4.733   0.824  0.0405 -0.5874 -1.0041
 6696TIP3   OH241502   0.693   3.060   2.243 -0.0355 -0.2188  0.3626
 6696TIP3    H141503   0.626   3.099   2.187  0.6812  0.8499  0.2205
 6696TIP3    H241504   0.662   3.076   2.333  0.1802  0.5752  0.3032
 6697TIP3   OH241505   1.576   2.940  17.034 -0.0164 -0.2520 -0.5931
 6697TIP3    H141506   1.571   3.003  16.962  0.2072  0.2044 -0.2123
 6697TIP3    H241507   1.538   2.860  16.998 -0.5729  0.1803 -0.9905
 6698TIP3   OH241508   2.940   3.615   0.417 -0.3843 -0.2706  0.3930
 6698TIP3    H141509   2.968   3.554   0.485 -1.0816 -0.3317  0.6307
 6698TIP3    H241510   2.938   3.700   0.460  0.9972  0.0067 -0.0465
 6699TIP3   OH241511   4.173   4.568   5.080  0.7562 -0.1271 -0.0476
 6699TIP3    H141512   4.091   4.617   5.084  1.1590  0.5446  0.1696
 6699TIP3    H241513   4.236   4.630   5.044  1.5604 -0.0940  1.3803
 6700TIP3   OH241514   5.314   2.024   2.891 -0.1948  0.0761 -0.2271
 6700TIP3    H141515   5.383   2.003   2.828 -0.9491 -1.0308 -0.7346
 6700TIP3    H241516   5.345   2.102   2.936  1.6590 -0.7120 -0.0316
 6701TIP3   OH241517   5.538   0.377   1.160  0.0042  0.9536 -0.4204
 6701TIP3    H141518   5.591   0.310   1.115  0.9023  0.9770  0.5716
 6701TIP3    H241519   5.597   0.451   1.170 -0.9623  1.8941 -1.4251
 6702TIP3   OH241520   6.321   4.768   1.344 -0.2533  0.1358 -0.4161
 6702TIP3    H141521   6.345   4.691   1.397  3.0651 -0.5530 -2.6330
 6702TIP3    H241522   6.226   4.770   1.347 -0.3449 -1.8251  2.7433
 6703TIP3   OH241523   0.509   4.032   5.455 -0.6456 -0.1169  0.1282
 6703TIP3    H141524   0.529   4.075   5.373 -0.1363  1.6721  1.1317
 6703TIP3    H241525   0.502   3.939   5.433  0.4263  0.2010 -1.7416
 6704TIP3   OH241526   2.795   1.327   3.230  0.4041  0.4801  0.0704
 6704TIP3    H141527   2.781   1.417   3.259  2.0799  0.8435 -0.1610
 6704TIP3    H241528   2.711   1.283   3.247 -0.3330  1.9864  0.4870
 6705TIP3   OH241529   3.539   6.067  16.640 -0.2501 -1.4220  0.7326
 6705TIP3    H141530   3.532   6.019  16.557  0.8465 -0.9487  0.3520
 6705TIP3    H241531   3.448   6.078  16.668 -0.7509 -0.4149 -1.0848
 6706TIP3   OH241532   6.492   6.010  16.678 -0.2743  0.0174 -0.3224
 6706TIP3    H141533   6.422   6.019  16.743 -0.1796  0.2262 -0.2511
 6706TIP3    H241534   6.459   6.056  16.601 -0.1317  0.2905 -0.2221
 6707TIP3   OH241535   1.117   4.571  10.897  0.7573 -0.4908  0.8114
 6707TIP3    H141536   1.170   4.498  10.863  0.1148  0.0009 -1.4312
 6707TIP3    H241537   1.027   4.548  10.874  0.5625  1.0764 -0.1508
 6708TIP3   OH241538   2.985   1.884  14.460 -0.2710  0.5221  0.1397
 6708TIP3    H141539   2.946   1.830  14.391  1.9070  2.0644 -2.5105
 6708TIP3    H241540   2.947   1.971  14.446 -0.8813  0.5771  1.8991
 6709TIP3   OH241541   1.070   4.695  11.964 -0.1763 -0.1146 -0.1939
 6709TIP3    H141542   1.007   4.647  11.910 -0.4395  0.6923 -0.6128
 6709TIP3    H241543   1.155   4.677  11.924 -0.0715 -1.4619  0.5559
 6710TIP3   OH241544   4.446   1.780   1.357  0.3118 -0.1342  0.2286
 6710TIP3    H141545   4.446   1.812   1.448  0.8462 -0.2452  0.2706
 6710TIP3    H241546   4.471   1.857   1.305 -1.9739  0.4768 -0.0385
 6711TIP3   OH241547   6.006   5.807  16.068 -0.3293  0.4831 -0.6495
 6711TIP3    H141548   6.056   5.877  16.026  0.5648  0.9031  1.0245
 6711TIP3    H241549   6.059   5.782  16.144 -1.8027 -0.3484  0.1434
 6712TIP3   OH241550   1.146   0.622  12.153 -0.3886  0.4001 -0.3191
 6712TIP3    H141551   1.214   0.654  12.094  1.5699 -1.7316  0.6574
 6712TIP3    H241552   1.084   0.576  12.097  1.1532 -1.1225 -0.8387
 6713TIP3   OH241553   1.548   5.167   1.532 -0.1008  0.0398 -0.2830
 6713TIP3    H141554   1.495   5.242   1.559 -1.0470 -0.3696 -0.9628
 6713TIP3    H241555   1.596   5.198   1.456  1.6271  0.8039  1.0600
 6714TIP3   OH241556   5.402   3.742  11.234 -0.3142 -0.0694  0.1936
 6714TIP3    H141557   5.413   3.814  11.295 -1.7597  0.5765 -0.2654
 6714TIP3    H241558   5.329   3.691  11.268 -1.1655  0.3159 -0.9901
 6715TIP3   OH241559   3.448   1.460   4.526  0.1459  0.0718  0.1331
 6715TIP3    H141560   3.367   1.409   4.535  0.0036 -0.0604 -1.6044
 6715TIP3    H241561   3.510   1.400   4.486  0.5315  0.7204 -0.2551
 6716TIP3   OH241562   5.084   0.786  12.872  0.2174 -0.4777 -0.0231
 6716TIP3    H141563   5.037   0.807  12.791  1.9150 -1.9772 -1.4638
 6716TIP3    H241564   5.165   0.836  12.867  0.0413 -0.0622  1.0914
 6717TIP3   OH241565   2.975   5.642   5.173  0.4720  0.3857  0.1026
 6717TIP3    H141566   2.992   5.676   5.085 -1.1388  0.3417 -0.2624
 6717TIP3    H241567   3.011   5.553   5.171 -1.5885 -0.5021 -1.3523
 6718TIP3   OH241568   1.896   3.316   3.175  0.4842  0.0017  0.4518
 6718TIP3    H141569   1.862   3.322   3.265  0.7030 -0.3789  0.5626
 6718TIP3    H241570   1.848   3.383   3.127 -0.4377 -0.5250  0.6061
 6719TIP3   OH241571   0.090   3.531  14.163  0.4780  0.3819 -0.0019
 6719TIP3    H141572   0.087   3.551  14.070 -1.0149 -0.7218 -0.2199
 6719TIP3    H241573   0.059   3.441  14.170  5.3104 -1.5221  1.0973
 6720TIP3   OH241574   1.924   0.925   0.679 -0.2914 -0.2675  0.1030
 6720TIP3    H141575   2.015   0.907   0.704 -0.0836 -2.0834 -1.7405
 6720TIP3    H241576   1.900   0.852   0.622 -3.4699 -0.7269  1.8063
 6721TIP3   OH241577   4.543   0.996   5.024 -0.2238 -0.6882 -0.0074
 6721TIP3    H141578   4.510   0.912   4.992  0.9378 -0.5715 -1.6101
 6721TIP3    H241579   4.538   1.054   4.948  0.2399  0.3287  0.7266
 6722TIP3   OH241580   4.562   4.326   2.429 -0.2736 -0.2978  0.0655
 6722TIP3    H141581   4.632   4.296   2.371  1.0098  0.8162  0.9751
 6722TIP3    H241582   4.585   4.417   2.449 -1.1204 -0.4052  1.6341
 6723TIP3   OH241583   4.148   4.471  12.492  0.4297 -0.6491  1.3923
 6723TIP3    H141584   4.092   4.547  12.476  0.8098 -0.1613  2.2787
 6723TIP3    H241585   4.143   4.420  12.412 -1.7578 -0.9273  1.6409
 6724TIP3   OH241586   1.957   5.110   4.761  0.3753 -0.3572  0.6062
 6724TIP3    H141587   1.899   5.147   4.827  0.7226  0.6426  0.3736
 6724TIP3    H241588   2.041   5.097   4.806  0.8963  1.2156  0.1671
 6725TIP3   OH241589   0.374   6.745  12.433 -0.0707  0.1374  0.9777
 6725TIP3    H141590   0.407   6.835  12.434  0.1189  0.1173 -1.0666
 6725TIP3    H241591   0.291   6.750  12.481 -2.1151  2.2768 -2.3743
 6726TIP3   OH241592   3.002   5.182  12.954  0.1695  0.4342  0.3348
 6726TIP3    H141593   3.072   5.142  13.004 -0.3539 -2.2776 -0.9138
 6726TIP3    H241594   2.922   5.159  13.001 -0.0569  1.2629  0.3631
 6727TIP3   OH241595   0.438   1.666   5.416  0.1830 -0.1158 -0.1543
 6727TIP3    H141596   0.441   1.573   5.441  2.0195 -0.0505  0.0091
 6727TIP3    H241597   0.497   1.709   5.477  0.2632  0.9761 -0.9809
 6728TIP3   OH241598   3.237   5.153   6.358 -0.1736 -0.3320  0.0425
 6728TIP3    H141599   3.274   5.085   6.303 -1.6336 -1.2867  0.1870
 6728TIP3    H241600   3.142   5.146   6.346 -0.3898  1.5914  0.1590
 6729TIP3   OH241601   5.413   1.211  12.413  0.0805  0.5165  0.0760
 6729TIP3    H141602   5.497   1.255  12.425  0.7405 -0.4732 -0.7092
 6729TIP3    H241603   5.420   1.131  12.465 -0.1365  0.1334 -0.4726
 6730TIP3   OH241604   3.702   0.144  16.245 -0.2369 -0.1077 -0.9460
 6730TIP3    H141605   3.727   0.217  16.188  0.0943 -0.4022 -1.1891
 6730TIP3    H241606   3.773   0.138  16.309 -0.5555  0.1523 -0.5674
 6731TIP3   OH241607   2.945   2.012  16.476 -0.0148 -0.3901  0.1564
 6731TIP3    H141608   2.891   1.985  16.402 -0.6763 -1.2229  0.9183
 6731TIP3    H241609   3.034   1.988  16.451 -0.4273 -2.2203  0.2977
 6732TIP3   OH241610   3.539   6.748  12.874 -0.0101 -0.1753  0.5081
 6732TIP3    H141611   3.486   6.677  12.838  2.0097 -0.4474 -2.3258
 6732TIP3    H241612   3.582   6.710  12.950 -0.6426 -1.2799  0.3344
 6733TIP3   OH241613   1.592   0.038   2.254 -0.3758  0.4539  0.2765
 6733TIP3    H141614   1.512  -0.014   2.248 -0.3438 -0.0159  2.9183
 6733TIP3    H241615   1.663  -0.025   2.244 -0.2753  0.8175 -1.6889
 6734TIP3   OH241616   0.640   6.507  12.014 -0.3088  0.8914 -0.4535
 6734TIP3    H141617   0.601   6.559  12.084 -0.9343 -1.3387  0.9868
 6734TIP3    H241618   0.735   6.515  12.027 -0.4181  0.4526  0.7328
 6735TIP3   OH241619   1.406   1.936   4.876  0.1154  0.0152 -0.8726
 6735TIP3    H141620   1.313   1.949   4.898 -0.4184 -1.7420 -1.8527
 6735TIP3    H241621   1.405   1.910   4.784  1.6978  0.9300 -1.1788
 6736TIP3   OH241622   5.608   2.951   3.809 -0.4435 -0.0157 -0.3757
 6736TIP3    H141623   5.581   3.035   3.773 -0.2062  0.5556  0.7333
 6736TIP3    H241624   5.548   2.935   3.882  0.7767  0.2203  0.7338
 6737TIP3   OH241625   5.444   4.146  10.823 -0.4409 -0.3937 -0.0129
 6737TIP3    H141626   5.461   4.223  10.768  1.8564 -1.0438 -0.2987
 6737TIP3    H241627   5.381   4.094  10.774 -2.8257  1.6766  0.6131
 6738TIP3   OH241628   5.835   5.680  13.132  0.1274  0.2564  0.2267
 6738TIP3    H141629   5.843   5.715  13.221  0.5010  2.0805 -0.4703
 6738TIP3    H241630   5.751   5.712  13.101 -0.3860 -1.0760  0.1841
 6739TIP3   OH241631   4.270   5.527   6.145 -0.2879 -0.2646 -0.1614
 6739TIP3    H141632   4.344   5.515   6.204 -1.7443 -1.8541  1.4316
 6739TIP3    H241633   4.208   5.581   6.194  0.0822  1.7739 -1.7920
 6740TIP3   OH241634   0.690   4.334  16.710  0.2431  0.1102  0.0378
 6740TIP3    H141635   0.731   4.364  16.791 -0.1976 -0.1131  0.3452
 6740TIP3    H241636   0.751   4.362  16.641  0.0792  1.2669  0.3503
 6741TIP3   OH241637   2.076   6.110  12.689 -0.2774  0.2439 -0.0175
 6741TIP3    H141638   2.089   6.110  12.594  0.8577 -0.7834  0.1275
 6741TIP3    H241639   2.102   6.198  12.716  0.3821  0.2086 -0.5211
 6742TIP3   OH241640   5.442   4.227  11.083  0.4397 -0.0745  0.3583
 6742TIP3    H141641   5.515   4.168  11.103  1.7632  1.1706 -0.6212
 6742TIP3    H241642   5.416   4.205  10.994  2.0693  1.8740 -0.6644
 6743TIP3   OH241643   2.517   0.524  11.025 -0.1440 -0.0832 -0.4425
 6743TIP3    H141644   2.543   0.616  11.014 -0.0451  0.1348  1.2641
 6743TIP3    H241645   2.427   0.521  10.994  0.1780  0.3595 -1.4507
 6744TIP3   OH241646   2.375   2.134   0.806  0.0154  0.1531 -0.1049
 6744TIP3    H141647   2.290   2.175   0.797  0.3163  0.4184 -2.1833
 6744TIP3    H241648   2.370   2.086   0.889 -2.7435 -1.2211 -0.9665
 6745TIP3   OH241649   0.691   2.155   3.106  0.0544 -0.4076 -0.0730
 6745TIP3    H141650   0.783   2.137   3.125  0.2128 -0.6868 -1.0312
 6745TIP3    H241651   0.647   2.071   3.120 -0.4776  0.2301  2.6062
 6746TIP3   OH241652   1.184   5.871  12.331  0.2088 -0.7543 -0.0371
 6746TIP3    H141653   1.243   5.846  12.260  0.7186 -1.5551  0.6512
 6746TIP3    H241654   1.227   5.841  12.410 -1.5273 -2.1985  0.4317
 6747TIP3   OH241655   6.064   6.631   5.796 -0.6224 -0.8479 -0.0093
 6747TIP3    H141656   6.000   6.619   5.866  0.4463 -1.2614  0.9089
 6747TIP3    H241657   6.039   6.565   5.730 -2.5703  0.5430 -0.7848
 6748TIP3   OH241658   1.236   3.880   3.850  0.6715 -0.4725  0.6328
 6748TIP3    H141659   1.162   3.847   3.900  0.3352 -0.4110  0.1847
 6748TIP3    H241660   1.310   3.877   3.911  0.4503 -1.1941  0.8695
 6749TIP3   OH241661   3.975   2.172  14.535  0.1834 -0.0398 -1.0427
 6749TIP3    H141662   3.911   2.134  14.595  0.6123 -0.6268 -0.9492
 6749TIP3    H241663   3.956   2.265  14.535  1.8787  0.4188  2.1153
 6750TIP3   OH241664   2.179   5.190  12.273  0.0041 -0.3376 -0.3345
 6750TIP3    H141665   2.173   5.115  12.214 -0.0628  1.0384 -2.1524
 6750TIP3    H241666   2.272   5.215  12.271 -0.3260  0.9557 -1.5548
 6751TIP3   OH241667   3.736   3.921  13.134  0.2164 -0.1031 -0.5107
 6751TIP3    H141668   3.698   3.911  13.221  0.8545 -2.2535 -0.4259
 6751TIP3    H241669   3.805   3.855  13.130 -0.8324 -1.1963 -3.1966
 6752TIP3   OH241670   5.957   4.710  11.498  0.2014 -0.4295  0.1422
 6752TIP3    H141671   5.916   4.628  11.525 -1.4418  0.2333 -0.1775
 6752TIP3    H241672   6.002   4.689  11.416  0.3372 -1.1402  0.3957
 6753TIP3   OH241673   3.182   4.546   1.341 -0.4167  0.0627 -0.3896
 6753TIP3    H141674   3.253   4.597   1.379 -0.6807  0.1744 -0.0477
 6753TIP3    H241675   3.115   4.611   1.319 -1.2868 -0.2635  1.2133
 6754TIP3   OH241676   4.901   2.617   1.217 -0.1542  0.2289  0.1534
 6754TIP3    H141677   4.843   2.571   1.157 -0.3096  1.3508 -0.5868
 6754TIP3    H241678   4.969   2.553   1.239 -0.2741 -0.3108 -0.9763
 6755TIP3   OH241679   1.666   3.861   2.455  0.5560 -0.4858  0.0230
 6755TIP3    H141680   1.756   3.867   2.486  0.3104 -1.7623  1.0472
 6755TIP3    H241681   1.653   3.942   2.405  1.2030  1.3973  2.6560
 6756TIP3   OH241682   0.730   1.835  14.293 -0.3432 -0.4361  0.4124
 6756TIP3    H141683   0.637   1.817  14.302 -0.3236 -0.6348  0.2305
 6756TIP3    H241684   0.768   1.753  14.261 -0.2557 -0.0799 -0.4490
 6757TIP3   OH241685   6.215   2.036   3.269  0.8558  0.3048 -0.0824
 6757TIP3    H141686   6.190   1.982   3.344  0.5921  0.0134 -0.3767
 6757TIP3    H241687   6.169   1.996   3.195 -0.1193  1.5019 -0.1448
 6758TIP3   OH241688   5.694   4.836  11.579  0.2336  0.2091  0.3251
 6758TIP3    H141689   5.781   4.813  11.546 -0.2729 -2.0347  0.4588
 6758TIP3    H241690   5.640   4.760  11.561 -1.2516  0.7959  2.0192
 6759TIP3   OH241691   5.712   5.263  14.882  0.4947  0.4348 -0.3562
 6759TIP3    H141692   5.670   5.212  14.950  1.9523 -0.5606 -0.1676
 6759TIP3    H241693   5.702   5.354  14.910  0.9969  0.0477  1.1500
 6760TIP3   OH241694   2.228   3.515  13.190  0.7874 -0.1534  0.2165
 6760TIP3    H141695   2.171   3.451  13.233  0.6828  0.1614  0.5566
 6760TIP3    H241696   2.289   3.462  13.138  1.4906 -0.5882  1.4512
 6761TIP3   OH241697   3.180   4.396   2.576  0.1452 -0.1706 -0.2506
 6761TIP3    H141698   3.216   4.316   2.538 -0.1855 -0.7404  0.5969
 6761TIP3    H241699   3.256   4.448   2.600  0.4267 -1.1152  1.0058
 6762TIP3   OH241700   4.483   3.512   5.200  0.1292 -0.0262 -0.0414
 6762TIP3    H141701   4.537   3.441   5.235  0.4056  0.0117 -0.3910
 6762TIP3    H241702   4.396   3.473   5.191  0.5122 -0.6503 -1.2479
 6763TIP3   OH241703   5.697   2.719   3.583 -0.2548  0.3278 -0.5827
 6763TIP3    H141704   5.766   2.660   3.554  0.9372  0.6319  1.4116
 6763TIP3    H241705   5.733   2.807   3.569  0.9001  0.5036  2.6580
 6764TIP3   OH241706   3.954   2.044  15.926  0.1243  0.4819 -0.2426
 6764TIP3    H141707   3.891   1.972  15.920  1.2549 -0.6013  0.2548
 6764TIP3    H241708   3.942   2.094  15.845 -2.5525  1.3615  0.6039
 6765TIP3   OH241709   1.883   1.735   5.031 -0.0070 -0.1964  0.3383
 6765TIP3    H141710   1.909   1.825   5.052  0.7303  0.0558 -1.4751
 6765TIP3    H241711   1.800   1.745   4.985 -0.7025 -0.5963  1.4646
 6766TIP3   OH241712   1.318   4.807   5.833 -0.2730 -0.3616 -0.5224
 6766TIP3    H141713   1.258   4.823   5.760 -1.3261  0.5090  0.4990
 6766TIP3    H241714   1.374   4.884   5.836 -0.7957  0.0027  0.1054
 6767TIP3   OH241715   1.809   4.669  11.753  0.1902  0.3467 -0.4087
 6767TIP3    H141716   1.889   4.625  11.779  0.7859  1.5502 -0.1480
 6767TIP3    H241717   1.758   4.678  11.833  1.4114  2.7995  0.1829
 6768TIP3   OH241718   3.458   3.948   0.471 -0.2582 -0.3237  0.1141
 6768TIP3    H141719   3.400   3.890   0.519 -0.2525 -0.0366  0.4775
 6768TIP3    H241720   3.404   4.023   0.447 -0.8116 -1.3473 -2.1317
 6769TIP3   OH241721   0.233   6.192   5.311  0.7243  0.3763 -0.2082
 6769TIP3    H141722   0.316   6.238   5.304 -0.0610  1.8845  0.0307
 6769TIP3    H241723   0.252   6.116   5.365  1.6676  1.4326  1.0106
 6770TIP3   OH241724   2.689   3.812  15.344  0.2928  0.3171  0.3389
 6770TIP3    H141725   2.678   3.722  15.314 -1.1280  0.7602 -0.5661
 6770TIP3    H241726   2.623   3.822  15.413 -0.8368  1.1880 -0.8356
 6771TIP3   OH241727   2.822   1.768   1.393  0.1208  1.1862  0.2221
 6771TIP3    H141728   2.757   1.828   1.429  0.5502  1.3862  0.6771
 6771TIP3    H241729   2.813   1.776   1.298  1.0526  2.9555  0.2493
 6772TIP3   OH241730   3.441   1.999  16.208 -0.0792  0.1035  0.2926
 6772TIP3    H141731   3.429   1.904  16.197  1.2659  0.1979 -3.0801
 6772TIP3    H241732   3.495   2.006  16.288  0.8735 -2.0894 -0.0539
 6773TIP3   OH241733   2.710   6.530  15.007 -0.4207 -0.2907  0.1258
 6773TIP3    H141734   2.750   6.558  15.089  0.3261  3.0888 -1.2497
 6773TIP3    H241735   2.623   6.499  15.032  0.0933 -0.1780  2.2445
 6774TIP3   OH241736   6.636   4.531  14.461 -0.0415  0.6908 -0.1853
 6774TIP3    H141737   6.556   4.582  14.454 -0.4763 -0.1610 -1.8767
 6774TIP3    H241738   6.641   4.482  14.379  1.5284 -0.2757  0.4376
 6775TIP3   OH241739   1.257   4.471  13.209  0.5922 -0.2265 -0.6736
 6775TIP3    H141740   1.342   4.458  13.252  1.0676  1.8748 -0.8602
 6775TIP3    H241741   1.276   4.459  13.116  0.1658 -1.9818 -0.5623
 6776TIP3   OH241742   3.040   2.355   2.433  0.3065 -0.0552 -0.0432
 6776TIP3    H141743   3.116   2.318   2.479 -0.3345  0.5239  1.5618
 6776TIP3    H241744   2.965   2.321   2.482 -0.3959  0.9221 -0.4300
 6777TIP3   OH241745   2.402   4.227  11.483  0.7765 -0.2078 -0.4638
 6777TIP3    H141746   2.467   4.233  11.553 -1.2290 -0.7900  1.5577
 6777TIP3    H241747   2.394   4.316  11.450  2.6197 -0.1408 -0.8267
 6778TIP3   OH241748   5.991   0.515  14.674 -1.0626  0.1567 -0.5421
 6778TIP3    H141749   6.056   0.481  14.735 -1.4696 -0.9526 -0.6885
 6778TIP3    H241750   5.910   0.520  14.725 -0.8738  1.5849 -0.3456
 6779TIP3   OH241751   3.450   2.466   5.566 -0.1593  0.2646  0.1569
 6779TIP3    H141752   3.543   2.482   5.581 -0.3192  2.2256 -0.6329
 6779TIP3    H241753   3.448   2.399   5.498  0.6545 -0.3884  0.7586
 6780TIP3   OH241754   0.029   5.140   5.715 -0.5571 -0.8166 -0.2446
 6780TIP3    H141755  -0.047   5.115   5.768  0.8440 -4.4073  0.2933
 6780TIP3    H241756   0.006   5.113   5.626 -1.0103  0.8724 -0.6867
 6781TIP3   OH241757   0.726   5.560  15.829  0.8612 -0.5137  0.6612
 6781TIP3    H141758   0.755   5.539  15.918  0.6939  0.7114  1.0190
 6781TIP3    H241759   0.770   5.642  15.808 -0.1530 -0.0906  0.1295
 6782TIP3   OH241760   5.496   1.257   1.817  0.3325 -0.3754 -0.2375
 6782TIP3    H141761   5.429   1.324   1.825 -1.3238 -1.9552 -0.3401
 6782TIP3    H241762   5.525   1.262   1.726 -0.4757 -0.4417 -0.4986
 6783TIP3   OH241763   6.247   0.867   3.169  1.0994  0.4804 -0.0886
 6783TIP3    H141764   6.276   0.954   3.198 -0.6511  1.0531  0.0184
 6783TIP3    H241765   6.192   0.835   3.240 -0.2359  0.3220 -1.1672
 6784TIP3   OH241766   1.707   0.127  15.491  0.0678 -0.5393 -1.0531
 6784TIP3    H141767   1.745   0.125  15.579 -0.1310  0.5591 -0.9268
 6784TIP3    H241768   1.712   0.037  15.461  0.1198 -0.9366  0.0944
 6785TIP3   OH241769   5.031   6.537  13.424  0.2137 -0.0309  0.0317
 6785TIP3    H141770   5.109   6.512  13.474 -1.1114 -0.8667  1.8028
 6785TIP3    H241771   4.960   6.488  13.465 -1.2217  0.5379 -1.6719
 6786TIP3   OH241772   5.381   1.060  15.454 -0.4676 -0.7434 -0.3629
 6786TIP3    H141773   5.322   1.038  15.381 -1.5861  1.4045 -0.1905
 6786TIP3    H241774   5.457   1.099  15.411 -0.8204 -0.1170 -0.4310
 6787TIP3   OH241775   4.032   6.638  16.195 -0.0993  0.2105 -0.0345
 6787TIP3    H141776   4.084   6.656  16.117 -1.7976  0.8924 -1.0753
 6787TIP3    H241777   4.060   6.551  16.223  1.6711  0.6167 -0.4407
 6788TIP3   OH241778   5.937   2.000  16.011 -0.0363 -0.4733 -0.3956
 6788TIP3    H141779   5.944   2.092  15.985 -1.8486 -0.7212 -1.9688
 6788TIP3    H241780   5.964   1.951  15.933 -2.2896 -1.2430 -0.7509
 6789TIP3   OH241781   3.244   0.943  16.484  0.4329  0.2799 -0.1501
 6789TIP3    H141782   3.261   0.978  16.572  1.2497  1.7757 -0.8705
 6789TIP3    H241783   3.154   0.911  16.489 -0.1124  1.8333  0.7902
 6790TIP3   OH241784   0.701   6.678   2.709  0.8087  0.3123 -0.4007
 6790TIP3    H141785   0.671   6.603   2.657  1.0922  0.1131 -0.2771
 6790TIP3    H241786   0.788   6.653   2.738  0.9145  0.7054 -0.3826
 6791TIP3   OH241787   5.192   0.625  16.777 -0.1941 -0.6000 -0.3686
 6791TIP3    H141788   5.138   0.548  16.761 -2.6641  0.1341  3.2760
 6791TIP3    H241789   5.151   0.694  16.725 -0.6430 -0.7953 -0.2742
 6792TIP3   OH241790   5.680   5.799  15.086  0.1842 -0.1632 -0.1360
 6792TIP3    H141791   5.768   5.819  15.051 -0.4863 -0.1694 -1.9515
 6792TIP3    H241792   5.693   5.790  15.180  2.2357 -0.6664 -0.4175
 6793TIP3   OH241793   2.764   3.340   3.722  0.0717 -0.7195  0.4658
 6793TIP3    H141794   2.724   3.382   3.645  0.8689  0.0537  0.4655
 6793TIP3    H241795   2.765   3.247   3.699  0.1877 -0.5161 -0.4188
 6794TIP3   OH241796   4.896   0.615  15.016 -0.0570 -0.3135  0.0872
 6794TIP3    H141797   4.830   0.547  15.001 -1.8572  0.9093  1.9444
 6794TIP3    H241798   4.942   0.587  15.096 -1.0115  0.7171  1.0396
 6795TIP3   OH241799   0.546   4.897  15.614 -0.5477  0.6843  0.2112
 6795TIP3    H141800   0.517   4.850  15.535  1.0055 -0.8798  0.5022
 6795TIP3    H241801   0.555   4.988  15.586  0.3854  0.0905 -1.5598
 6796TIP3   OH241802   2.181   5.146   4.969 -0.1456  0.3290  0.2079
 6796TIP3    H141803   2.227   5.130   4.887  0.4450 -0.6104  0.6997
 6796TIP3    H241804   2.243   5.118   5.037  0.4181  3.4128  1.1244
 6797TIP3   OH241805   3.759   1.857   4.019 -0.0965  0.7782  0.1569
 6797TIP3    H141806   3.707   1.780   4.043 -0.0292  0.3475 -0.9920
 6797TIP3    H241807   3.696   1.916   3.977  0.1124  0.7413 -0.2159
 6798TIP3   OH241808   5.100   1.125   5.381  0.1060  0.3700 -0.0426
 6798TIP3    H141809   5.195   1.120   5.381  0.0668 -0.4631 -0.5038
 6798TIP3    H241810   5.080   1.213   5.348  0.6893 -0.1031 -1.7619
 6799TIP3   OH241811   5.308   5.901   1.980 -0.0051 -0.0173 -0.7122
 6799TIP3    H141812   5.387   5.860   1.944 -0.4503 -1.4964 -0.0966
 6799TIP3    H241813   5.251   5.915   1.905 -0.1101 -1.1910 -0.8765
 6800TIP3   OH241814   2.061   2.525   5.337  0.2790  0.9365 -0.7651
 6800TIP3    H141815   2.077   2.495   5.247 -2.3443  0.4374 -1.1467
 6800TIP3    H241816   2.079   2.448   5.391  2.0820  1.3017 -0.7949
 6801TIP3   OH241817   3.948   6.254  12.756 -0.0509 -0.3005  0.4317
 6801TIP3    H141818   4.006   6.231  12.683 -0.2408  0.1312  0.1443
 6801TIP3    H241819   3.987   6.210  12.832  0.7864  0.1772  0.2875
 6802TIP3   OH241820   4.306   4.018  16.253  0.4305 -0.2611  0.9336
 6802TIP3    H141821   4.317   4.110  16.228 -0.0553 -0.1338  1.1789
 6802TIP3    H241822   4.390   3.977  16.231  0.8537  0.3600  1.3388
 6803TIP3   OH241823   4.416   6.220   5.523  0.1287 -0.7021 -0.1389
 6803TIP3    H141824   4.399   6.240   5.615 -1.2214  0.3514 -0.5961
 6803TIP3    H241825   4.368   6.139   5.507 -0.0408 -0.6208 -0.0432
 6804TIP3   OH241826   4.257   2.975   5.707  0.4944 -0.3533 -0.4679
 6804TIP3    H141827   4.281   2.896   5.660 -0.1716 -0.5433 -0.5060
 6804TIP3    H241828   4.180   3.009   5.660  1.7684  1.2575 -1.4879
 6805TIP3   OH241829   2.112   0.089  16.921  0.5702  0.5453  0.1185
 6805TIP3    H141830   2.118   0.171  16.872  2.3289  0.5837  0.3470
 6805TIP3    H241831   2.049   0.036  16.871 -0.7256  2.0521  0.0515
 6806TIP3   OH241832   3.425   5.210   2.902 -0.1608 -0.5151  0.5204
 6806TIP3    H141833   3.453   5.161   2.824  2.1203  1.1347  0.2202
 6806TIP3    H241834   3.438   5.302   2.879 -1.5614  0.1210  2.0898
 6807TIP3   OH241835   0.008   2.355  13.732 -0.0575  0.3942  1.0030
 6807TIP3    H141836  -0.044   2.379  13.656 -0.0343  0.7893  1.1119
 6807TIP3    H241837  -0.046   2.378  13.807  0.0015  0.1909  1.1070
 6808TIP3   OH241838   4.698   5.446  16.673  0.2103 -0.2500 -0.4036
 6808TIP3    H141839   4.644   5.440  16.594  0.1571 -1.1675 -0.3065
 6808TIP3    H241840   4.681   5.534  16.706 -1.1532 -0.4750 -0.4407
 6809TIP3   OH241841   3.411   2.584  14.688 -0.2253  0.0694  0.3321
 6809TIP3    H141842   3.467   2.662  14.692  0.3768 -0.3751  0.7823
 6809TIP3    H241843   3.365   2.592  14.604 -0.1291  0.8794  0.3488
 6810TIP3   OH241844   6.338   1.410   0.051  0.2298 -1.2112 -0.2949
 6810TIP3    H141845   6.430   1.434   0.036  0.1756 -0.9692 -0.2424
 6810TIP3    H241846   6.333   1.318   0.026  0.4030 -1.1243 -0.6537
 6811TIP3   OH241847   3.663   4.981  12.973 -0.4087  0.5935 -0.3735
 6811TIP3    H141848   3.648   4.891  13.003  0.4994  0.6479  0.3226
 6811TIP3    H241849   3.725   4.972  12.901  1.4965  0.7563  1.1514
 6812TIP3   OH241850   0.878   4.577   2.539 -0.1419  0.0743  0.7683
 6812TIP3    H141851   0.948   4.611   2.484 -0.6845  1.9766  1.1961
 6812TIP3    H241852   0.826   4.522   2.479 -0.6340  1.9682 -0.6213
 6813TIP3   OH241853   3.596   5.663   2.144  0.5032  0.2516  0.0057
 6813TIP3    H141854   3.619   5.598   2.210  0.9170  1.7344  1.4074
 6813TIP3    H241855   3.610   5.619   2.061 -1.4010 -2.1658  0.8471
 6814TIP3   OH241856   0.778   3.100  14.928  0.0755  0.4643  0.1133
 6814TIP3    H141857   0.872   3.119  14.923 -0.4995  3.6211 -0.6945
 6814TIP3    H241858   0.760   3.047  14.851  1.1006  0.2385  0.0145
 6815TIP3   OH241859   1.179   1.261   1.770 -0.1025 -0.0443  0.2329
 6815TIP3    H141860   1.190   1.169   1.745 -1.1180  0.1630 -1.0840
 6815TIP3    H241861   1.085   1.275   1.772  0.0087  0.6872  1.6155
 6816TIP3   OH241862   4.862   2.414   5.391 -0.2232 -0.2910  0.1078
 6816TIP3    H141863   4.925   2.427   5.462 -1.4199 -2.0927  1.6024
 6816TIP3    H241864   4.847   2.320   5.388 -1.9561 -0.0409 -0.9809
 6817TIP3   OH241865   1.271   1.628  13.097 -0.3243 -0.2824 -0.0325
 6817TIP3    H141866   1.199   1.643  13.036  1.1449  1.0475 -1.5308
 6817TIP3    H241867   1.228   1.610  13.180 -2.3879  0.3682 -0.8863
 6818TIP3   OH241868   2.033   6.246   2.576 -0.4593 -0.1775  0.1095
 6818TIP3    H141869   1.996   6.158   2.591  0.5251 -0.5508  0.4488
 6818TIP3    H241870   1.998   6.298   2.648 -1.2175 -0.2286 -0.2091
 6819TIP3   OH241871   3.224   3.626   2.241  0.0041 -0.3562 -0.3499
 6819TIP3    H141872   3.234   3.710   2.196 -0.9515 -0.3091 -0.4917
 6819TIP3    H241873   3.160   3.643   2.309 -0.1164 -0.9489 -0.3104
 6820TIP3   OH241874   0.867   3.616   6.232  0.1275  0.7494 -0.1982
 6820TIP3    H141875   0.860   3.710   6.250 -0.9774  0.3137  1.9863
 6820TIP3    H241876   0.816   3.575   6.301 -1.6670 -1.3843 -2.6344
 6821TIP3   OH241877   1.433   1.897   3.193  0.0870 -0.0567 -0.2867
 6821TIP3    H141878   1.514   1.880   3.242  0.0126  0.6044  0.0717
 6821TIP3    H241879   1.408   1.985   3.218 -0.0576  0.2332 -1.3886
 6822TIP3   OH241880   3.039   2.418  16.921  0.1038 -0.0080 -0.7996
 6822TIP3    H141881   3.034   2.425  16.825  1.0228 -0.0872 -0.8577
 6822TIP3    H241882   2.963   2.364  16.944 -0.6316  0.7571 -1.3931
 6823TIP3   OH241883   5.765   3.479  15.591  0.4183  0.0789 -0.1533
 6823TIP3    H141884   5.695   3.462  15.653 -0.1079 -1.0957 -1.0277
 6823TIP3    H241885   5.783   3.573  15.599 -0.9589  0.3093  0.3904
 6824TIP3   OH241886   4.346   1.042  12.057 -0.0315  0.7259 -0.2624
 6824TIP3    H141887   4.313   1.125  12.023 -0.4458  1.0608  0.9106
 6824TIP3    H241888   4.423   1.022  12.003 -1.3955  0.5541 -2.2337
 6825TIP3   OH241889   3.804   1.763   4.602  0.1464  0.1895 -0.1886
 6825TIP3    H141890   3.772   1.853   4.614  0.2275  0.1003  0.8017
 6825TIP3    H241891   3.846   1.741   4.685 -0.0868 -0.8561 -0.3280
 6826TIP3   OH241892   5.032   3.263  13.058 -0.2625  0.1134 -0.3734
 6826TIP3    H141893   5.042   3.168  13.065 -1.7691 -0.1752 -1.5586
 6826TIP3    H241894   5.121   3.297  13.062  0.4385 -1.4707 -1.4539
 6827TIP3   OH241895   6.686   2.510   5.149 -0.2311  0.5327 -0.4152
 6827TIP3    H141896   6.633   2.432   5.139  1.0822 -0.3115 -1.2252
 6827TIP3    H241897   6.652   2.554   5.226  0.7199 -2.2744  1.7741
 6828TIP3   OH241898   3.450   5.584  16.442  0.0634  0.1524 -0.1221
 6828TIP3    H141899   3.458   5.642  16.518  0.8971 -1.3973  1.0294
 6828TIP3    H241900   3.502   5.626  16.374 -0.6029  1.5167  0.1661
 6829TIP3   OH241901   6.381   2.025  14.051 -0.1385 -0.0482 -0.1712
 6829TIP3    H141902   6.367   1.931  14.053  0.8617 -0.4018 -3.1528
 6829TIP3    H241903   6.468   2.037  14.090 -0.8032 -0.1601  1.3910
 6830TIP3   OH241904   6.605   6.367   3.549 -0.2122 -0.0613 -0.2587
 6830TIP3    H141905   6.680   6.399   3.499  1.0249 -1.3500  0.6892
 6830TIP3    H241906   6.614   6.408   3.635  2.3056 -3.7801  1.5396
 6831TIP3   OH241907   6.410   0.059   2.160 -0.0186  0.1246  0.2127
 6831TIP3    H141908   6.460   0.140   2.147 -2.3247  1.4052 -1.5044
 6831TIP3    H241909   6.374   0.040   2.073 -1.6459 -1.2934  1.1476
 6832TIP3   OH241910   3.572   4.633  15.569  0.3213 -1.1532  0.3812
 6832TIP3    H141911   3.612   4.711  15.605  0.7033 -1.6943  1.1503
 6832TIP3    H241912   3.634   4.603  15.502 -0.0986 -0.4926 -0.3239
 6833TIP3   OH241913   5.460   5.709  14.928 -0.0356  0.3193  0.3584
 6833TIP3    H141914   5.516   5.754  14.991  1.4853 -1.0280  0.0422
 6833TIP3    H241915   5.370   5.728  14.957  0.5838 -1.1313  3.5820
 6834TIP3   OH241916   5.366   6.203  16.752  0.1737 -0.0006  0.0712
 6834TIP3    H141917   5.297   6.184  16.689 -0.1812  0.9022  0.1765
 6834TIP3    H241918   5.334   6.277  16.802  1.2951  0.5712 -0.0090
 6835TIP3   OH241919   6.383   3.283  17.135 -0.0833 -0.0986 -0.0035
 6835TIP3    H141920   6.446   3.239  17.192 -0.3968 -0.4369  0.0844
 6835TIP3    H241921   6.428   3.363  17.107 -0.2439  0.5345  1.4353
 6836TIP3   OH241922   3.297   0.851   2.623 -0.1516  0.2676  0.3012
 6836TIP3    H141923   3.281   0.941   2.651  2.0475  1.3311 -1.5065
 6836TIP3    H241924   3.342   0.810   2.697 -1.6273  0.4373  1.3352
 6837TIP3   OH241925   5.230   0.361  14.560 -0.5459  0.2704  0.1475
 6837TIP3    H141926   5.309   0.373  14.507 -1.1945  1.2194 -0.6332
 6837TIP3    H241927   5.247   0.281  14.610  0.9896  0.5724  0.1557
 6838TIP3   OH241928   1.576   3.132  16.508  0.1010  0.3782  0.1978
 6838TIP3    H141929   1.599   3.041  16.490  0.8277  1.0897 -3.3034
 6838TIP3    H241930   1.490   3.143  16.467 -0.1086  1.2059  0.8433
 6839TIP3   OH241931   6.014   3.990  13.262 -0.7082 -0.2971 -0.0943
 6839TIP3    H141932   5.951   4.004  13.333 -0.4256  1.8825 -0.2190
 6839TIP3    H241933   6.098   4.018  13.299 -0.4776  0.4205 -1.1225
 6840TIP3   OH241934   5.729   6.747  13.515  0.0532 -0.3504 -0.0903
 6840TIP3    H141935   5.658   6.804  13.486 -0.7712  0.1375  2.5901
 6840TIP3    H241936   5.803   6.807  13.530 -0.3275 -0.1538  1.1816
 6841TIP3   OH241937   1.193   3.453   3.233  0.0961 -0.0413  0.6317
 6841TIP3    H141938   1.217   3.526   3.290 -0.2078  0.7629 -0.2424
 6841TIP3    H241939   1.165   3.494   3.152 -0.1073 -1.1388  0.1240
 6842TIP3   OH241940   6.011   4.930   4.761  0.7166  0.5755 -0.0071
 6842TIP3    H141941   5.963   4.971   4.689 -0.2545  2.3313  1.5601
 6842TIP3    H241942   6.054   5.002   4.806  2.4248 -0.6411  0.4114
 6843TIP3   OH241943   5.106   5.738  14.207  0.6865 -0.2776  0.1960
 6843TIP3    H141944   5.118   5.651  14.246  0.1621 -1.2112 -1.6261
 6843TIP3    H241945   5.038   5.778  14.261  1.9093 -0.4124  1.9175
 6844TIP3   OH241946   6.530   4.366  15.217 -0.1309 -0.1785  0.2786
 6844TIP3    H141947   6.622   4.367  15.194 -0.5372  0.2840 -1.5048
 6844TIP3    H241948   6.518   4.286  15.267  1.0014 -0.8617 -0.4999
 6845TIP3   OH241949   5.244   4.661   4.663 -0.2618 -0.0132  0.7330
 6845TIP3    H141950   5.174   4.727   4.663 -0.0060  0.2627  1.4906
 6845TIP3    H241951   5.198   4.578   4.648 -0.5267  0.3702 -0.7568
 6846TIP3   OH241952   0.683   2.839   5.430  0.3655  0.1920  0.7714
 6846TIP3    H141953   0.667   2.931   5.412  1.1412  0.5563  1.8070
 6846TIP3    H241954   0.597   2.802   5.447 -0.0506  0.4973 -0.5815
 6847TIP3   OH241955   6.634   1.275  16.144  0.3963 -0.0976  0.5614
 6847TIP3    H141956   6.720   1.305  16.114  0.2563 -1.0071 -0.8523
 6847TIP3    H241957   6.572   1.318  16.086  0.1813 -2.7674 -1.4203
 6848TIP3   OH241958   0.050   5.280  12.949 -0.4366  0.4594 -0.6073
 6848TIP3    H141959  -0.039   5.254  12.921 -0.6732  0.5236  0.0674
 6848TIP3    H241960   0.078   5.208  13.006 -0.0734  0.4687 -0.7752
 6849TIP3   OH241961   3.666   0.866   0.855 -0.2314  0.7968  0.1380
 6849TIP3    H141962   3.592   0.889   0.911 -0.7133  2.0153 -0.9485
 6849TIP3    H241963   3.636   0.791   0.805 -0.6226  1.0923 -0.0713
 6850TIP3   OH241964   0.340   6.463   0.661  0.0604  0.0897 -0.2989
 6850TIP3    H141965   0.326   6.556   0.640 -1.0158 -0.2258 -1.0310
 6850TIP3    H241966   0.279   6.445   0.733  1.8112  0.4677  1.3837
 6851TIP3   OH241967   6.058   4.289   2.762 -0.4352 -0.4492  0.2225
 6851TIP3    H141968   6.090   4.262   2.675 -1.0315 -2.2696  0.5194
 6851TIP3    H241969   5.998   4.219   2.787  0.6314 -0.6028  2.6248
 6852TIP3   OH241970   6.742   0.586   0.800 -0.8329  0.3342 -0.1367
 6852TIP3    H141971   6.800   0.653   0.763  2.4434 -1.8336  0.6201
 6852TIP3    H241972   6.750   0.598   0.895  1.3436 -2.1392  0.0892
 6853TIP3   OH241973   0.754   6.466  12.353 -0.1121 -0.3181 -0.2206
 6853TIP3    H141974   0.672   6.502  12.320 -1.4068  0.1673  3.0798
 6853TIP3    H241975   0.733   6.376  12.377 -0.1188  0.1480  1.7285
 6854TIP3   OH241976   3.380   3.141  15.404  0.0610 -0.1394  0.2522
 6854TIP3    H141977   3.318   3.117  15.472 -0.4839  0.3312 -0.0688
 6854TIP3    H241978   3.366   3.234  15.389  0.3322 -0.1826 -0.3387
 6855TIP3   OH241979   3.260   5.549  11.690  0.9961  0.8763 -0.8559
 6855TIP3    H141980   3.295   5.505  11.612  0.5458 -2.3769  0.6024
 6855TIP3    H241981   3.319   5.523  11.761 -0.7734  0.4680  0.5426
 6856TIP3   OH241982   5.338   5.058  13.889 -0.1329  0.6810  0.0851
 6856TIP3    H141983   5.429   5.030  13.900  0.3628  1.6391 -1.2951
 6856TIP3    H241984   5.340   5.117  13.813 -2.0216  0.1933 -0.3901
 6857TIP3   OH241985   2.953   6.301  12.924  0.1732  0.4258 -1.0658
 6857TIP3    H141986   2.982   6.230  12.866  0.4595 -0.1771 -0.1943
 6857TIP3    H241987   3.017   6.302  12.995  1.3764  2.9114 -2.0773
 6858TIP3   OH241988   6.419   0.114  15.154  0.1772 -0.0737 -0.0510
 6858TIP3    H141989   6.427   0.182  15.087  1.4027 -0.3079 -0.1611
 6858TIP3    H241990   6.503   0.069  15.152 -0.4987 -1.3854  0.2507
 6859TIP3   OH241991   4.748   3.712  13.139 -0.5768  1.0059 -0.1316
 6859TIP3    H141992   4.709   3.776  13.200 -1.3613  2.1384 -1.7493
 6859TIP3    H241993   4.810   3.763  13.087 -1.9304  0.7460 -2.1217
 6860TIP3   OH241994   2.274   2.355  13.488  0.4746 -0.3852  0.1780
 6860TIP3    H141995   2.295   2.262  13.495  1.9479 -0.2408 -1.7088
 6860TIP3    H241996   2.359   2.399  13.477 -0.3287  0.9268 -1.2035
 6861TIP3   OH241997   0.044   6.651  11.352  0.5953  0.4223 -0.3461
 6861TIP3    H141998   0.111   6.585  11.333 -0.3439 -0.2970 -1.2844
 6861TIP3    H241999   0.046   6.709  11.275  1.4156  1.5287  0.4717
 6862TIP3   OH242000   4.441   2.500  14.395  0.2011 -0.1086  0.4685
 6862TIP3    H142001   4.447   2.565  14.465 -0.0684  0.7520 -0.2984
 6862TIP3    H242002   4.375   2.534  14.336 -0.3979 -1.3913  0.3578
 6863TIP3   OH242003   6.112   2.695   3.333 -0.2429 -0.6339  0.3567
 6863TIP3    H142004   6.053   2.647   3.276 -1.1710  0.8563  0.0103
 6863TIP3    H242005   6.057   2.760   3.376  0.7272 -0.7032  1.7879
 6864TIP3   OH242006   0.249   1.220   3.680 -0.0365  0.1322 -0.4667
 6864TIP3    H142007   0.173   1.252   3.729  0.9627 -2.1868  3.0471
 6864TIP3    H242008   0.320   1.280   3.703 -0.5446  2.1164 -3.5026
 6865TIP3   OH242009   2.176   3.878   3.739 -0.7042 -0.0858  0.3874
 6865TIP3    H142010   2.146   3.967   3.725  0.5543  0.2679 -0.2120
 6865TIP3    H242011   2.166   3.835   3.654  1.1505  0.2699 -0.0530
 6866TIP3   OH242012   3.015   4.638   4.744 -0.5487 -0.1135 -0.4092
 6866TIP3    H142013   3.105   4.649   4.773 -0.2416 -1.1857 -0.9075
 6866TIP3    H242014   3.022   4.602   4.656 -1.4801  1.6998 -1.2826
 6867TIP3   OH242015   2.229   0.194   2.502 -0.2072  0.2535 -0.0812
 6867TIP3    H142016   2.236   0.170   2.410  1.5567  1.7246 -0.3921
 6867TIP3    H242017   2.148   0.152   2.532  0.2054 -1.8991 -1.7459
 6868TIP3   OH242018   6.100   1.541  12.398 -0.1166  0.0334  0.7875
 6868TIP3    H142019   6.189   1.541  12.363 -0.0748  0.7615  0.8896
 6868TIP3    H242020   6.087   1.451  12.430  0.4171 -0.1953  0.3669
 6869TIP3   OH242021   5.939   2.931  14.417  0.1716  0.5989  0.6377
 6869TIP3    H142022   5.871   2.977  14.369  0.5384  0.9073  0.4039
 6869TIP3    H242023   5.925   2.954  14.509 -0.9944 -0.5924  0.7866
 6870TIP3   OH242024   3.820   4.452   2.910 -0.0147 -0.2579 -0.1453
 6870TIP3    H142025   3.830   4.357   2.910  0.1862 -0.2570  1.1806
 6870TIP3    H242026   3.801   4.474   2.819  1.4615 -1.4025 -0.7794
 6871TIP3   OH242027   4.229   1.185  16.085  0.5285  0.6303  0.0284
 6871TIP3    H142028   4.164   1.253  16.098  0.6656  0.7903 -0.1161
 6871TIP3    H242029   4.233   1.173  15.991 -0.8796 -0.9331  0.1365
 6872TIP3   OH242030   5.636   6.384  11.805  0.0629 -0.6627 -0.0979
 6872TIP3    H142031   5.648   6.311  11.865 -0.2904 -1.1718 -0.6355
 6872TIP3    H242032   5.557   6.363  11.756  1.0843 -0.9593 -1.7047
 6873TIP3   OH242033   3.902   2.605   3.020 -0.0704 -0.4568 -0.5746
 6873TIP3    H142034   3.946   2.631   3.100  0.8649 -1.3597 -0.7688
 6873TIP3    H242035   3.810   2.594   3.045  0.2606 -0.9896  0.4464
 6874TIP3   OH242036   3.762   5.273   6.420  0.0746 -0.4670 -0.6774
 6874TIP3    H142037   3.812   5.247   6.343 -0.0258 -0.2750 -0.8067
 6874TIP3    H242038   3.751   5.192   6.470  2.4969 -0.1514  0.5194
 6875TIP3   OH242039   4.124   3.438  15.596 -0.3095  0.6770  0.1039
 6875TIP3    H142040   4.087   3.442  15.684 -1.6218  0.0117 -0.3934
 6875TIP3    H242041   4.196   3.376  15.603 -0.8498  0.0952  0.5651
 6876TIP3   OH242042   3.067   4.960   2.078  0.0445  0.3614 -0.3191
 6876TIP3    H142043   3.032   4.925   2.160 -0.4424  2.1633  0.2955
 6876TIP3    H242044   2.993   4.957   2.017 -0.3886  1.4546  0.1191
 6877TIP3   OH242045   4.922   3.977   0.769  0.3220  0.4171 -0.1765
 6877TIP3    H142046   4.975   3.922   0.710  0.2554  0.9258 -0.7240
 6877TIP3    H242047   4.832   3.949   0.753  0.4753 -1.5677  1.9094
 6878TIP3   OH242048   4.825   5.475  13.518 -0.0776 -0.1712 -0.1078
 6878TIP3    H142049   4.885   5.536  13.560 -1.9504  0.3379  2.0286
 6878TIP3    H242050   4.879   5.399  13.496  0.9028 -1.1551  4.7136
 6879TIP3   OH242051   5.011   1.360  12.240  0.0429  0.4625  0.2358
 6879TIP3    H142052   4.931   1.313  12.265  0.5119 -0.7202 -0.4104
 6879TIP3    H242053   5.068   1.352  12.316 -0.3591  1.1049  0.6090
 6880TIP3   OH242054   3.984   4.252  12.533  0.0864  0.4382  0.1161
 6880TIP3    H142055   3.896   4.287  12.528  0.0176  0.2067 -0.4054
 6880TIP3    H242056   4.041   4.329  12.527  0.0012  0.3964 -3.5280
 6881TIP3   OH242057   4.043   0.634  16.611  0.6470 -0.6307 -0.0633
 6881TIP3    H142058   3.977   0.668  16.672  0.8416 -1.5902  0.7121
 6881TIP3    H242059   4.000   0.636  16.526 -0.0786 -0.4439  0.2974
 6882TIP3   OH242060   2.885   1.329   2.868  0.1269 -0.3244 -0.1864
 6882TIP3    H142061   2.852   1.240   2.883  1.1932 -0.6976  0.0836
 6882TIP3    H242062   2.916   1.357   2.954  0.2843  0.1022 -0.3835
 6883TIP3   OH242063   0.377   5.619   1.577  0.2108 -0.0382 -0.5599
 6883TIP3    H142064   0.344   5.534   1.548  2.1803 -0.5362 -1.5290
 6883TIP3    H242065   0.301   5.678   1.571 -1.2260 -1.7239  0.2927
 6884TIP3   OH242066   5.516   3.945  14.994 -0.0210  0.3537 -0.2969
 6884TIP3    H142067   5.557   4.026  14.964 -2.0671  2.7892  2.8560
 6884TIP3    H242068   5.427   3.948  14.959 -0.1795 -0.4446  0.0108
 6885TIP3   OH242069   6.389   1.667   3.542 -0.1867  0.6089 -0.1650
 6885TIP3    H142070   6.342   1.585   3.529 -0.0947  0.5025  0.1748
 6885TIP3    H242071   6.339   1.713   3.610 -0.2081  0.8112 -0.3158
 6886TIP3   OH242072   5.433   3.828   0.254  0.0889 -0.5969 -0.1228
 6886TIP3    H142073   5.355   3.871   0.291  0.0083 -2.5981  2.3487
 6886TIP3    H242074   5.506   3.863   0.306  0.6105 -0.1649 -1.1253
 6887TIP3   OH242075   2.920   6.514  14.130 -0.3718  0.4060 -0.3233
 6887TIP3    H142076   2.825   6.519  14.135 -0.3678  1.4081 -0.9730
 6887TIP3    H242077   2.937   6.466  14.049 -0.3250  0.2543 -0.2238
 6888TIP3   OH242078   5.525   0.039   3.607 -0.4794 -0.2834 -0.3591
 6888TIP3    H142079   5.440   0.025   3.649  0.2716 -0.5273  1.1360
 6888TIP3    H242080   5.566   0.108   3.659  0.4050 -0.4517 -0.8156
 6889TIP3   OH242081   3.071   5.928  15.697  0.3975  0.4815  0.3032
 6889TIP3    H142082   3.012   5.860  15.668  1.9879 -0.1875 -1.5601
 6889TIP3    H242083   3.034   6.009  15.662  0.5908  0.0560 -0.9359
 6890TIP3   OH242084   1.059   4.849  15.132  0.6312  0.1114  0.2662
 6890TIP3    H142085   1.064   4.894  15.216 -0.6662 -1.8922  1.4717
 6890TIP3    H242086   1.074   4.757  15.152  0.6705 -0.3791 -1.7588
 6891TIP3   OH242087   1.051   6.673   0.336  0.2230 -0.0798  0.1893
 6891TIP3    H142088   1.090   6.611   0.398 -2.6738 -1.5891  0.6322
 6891TIP3    H242089   1.123   6.696   0.277  2.4925 -0.4088  2.6450
 6892TIP3   OH242090   2.278   6.607  16.361 -1.1384  0.0034  0.1744
 6892TIP3    H142091   2.321   6.688  16.390 -2.5098  0.6711  0.4345
 6892TIP3    H242092   2.322   6.585  16.279  0.7540 -0.2345  1.1984
 6893TIP3   OH242093   0.045   3.239  15.226  0.2650 -0.0109 -0.1122
 6893TIP3    H142094   0.080   3.276  15.308 -0.2422 -0.6127  0.3880
 6893TIP3    H242095   0.086   3.153  15.219  2.4375  1.0745 -1.9396
 6894TIP3   OH242096   1.347   6.318   3.087  0.4544  0.0326 -0.4705
 6894TIP3    H142097   1.357   6.243   3.146 -1.2397  1.1060  1.3030
 6894TIP3    H242098   1.432   6.362   3.089  0.7127 -0.4752  0.4322
 6895TIP3   OH242099   3.552   4.701   0.490  0.1906 -0.2884  0.2750
 6895TIP3    H142100   3.572   4.791   0.465 -0.2897 -0.5712 -1.2015
 6895TIP3    H242101   3.638   4.662   0.505  0.4286  0.2631  0.3857
 6896TIP3   OH242102   5.695   5.960   4.556  0.9982 -0.9876  0.1533
 6896TIP3    H142103   5.758   5.899   4.518 -0.1946 -0.9513 -2.0412
 6896TIP3    H242104   5.611   5.914   4.549  0.4177 -0.0287  0.6792
 6897TIP3   OH242105   0.677   4.479  13.899  0.1032 -0.0989  0.3370
 6897TIP3    H142106   0.771   4.479  13.886 -0.0981 -0.8051 -1.3810
 6897TIP3    H242107   0.658   4.392  13.935  0.0172 -0.3266 -0.2423
 6898TIP3   OH242108   4.825   1.516  17.274 -0.1619 -0.2688  0.4406
 6898TIP3    H142109   4.812   1.437  17.221 -1.1789  0.7029 -0.8160
 6898TIP3    H242110   4.869   1.484  17.354 -2.3857 -2.4336  0.9281
 6899TIP3   OH242111   3.938   6.218  13.467  0.2020  0.4286  0.3171
 6899TIP3    H142112   4.003   6.199  13.400 -1.3671 -3.2452 -0.4363
 6899TIP3    H242113   3.981   6.279  13.526  2.6480  1.6656 -2.4868
 6900TIP3   OH242114   5.362   6.613  13.822  0.2523  0.3100 -0.0497
 6900TIP3    H142115   5.274   6.652  13.829 -0.3087 -1.0791  1.1925
 6900TIP3    H242116   5.417   6.670  13.875  0.1963  1.3725 -1.0862
 6901TIP3   OH242117   5.712   4.311  14.325 -0.1111 -0.2632 -0.5830
 6901TIP3    H142118   5.686   4.313  14.233 -0.5198  0.0270 -0.4652
 6901TIP3    H242119   5.795   4.357  14.328  0.9123 -2.0008 -1.1133
 6902TIP3   OH242120   3.929   3.165  15.886 -0.0965  0.1239 -0.4785
 6902TIP3    H142121   3.881   3.180  15.967  0.9822  1.5117 -0.0511
 6902TIP3    H242122   3.985   3.089  15.905  1.0850  1.1981  0.5674
 6903TIP3   OH242123   3.615   6.072  16.948 -0.0301 -0.2436 -0.2719
 6903TIP3    H142124   3.593   6.090  16.857  0.8310  1.4997 -0.1901
 6903TIP3    H242125   3.562   6.134  16.998  0.9525  0.1969  0.2574
 6904TIP3   OH242126   0.948   1.476   5.718 -0.2557  0.4449 -0.3059
 6904TIP3    H142127   0.869   1.464   5.770 -0.2941  2.4755  0.2074
 6904TIP3    H242128   0.973   1.388   5.690 -2.4839 -0.2755 -0.1849
 6905TIP3   OH242129   1.158   1.900  15.104 -0.7692  0.1377  0.1538
 6905TIP3    H142130   1.097   1.972  15.090 -0.8812 -0.0100 -0.1157
 6905TIP3    H242131   1.178   1.868  15.016 -0.0972  0.3553  0.2222
 6906TIP3   OH242132   3.809   2.410  16.685  0.2400  0.5015 -0.7004
 6906TIP3    H142133   3.810   2.505  16.694  0.4545  0.3764  0.8761
 6906TIP3    H242134   3.816   2.377  16.775 -0.4416 -1.0078 -1.1646
 6907TIP3   OH242135   4.191   2.294   2.111 -0.5469  0.3267  0.1540
 6907TIP3    H142136   4.223   2.369   2.161  1.2194 -0.0246 -0.4076
 6907TIP3    H242137   4.095   2.302   2.116 -0.4734  0.3950  3.4069
 6908TIP3   OH242138   2.171   2.286  11.558  0.3379  0.3923 -0.5645
 6908TIP3    H142139   2.211   2.205  11.526  1.4624  1.0227 -0.7953
 6908TIP3    H242140   2.079   2.263  11.572  1.0651 -1.6033  1.6172
 6909TIP3   OH242141   1.030   3.603  11.809 -0.2925 -0.4593  0.2337
 6909TIP3    H142142   0.964   3.648  11.756  0.5593  2.8040  1.6966
 6909TIP3    H242143   0.989   3.592  11.895 -0.3671 -2.3430 -0.0014
 6910TIP3   OH242144   0.555   1.327  14.383  0.3805  0.5860  0.4001
 6910TIP3    H142145   0.637   1.346  14.429  0.8224 -1.5183  0.5894
 6910TIP3    H242146   0.548   1.232  14.386 -1.8608  0.6871 -0.0208
 6911TIP3   OH242147   0.929   3.000  11.982 -0.0236  0.0444  0.6002
 6911TIP3    H142148   0.921   3.037  12.070 -1.0243 -2.3804  1.6464
 6911TIP3    H242149   0.927   3.075  11.923  2.6364  1.9377  2.6792
 6912TIP3   OH242150   3.788   6.551   4.779 -0.0417  0.1611 -0.6283
 6912TIP3    H142151   3.873   6.570   4.819 -0.7370  1.3880  0.3575
 6912TIP3    H242152   3.732   6.624   4.807 -1.9743 -1.6328  0.4684
 6913TIP3   OH242153   4.276   3.316   4.064 -0.2374 -0.0028 -0.0701
 6913TIP3    H142154   4.190   3.280   4.044 -0.5691  0.6544  0.1396
 6913TIP3    H242155   4.337   3.264   4.012 -0.6521 -1.1631  0.5804
 6914TIP3   OH242156   6.600   0.545  11.768 -0.1384  0.6022 -0.6170
 6914TIP3    H142157   6.623   0.635  11.742  0.0251  0.7973  0.1758
 6914TIP3    H242158   6.566   0.554  11.857  2.4078 -0.4371  0.5633
 6915TIP3   OH242159   2.020   5.780   1.849 -0.5599  0.5509 -0.4561
 6915TIP3    H142160   1.975   5.762   1.932  1.2745  1.1678  0.7386
 6915TIP3    H242161   1.981   5.861   1.817 -1.2402  0.3458 -0.1669
 6916TIP3   OH242162   4.840   1.282  15.238  0.1604  0.5430 -0.5696
 6916TIP3    H142163   4.834   1.356  15.299  2.5076  2.3772 -2.3524
 6916TIP3    H242164   4.803   1.315  15.157  0.7514 -0.4247 -1.2502
 6917TIP3   OH242165   2.321   0.493   2.930  0.2652 -0.0428  0.0098
 6917TIP3    H142166   2.415   0.481   2.944  0.4283  0.7183 -0.3838
 6917TIP3    H242167   2.286   0.515   3.016  0.6155  0.6913 -0.0351
 6918TIP3   OH242168   2.614   5.920   5.199 -0.6398 -0.3602  0.3898
 6918TIP3    H142169   2.647   5.863   5.129 -1.6470 -0.2346 -0.2081
 6918TIP3    H242170   2.537   5.874   5.231 -0.3601 -0.2599  1.2204
 6919TIP3   OH242171   5.419   2.613  15.141 -0.2133 -0.5046  0.5263
 6919TIP3    H142172   5.400   2.521  15.153  1.7552 -1.3104 -1.6188
 6919TIP3    H242173   5.515   2.619  15.146 -0.3687  1.8806  3.0376
 6920TIP3   OH242174   3.062   5.362  13.878  0.2720  0.6572 -0.9436
 6920TIP3    H142175   3.143   5.409  13.898  0.7947 -0.6876  0.2312
 6920TIP3    H242176   2.994   5.411  13.925  0.6873  0.6953 -0.3762
 6921TIP3   OH242177   5.709   2.634   4.353  0.4790  0.1236  0.3178
 6921TIP3    H142178   5.779   2.697   4.336 -0.3549  2.1381  3.4692
 6921TIP3    H242179   5.671   2.663   4.436 -3.4955 -1.4306 -0.7601
 6922TIP3   OH242180   3.985   4.990  12.809 -0.1116  0.2958  0.4118
 6922TIP3    H142181   4.041   5.047  12.755  0.7556  0.3404  1.3193
 6922TIP3    H242182   4.014   5.008  12.899 -2.2131  0.9956  1.0053
 6923TIP3   OH242183   2.778   2.133  15.589 -0.1931  0.2060 -0.1393
 6923TIP3    H142184   2.702   2.185  15.562 -0.4950 -0.4209 -0.5106
 6923TIP3    H242185   2.782   2.061  15.526 -0.5032 -0.9200  1.0762
 6924TIP3   OH242186   0.441   1.146  13.484 -0.1158 -0.4963 -0.1201
 6924TIP3    H142187   0.435   1.162  13.578  1.3402  0.7593 -0.2191
 6924TIP3    H242188   0.400   1.222  13.444 -1.0665 -1.1971 -0.5342
 6925TIP3   OH242189   4.227   4.014  13.086 -0.2942 -0.1246  0.0915
 6925TIP3    H142190   4.220   4.057  13.001  1.0341  0.4915  0.2656
 6925TIP3    H242191   4.284   3.939  13.071  0.3060  0.2392  0.5197
 6926TIP3   OH242192   2.821   4.850   4.855  0.1088 -0.1463 -0.2530
 6926TIP3    H142193   2.841   4.817   4.943  0.0809  0.6783  0.0787
 6926TIP3    H242194   2.887   4.918   4.840 -0.2105  0.0752 -0.6608
 6927TIP3   OH242195   6.249   0.863  12.525  0.2662  0.8240  0.0630
 6927TIP3    H142196   6.272   0.879  12.433  1.7265 -0.9186  0.0503
 6927TIP3    H242197   6.333   0.860  12.570 -0.2656 -0.4949  1.0437
 6928TIP3   OH242198   6.681   1.305  15.204  0.3546 -0.2021  0.4468
 6928TIP3    H142199   6.733   1.279  15.127 -0.7765  1.7318 -1.0615
 6928TIP3    H242200   6.740   1.361  15.254  0.1850  0.9599 -0.6033
 6929TIP3   OH242201   6.381   0.483  13.923 -0.9114  0.5561 -0.1955
 6929TIP3    H142202   6.323   0.558  13.940 -1.2738  0.3227 -0.3775
 6929TIP3    H242203   6.422   0.503  13.839 -0.3845  0.9325  0.1504
 6930TIP3   OH242204   0.481   2.316   3.899 -0.4823  0.5553 -0.1403
 6930TIP3    H142205   0.533   2.380   3.947 -0.1797 -0.0337  0.3416
 6930TIP3    H242206   0.429   2.272   3.967 -0.5150  0.1381 -0.4281
 6931TIP3   OH242207   5.996   2.971  10.537 -0.0722  0.1160 -0.4075
 6931TIP3    H142208   5.999   3.061  10.569  2.0750 -0.8636  2.6442
 6931TIP3    H242209   5.929   2.929  10.591 -1.0471 -0.1922 -1.8007
 6932TIP3   OH242210   1.866   5.900  15.979  0.1407 -0.8443 -0.1351
 6932TIP3    H142211   1.860   5.810  16.012  0.1000 -0.2009  1.7057
 6932TIP3    H242212   1.957   5.909  15.950  0.9769 -0.6751  2.2981
 6933TIP3   OH242213   6.340   5.201  16.028 -0.1675 -0.9539  0.4120
 6933TIP3    H142214   6.262   5.250  16.000 -0.0842  0.4926  2.4902
 6933TIP3    H242215   6.412   5.239  15.977 -0.5248 -0.8606 -0.0260
 6934TIP3   OH242216   2.812   1.190   6.175 -0.0559 -0.0745 -0.1278
 6934TIP3    H142217   2.851   1.254   6.235  1.0364 -0.9969  0.1890
 6934TIP3    H242218   2.729   1.167   6.216 -0.4447  1.0687 -0.2161
 6935TIP3   OH242219   6.300   1.278  12.229 -0.5154 -0.0585 -0.2054
 6935TIP3    H142220   6.312   1.221  12.154 -0.9060 -0.1231 -0.2187
 6935TIP3    H242221   6.222   1.329  12.209 -1.2424 -0.8183  0.6178
 6936TIP3   OH242222   1.477   5.869  17.092 -0.9150  0.0971 -0.2556
 6936TIP3    H142223   1.446   5.957  17.072 -1.2044  0.1465  0.3962
 6936TIP3    H242224   1.551   5.856  17.032 -0.0643  1.2618  0.4965
 6937TIP3   OH242225   3.503   0.272   3.211  0.8596 -0.4841  0.1382
 6937TIP3    H142226   3.548   0.188   3.222  0.6476 -0.7338 -0.8367
 6937TIP3    H242227   3.566   0.337   3.241  1.1154 -0.9670  0.6839
 6938TIP3   OH242228   4.314   5.643  13.064  0.5054  0.1566 -0.1208
 6938TIP3    H142229   4.325   5.548  13.063  1.6331  0.2619  0.3664
 6938TIP3    H242230   4.304   5.666  13.157  1.1619  0.5949 -0.1498
 6939TIP3   OH242231   1.053   2.298  13.922 -0.0276  0.0919  0.1584
 6939TIP3    H142232   1.106   2.377  13.930  0.7410 -0.3405 -0.5143
 6939TIP3    H242233   1.018   2.300  13.833 -0.8540  0.1855  0.4737
 6940TIP3   OH242234   3.217   0.339   5.100 -0.3768 -0.1050 -0.7720
 6940TIP3    H142235   3.262   0.269   5.053 -1.0731 -1.3888  0.4155
 6940TIP3    H242236   3.127   0.307   5.111 -0.7135  0.9762 -0.1909
 6941TIP3   OH242237   2.237   6.614  11.798  0.2485 -0.1563  0.3953
 6941TIP3    H142238   2.281   6.614  11.713  0.3548 -0.2270  0.4498
 6941TIP3    H242239   2.309   6.609  11.862  0.1212 -1.4671  0.4641
 6942TIP3   OH242240   2.392   6.572  14.870  0.4650 -0.2112 -0.1638
 6942TIP3    H142241   2.443   6.546  14.947  0.8172 -0.6878 -0.5545
 6942TIP3    H242242   2.301   6.553  14.894  0.3262  1.6019  0.9333
 6943TIP3   OH242243   3.765   3.658   3.290  0.0357  0.7105  0.1744
 6943TIP3    H142244   3.795   3.740   3.251 -0.5701  0.4041 -0.9892
 6943TIP3    H242245   3.711   3.686   3.364  0.1393  1.3548  0.0156
 6944TIP3   OH242246   2.749   5.240  12.107  0.1573  0.4955  0.5685
 6944TIP3    H142247   2.784   5.289  12.033 -0.8804 -1.1170 -1.0927
 6944TIP3    H242248   2.668   5.287  12.130 -0.2325  0.2426 -0.2492
 6945TIP3   OH242249   3.237   3.617  13.038 -0.5236 -0.4853  0.2712
 6945TIP3    H142250   3.142   3.623  13.036 -0.4544  1.1576  0.9169
 6945TIP3    H242251   3.262   3.602  12.946 -1.3520 -0.2483 -0.0008
 6946TIP3   OH242252   5.113   1.680  13.765  0.6203 -0.2983 -0.2551
 6946TIP3    H142253   5.106   1.607  13.704 -0.2118 -0.0431 -0.4845
 6946TIP3    H242254   5.203   1.677  13.797  0.2792 -2.1498  0.6510
 6947TIP3   OH242255   4.590   2.702   6.351  0.4388  0.1210 -0.3682
 6947TIP3    H142256   4.576   2.610   6.331 -0.9103  0.3563 -0.6161
 6947TIP3    H242257   4.514   2.728   6.403 -0.2857  1.5791 -2.0422
 6948TIP3   OH242258   3.530   2.905   4.656  0.2410  0.0025  0.2967
 6948TIP3    H142259   3.616   2.928   4.690 -0.1553  0.6356  0.8944
 6948TIP3    H242260   3.540   2.815   4.625  1.1515  0.1171  0.2186
 6949TIP3   OH242261   6.022   0.081  15.337  0.3030 -1.0098  0.4309
 6949TIP3    H142262   6.105   0.035  15.321 -0.4141 -2.1062 -0.3131
 6949TIP3    H242263   5.956   0.021  15.303 -0.7191  0.3851 -0.1142
 6950TIP3   OH242264   0.402   4.542  14.086  0.2614  0.3238 -0.4900
 6950TIP3    H142265   0.456   4.503  14.017  1.7285 -0.5826  1.0919
 6950TIP3    H242266   0.385   4.631  14.056  0.8370 -0.0507 -2.0229
 6951TIP3   OH242267   5.881   4.358   2.164 -0.2750  0.4923  0.3477
 6951TIP3    H142268   5.877   4.367   2.259 -0.2397 -0.9613  0.5075
 6951TIP3    H242269   5.967   4.391   2.140  0.0276  0.1205  0.9164
 6952TIP3   OH242270   4.717   3.542   4.926 -0.5147 -0.1799  0.1402
 6952TIP3    H142271   4.743   3.501   5.009  1.8376  1.2339  0.2068
 6952TIP3    H242272   4.755   3.485   4.859  2.3495  1.4531  0.2246
 6953TIP3   OH242273   5.801   6.671   6.294  0.3373 -0.5174 -0.1396
 6953TIP3    H142274   5.740   6.732   6.336  0.8143  0.8614 -1.3376
 6953TIP3    H242275   5.880   6.675   6.348 -0.0285 -0.9781  0.4387
 6954TIP3   OH242276   5.268   6.501  11.972  0.1430  0.5361  0.2691
 6954TIP3    H142277   5.346   6.527  12.022 -0.7718  1.4977  1.2300
 6954TIP3    H242278   5.284   6.536  11.884  1.4758 -0.6076  0.0209
 6955TIP3   OH242279   3.517   3.961   2.146 -0.3199  0.2190  0.5973
 6955TIP3    H142280   3.446   3.923   2.095 -0.6824  1.8048 -0.1323
 6955TIP3    H242281   3.597   3.925   2.106 -0.5461  2.1891 -1.8256
 6956TIP3   OH242282   1.464   2.428   1.085  0.0359  0.0227 -0.2745
 6956TIP3    H142283   1.490   2.443   1.175  0.2782 -0.6203 -0.2308
 6956TIP3    H242284   1.403   2.354   1.090 -1.4832  1.2049 -0.4175
 6957TIP3   OH242285   5.820   5.269  11.442 -0.1146  0.5149 -0.1925
 6957TIP3    H142286   5.828   5.182  11.401 -0.1122  0.5285 -0.2218
 6957TIP3    H242287   5.907   5.285  11.479 -0.0048  0.6661 -0.5103
 6958TIP3   OH242288   0.712   3.713   4.609  0.2074 -0.7858  1.0188
 6958TIP3    H142289   0.644   3.772   4.641  1.4025  1.3742 -0.2263
 6958TIP3    H242290   0.774   3.770   4.563  2.5263 -2.7559  1.5220
 6959TIP3   OH242291   0.938   4.683   5.002  0.1225  0.1965  0.2880
 6959TIP3    H142292   1.024   4.726   4.995  0.1065  0.1151 -0.4707
 6959TIP3    H242293   0.959   4.590   5.009  0.0711  0.0808 -0.9624
 6960TIP3   OH242294   5.349   4.388   2.515 -0.5914 -0.7491  0.3104
 6960TIP3    H142295   5.378   4.479   2.517 -0.8644 -0.6755  1.6206
 6960TIP3    H242296   5.315   4.376   2.426 -0.8139  0.5118  0.1995
 6961TIP3   OH242297   0.775   6.278  16.939 -0.2262  0.0405  0.5489
 6961TIP3    H142298   0.827   6.343  16.894  0.8500  0.8182  2.7450
 6961TIP3    H242299   0.839   6.217  16.976 -0.9455 -0.0481  1.7306
 6962TIP3   OH242300   4.944   4.549   1.884 -0.2407 -0.2110 -0.3327
 6962TIP3    H142301   4.956   4.489   1.810 -1.0154  0.2036 -0.7990
 6962TIP3    H242302   4.989   4.629   1.857 -2.9210  0.9720 -1.6294
 6963TIP3   OH242303   6.477   5.509   1.157  0.3391  0.5894  0.3758
 6963TIP3    H142304   6.448   5.471   1.074 -2.1138 -1.3449  1.9805
 6963TIP3    H242305   6.396   5.531   1.203  1.5033 -0.5161  3.1559
 6964TIP3   OH242306   1.952   4.033   4.324 -0.1558 -0.3941 -0.3274
 6964TIP3    H142307   1.889   4.053   4.393  2.0070  0.9975  1.3850
 6964TIP3    H242308   1.983   3.945   4.345  0.3104 -0.0759  0.3636
 6965TIP3   OH242309   1.418   2.079  11.269  0.6107 -0.1983  0.2724
 6965TIP3    H142310   1.504   2.041  11.247  0.5710 -0.2061  0.1318
 6965TIP3    H242311   1.358   2.005  11.268  0.6518 -0.2388  0.6456
 6966TIP3   OH242312   2.604   6.436  16.295  0.0641  0.7641  0.1770
 6966TIP3    H142313   2.605   6.344  16.322  1.6381  0.2512 -1.4212
 6966TIP3    H242314   2.512   6.454  16.277 -0.2917 -0.4470  0.6350
 6967TIP3   OH242315   1.923   1.979  13.831 -0.0662  0.1385  0.4614
 6967TIP3    H142316   1.840   2.014  13.862  1.1885  1.4239  2.6004
 6967TIP3    H242317   1.908   1.959  13.738 -2.3797  1.4434  0.4961
 6968TIP3   OH242318   4.197   2.336  11.674  0.6767 -0.4526  0.1216
 6968TIP3    H142319   4.247   2.322  11.754 -0.8522 -1.0301  1.0226
 6968TIP3    H242320   4.176   2.430  11.675 -0.6264 -0.7217  1.2354
 6969TIP3   OH242321   5.769   3.191  10.880  0.6744 -0.5927 -0.3271
 6969TIP3    H142322   5.801   3.164  10.966  0.2151 -1.2527 -0.3526
 6969TIP3    H242323   5.842   3.238  10.841 -0.0508  2.3440  1.5591
 6970TIP3   OH242324   3.260   0.075   0.414 -0.3093  0.2881 -0.1726
 6970TIP3    H142325   3.353   0.099   0.415  0.2904 -1.5910  2.6886
 6970TIP3    H242326   3.216   0.146   0.461  0.0147  0.2219  0.2378
 6971TIP3   OH242327   0.157   1.325  14.766 -0.5838 -0.5464  0.5233
 6971TIP3    H142328   0.147   1.420  14.758 -1.8692 -0.4795  2.1878
 6971TIP3    H242329   0.246   1.313  14.801 -0.6789  0.1107  1.0134
 6972TIP3   OH242330   1.821   4.219  15.261  0.5100 -0.0360 -0.4037
 6972TIP3    H142331   1.832   4.231  15.355  0.3117 -0.2874 -0.3473
 6972TIP3    H242332   1.732   4.184  15.252  0.0817  1.0933 -0.7715
 6973TIP3   OH242333   5.031   4.542   2.736  0.7821  0.0393  0.5270
 6973TIP3    H142334   5.059   4.451   2.724  1.0468  0.0551  1.0014
 6973TIP3    H242335   4.972   4.540   2.811 -1.1518 -0.1152 -0.9377
 6974TIP3   OH242336   3.130   4.474  13.353 -1.0476  0.4342 -0.7490
 6974TIP3    H142337   3.173   4.531  13.417  0.8122  0.5931 -2.0633
 6974TIP3    H242338   3.041   4.510  13.345 -1.0262  0.9848  1.0022
 6975TIP3   OH242339   4.657   1.574   1.591 -0.1713  0.1839 -0.1069
 6975TIP3    H142340   4.596   1.587   1.664 -1.6393 -0.8918 -1.0826
 6975TIP3    H242341   4.622   1.498   1.544  1.3902  0.1443 -1.2774
 6976TIP3   OH242342   4.848   3.688   3.698  0.1822  0.1156 -0.4717
 6976TIP3    H142343   4.799   3.655   3.623  0.5260 -2.2761  0.2769
 6976TIP3    H242344   4.790   3.675   3.773 -0.4413  3.1229 -0.3009
 6977TIP3   OH242345   5.589   5.025   5.319 -0.2021  0.0541  0.3085
 6977TIP3    H142346   5.583   4.992   5.409  0.9903 -1.6467 -0.1945
 6977TIP3    H242347   5.620   5.115   5.329 -2.0902  0.6278  1.6539
 6978TIP3   OH242348   5.761   6.313   1.310  0.0675 -0.3123 -0.5619
 6978TIP3    H142349   5.828   6.310   1.378  0.0943  0.0106 -0.5736
 6978TIP3    H242350   5.787   6.244   1.248  0.3695 -0.2131 -0.5477
 6979TIP3   OH242351   0.593   2.777  13.056 -0.1127 -0.1487 -0.2225
 6979TIP3    H142352   0.498   2.778  13.043  0.2116 -0.6884 -3.3544
 6979TIP3    H242353   0.624   2.856  13.013  1.1291 -2.0482 -3.1074
 6980TIP3   OH242354   0.526   3.167   2.657  0.1888 -0.2549  0.3794
 6980TIP3    H142355   0.534   3.073   2.666  2.1492 -0.3574 -1.6105
 6980TIP3    H242356   0.477   3.195   2.735  0.1074 -2.7955  1.3205
 6981TIP3   OH242357   6.582   2.801  12.533 -0.2489 -0.1712  0.1944
 6981TIP3    H142358   6.594   2.779  12.440  2.1149 -0.1482  0.4208
 6981TIP3    H242359   6.663   2.846  12.557 -2.3854  3.3961  1.3211
 6982TIP3   OH242360   4.370   3.121   2.425  1.1749 -0.1120  0.1612
 6982TIP3    H142361   4.296   3.090   2.478  1.2503 -0.8460 -0.1445
 6982TIP3    H242362   4.446   3.081   2.466  1.4662  1.0125  0.7515
 6983TIP3   OH242363   0.315   3.639   1.079  0.4889 -0.6893 -0.1135
 6983TIP3    H142364   0.244   3.617   1.140 -0.0395  0.4332 -0.3082
 6983TIP3    H242365   0.283   3.715   1.031  1.3292 -0.9216 -1.0751
 6984TIP3   OH242366   4.295   5.719   5.942  0.0508 -0.0204 -0.2804
 6984TIP3    H142367   4.361   5.675   5.889  0.5344  0.9447 -0.5099
 6984TIP3    H242368   4.288   5.665   6.021  0.0824 -0.8955 -0.8648
 6985TIP3   OH242369   1.333   4.802   4.113  0.4547 -0.8756 -0.0286
 6985TIP3    H142370   1.274   4.732   4.087 -0.6960  0.7693 -2.1396
 6985TIP3    H242371   1.416   4.780   4.070  0.3801 -1.3945  0.0826
 6986TIP3   OH242372   0.121   1.997  10.680  0.5824 -0.1303  0.3900
 6986TIP3    H142373   0.177   2.070  10.707 -1.9669  1.4668  1.7756
 6986TIP3    H242374   0.109   1.945  10.759  0.4178 -0.6923  0.0066
 6987TIP3   OH242375   1.110   5.323  11.263  0.4615 -0.4671  0.0039
 6987TIP3    H142376   1.106   5.290  11.173  0.0836 -0.2345 -0.0671
 6987TIP3    H242377   1.027   5.295  11.302  0.2876  0.1001  0.0465
 6988TIP3   OH242378   4.031   2.678   4.777  0.1686  0.3909  0.1825
 6988TIP3    H142379   4.100   2.699   4.714 -0.7171  0.8819 -0.6548
 6988TIP3    H242380   4.038   2.584   4.790 -1.0137 -0.1677 -2.4147
 6989TIP3   OH242381   5.877   5.803  15.565 -0.0380 -0.0185  0.0849
 6989TIP3    H142382   5.955   5.840  15.524  0.2761 -0.2655  0.4591
 6989TIP3    H242383   5.875   5.840  15.653  0.0019 -0.4856  0.2888
 6990TIP3   OH242384   4.330   2.732   5.598  0.2133  0.2495 -0.3202
 6990TIP3    H142385   4.380   2.664   5.643 -0.2630  0.5105  0.6479
 6990TIP3    H242386   4.336   2.710   5.506  0.8990 -0.5365 -0.0983
 6991TIP3   OH242387   3.478   0.245   2.522  0.5667  0.1260 -0.2831
 6991TIP3    H142388   3.509   0.335   2.536  0.4397 -0.0651  1.4977
 6991TIP3    H242389   3.511   0.221   2.436  2.8155  0.9872  0.2668
 6992TIP3   OH242390   3.398   2.072  11.211 -0.4903 -0.7167 -0.0434
 6992TIP3    H142391   3.320   2.093  11.160 -0.0379  1.1493 -0.0333
 6992TIP3    H242392   3.462   2.043  11.146 -0.3435  0.3586 -0.3900
 6993TIP3   OH242393   2.258   0.799  14.968  0.0292 -0.2543  0.2746
 6993TIP3    H142394   2.211   0.798  15.051  0.7359 -2.6126  0.7357
 6993TIP3    H242395   2.307   0.881  14.969 -0.0877 -0.1602  2.1331
 6994TIP3   OH242396   3.182   4.514  16.209 -0.5161 -0.1686  0.3579
 6994TIP3    H142397   3.124   4.462  16.153  0.7694  0.4088 -1.6201
 6994TIP3    H242398   3.259   4.458  16.221 -0.3589  0.1181  0.6747
 6995TIP3   OH242399   6.523   3.264   3.464 -0.1211 -0.3327  0.6808
 6995TIP3    H142400   6.504   3.170   3.465  0.8612 -0.5380  0.6080
 6995TIP3    H242401   6.486   3.295   3.382 -0.0609 -0.7340  0.5005
 6996TIP3   OH242402   0.408   1.089   3.100 -0.3676  0.1309  0.1922
 6996TIP3    H142403   0.339   1.078   3.034 -0.9571  0.5031  0.7372
 6996TIP3    H242404   0.453   1.169   3.073  0.9550 -0.9851 -1.1192
 6997TIP3   OH242405   4.314   5.995   6.080 -0.0914 -0.2608 -0.4702
 6997TIP3    H142406   4.308   5.931   6.009  0.0776  0.3314 -1.0318
 6997TIP3    H242407   4.235   5.981   6.132 -0.1549 -0.7865 -0.7089
 6998TIP3   OH242408   1.620   4.887  11.369 -0.0080  0.3145  0.5760
 6998TIP3    H142409   1.541   4.838  11.343 -0.0774  0.0619  1.2609
 6998TIP3    H242410   1.590   4.945  11.438 -0.2644  2.4188 -1.1913
 6999TIP3   OH242411   2.406   0.374  16.376 -0.6942  0.0787  0.2143
 6999TIP3    H142412   2.329   0.319  16.363 -2.4656  2.5775 -0.6816
 6999TIP3    H242413   2.435   0.397  16.288 -0.6593  1.3543  0.5265
 7000TIP3   OH242414   3.173   5.943   2.031 -0.1756 -0.8524  0.3624
 7000TIP3    H142415   3.198   5.984   1.948 -1.0596 -1.1620 -0.0672
 7000TIP3    H242416   3.087   5.980   2.050  1.0489  1.1447  2.4414
 7001TIP3   OH242417   1.708   2.072   0.655 -0.1283 -0.0663 -0.5123
 7001TIP3    H142418   1.736   2.066   0.746  0.9800 -1.3913 -0.9118
 7001TIP3    H242419   1.676   2.162   0.646  2.3725  1.0229  0.4804
 7002TIP3   OH242420   0.823   6.346   2.882 -0.7274 -0.5226  0.3128
 7002TIP3    H142421   0.876   6.408   2.933  0.6574 -2.5679  1.4869
 7002TIP3    H242422   0.777   6.401   2.818 -1.1045  1.9363  2.5418
 7003TIP3   OH242423   2.934   4.151  15.100 -0.0514 -0.1576 -0.3057
 7003TIP3    H142424   2.863   4.213  15.087  0.7260  1.0471  1.0019
 7003TIP3    H242425   2.899   4.087  15.162 -0.1383  0.2012  0.0190
 7004TIP3   OH242426   1.917   4.576   5.646 -0.2475 -0.3324  0.2712
 7004TIP3    H142427   1.882   4.635   5.712 -0.8129  1.6394 -1.6501
 7004TIP3    H242428   2.012   4.584   5.655 -0.1908  3.1518 -1.6241
 7005TIP3   OH242429   3.153   6.512   1.109  0.1691  0.2105  0.1820
 7005TIP3    H142430   3.143   6.460   1.029  1.7792 -0.2994  0.2862
 7005TIP3    H242431   3.144   6.603   1.080 -2.4887 -0.0212 -0.0327
 7006TIP3   OH242432   3.842   5.509   5.581 -0.4137  0.5381  0.0417
 7006TIP3    H142433   3.878   5.428   5.617 -0.8075 -0.7371 -2.1973
 7006TIP3    H242434   3.827   5.565   5.657  1.5146 -0.7963  1.5111
 7007TIP3   OH242435   6.368   4.592  15.463  0.3377 -0.1403 -0.1699
 7007TIP3    H142436   6.328   4.567  15.380 -0.4992 -0.6049  0.3646
 7007TIP3    H242437   6.307   4.655  15.501  0.5428 -0.1924  0.2470
 7008TIP3   OH242438   2.722   0.215   4.779 -0.7534  0.0803  0.1814
 7008TIP3    H142439   2.640   0.205   4.826 -1.1798  0.4271 -0.4738
 7008TIP3    H242440   2.708   0.290   4.721  0.3137  0.6968  0.6801
 7009TIP3   OH242441   2.026   2.128   0.617 -0.2098 -0.4502  0.0008
 7009TIP3    H142442   2.056   2.038   0.604  1.2333  0.0674 -0.4094
 7009TIP3    H242443   2.053   2.150   0.706  0.3374 -0.1017 -0.2452
 7010TIP3   OH242444   5.690   4.188   3.468  0.3358  0.4194  0.1269
 7010TIP3    H142445   5.702   4.112   3.525 -1.1188 -1.2380 -1.6182
 7010TIP3    H242446   5.734   4.260   3.513  2.7369 -1.6719  1.3306
 7011TIP3   OH242447   1.110   5.287   6.646 -0.1607 -0.0132 -0.1548
 7011TIP3    H142448   1.081   5.251   6.730  0.5183 -0.2294 -0.0053
 7011TIP3    H242449   1.115   5.210   6.588  2.3622 -0.3942  0.4645
 7012TIP3   OH242450   1.689   2.366  12.219  0.3798  0.6941 -0.1747
 7012TIP3    H142451   1.755   2.405  12.276  0.3358 -0.4395  0.6974
 7012TIP3    H242452   1.607   2.406  12.246  0.6069  1.5471 -0.7384
 7013TIP3   OH242453   2.827   2.495   4.435 -0.6708  0.4876  0.3468
 7013TIP3    H142454   2.816   2.496   4.530  0.4855  0.7136  0.4959
 7013TIP3    H242455   2.909   2.447   4.421 -0.5969  0.8465 -0.5111
 7014TIP3   OH242456   6.732   0.095   2.910 -0.3269  0.0945 -0.0296
 7014TIP3    H142457   6.804   0.054   2.862 -0.6714  0.9832 -1.3598
 7014TIP3    H242458   6.655   0.043   2.888  0.1569 -2.2628  3.1726
 7015TIP3   OH242459   0.385   1.990  12.256  0.1418 -0.1542  0.4173
 7015TIP3    H142460   0.390   1.941  12.174  0.1101  1.7042 -0.7468
 7015TIP3    H242461   0.291   1.991  12.277 -0.1848  1.4803 -0.9212
 7016TIP3   OH242462   4.917   1.088   0.820  0.1071  0.1495  0.0064
 7016TIP3    H142463   4.881   1.092   0.909  0.8193 -1.2157  0.3889
 7016TIP3    H242464   4.871   1.015   0.779 -0.0833  0.6596 -0.6881
 7017TIP3   OH242465   1.541   2.368   3.564 -0.2582  0.2132  0.2933
 7017TIP3    H142466   1.463   2.331   3.605 -0.4426 -0.8783 -1.0077
 7017TIP3    H242467   1.586   2.293   3.525 -0.5317  1.2681 -2.2378
 7018TIP3   OH242468   5.655   2.720  15.743  0.5161 -0.8057  0.2895
 7018TIP3    H142469   5.627   2.632  15.716 -0.7308 -0.7149  1.1937
 7018TIP3    H242470   5.751   2.717  15.738  0.4808 -2.0800 -0.0821
 7019TIP3   OH242471   0.501   2.193   0.296 -0.1491 -0.3479  0.0672
 7019TIP3    H142472   0.549   2.130   0.349 -0.7710 -1.1670 -0.3246
 7019TIP3    H242473   0.419   2.149   0.274 -0.7709  0.7450  0.1109
 7020TIP3   OH242474   0.627   6.064  14.229  0.4954 -1.2021 -0.3691
 7020TIP3    H142475   0.597   5.992  14.174 -1.1221 -0.7854 -0.0879
 7020TIP3    H242476   0.705   6.097  14.185  0.3339 -2.0990 -1.3657
 7021TIP3   OH242477   1.536   3.955   1.754  0.1225  0.0684  0.0132
 7021TIP3    H142478   1.477   3.880   1.747 -1.6755  1.3914  0.4279
 7021TIP3    H242479   1.488   4.019   1.807  1.5367  1.5942 -0.4674
 7022TIP3   OH242480   4.224   4.590   3.745 -0.4687 -0.5778  0.1279
 7022TIP3    H142481   4.200   4.571   3.836 -1.3180  1.0698  0.2886
 7022TIP3    H242482   4.303   4.644   3.751 -1.1893  0.5288 -0.0222
 7023TIP3   OH242483   3.569   2.890  16.697  0.1461  0.4362  0.1733
 7023TIP3    H142484   3.529   2.821  16.749 -1.0837 -0.1338 -1.4559
 7023TIP3    H242485   3.663   2.873  16.703  0.0233  0.1729  1.8502
 7024TIP3   OH242486   1.276   0.942   4.688 -0.6188  0.6784  0.5086
 7024TIP3    H142487   1.194   0.893   4.694 -0.1697 -0.4469 -1.7281
 7024TIP3    H242488   1.314   0.937   4.776 -1.4917 -1.3803  0.8052
 7025TIP3   OH242489   4.687   1.664   5.212 -0.3455 -0.3774  0.2936
 7025TIP3    H142490   4.729   1.658   5.298 -0.1817 -0.4715  0.2090
 7025TIP3    H242491   4.648   1.577   5.198 -1.7118  0.1065  0.9402
 7026TIP3   OH242492   4.379   2.827  11.337  0.7356 -0.1353  0.0082
 7026TIP3    H142493   4.309   2.770  11.368 -1.3980  3.0939  1.6675
 7026TIP3    H242494   4.460   2.778  11.357 -0.8936 -2.8016  0.6150
 7027TIP3   OH242495   0.925   5.611   2.252 -0.0660  0.4594 -0.4354
 7027TIP3    H142496   0.968   5.607   2.337 -0.2166  0.3865 -0.3613
 7027TIP3    H242497   0.995   5.634   2.190 -0.1929  1.7435 -0.1293
 7028TIP3   OH242498   0.057   5.182  11.967 -0.7226 -0.4045 -0.1224
 7028TIP3    H142499   0.063   5.242  12.041  2.6636  1.6475 -1.8276
 7028TIP3    H242500  -0.032   5.193  11.933 -1.6315  0.2052  2.2550
 7029TIP3   OH242501   5.853   1.928   3.473  0.2069  0.2281  0.0028
 7029TIP3    H142502   5.796   1.863   3.431  0.5171 -0.4943  0.6857
 7029TIP3    H242503   5.806   2.011   3.462 -0.7053 -0.2655  0.0563
 7030TIP3   OH242504   2.095   2.389  14.583 -0.0548  0.1577 -0.0086
 7030TIP3    H142505   2.054   2.463  14.539 -1.0384 -0.9484 -1.0120
 7030TIP3    H242506   2.167   2.428  14.633  0.4420  1.6008 -1.7386
 7031TIP3   OH242507   3.133   0.701  17.196  0.4154 -0.5455  0.1485
 7031TIP3    H142508   3.120   0.729  17.287  1.8241  2.8043 -0.5657
 7031TIP3    H242509   3.186   0.770  17.156 -0.6553 -1.5791 -3.4261
 7032TIP3   OH242510   5.198   0.578  11.514 -0.0769  0.3916 -0.2782
 7032TIP3    H142511   5.194   0.601  11.607  1.0093 -0.2974 -0.0431
 7032TIP3    H242512   5.107   0.581  11.484 -0.8078 -2.0088  1.4519
 7033TIP3   OH242513   2.408   4.226  13.020  0.1088  0.0387 -0.0326
 7033TIP3    H142514   2.398   4.150  13.077 -0.4932  0.1935  0.0814
 7033TIP3    H242515   2.364   4.200  12.939  0.7368 -0.0851 -0.3379
 7034TIP3   OH242516   1.976   3.959  12.128 -0.6788 -0.1065  0.2564
 7034TIP3    H142517   1.931   3.977  12.045  0.2925 -1.2606 -0.5706
 7034TIP3    H242518   1.946   3.871  12.153  0.5937 -0.6330  0.0111
 7035TIP3   OH242519   2.977   4.995  16.448  0.1871 -0.2214 -0.2350
 7035TIP3    H142520   2.985   4.902  16.426  0.3432 -0.3448  0.3357
 7035TIP3    H242521   3.012   5.002  16.536 -2.4729 -0.1157  0.9027
 7036TIP3   OH242522   2.015   5.257   3.350 -0.0774 -0.2633  0.2258
 7036TIP3    H142523   2.046   5.289   3.435  0.3290  0.8598 -0.3248
 7036TIP3    H242524   1.924   5.287   3.345  0.2711  0.7696 -0.2440
 7037TIP3   OH242525   3.256   5.593   1.290 -0.1377 -0.5539 -0.1545
 7037TIP3    H142526   3.183   5.599   1.228 -1.0615 -0.3153  0.9314
 7037TIP3    H242527   3.305   5.516   1.261 -0.8186 -0.7306 -0.8946
 7038TIP3   OH242528   2.402   1.765  14.945 -0.0083 -0.2579  0.3563
 7038TIP3    H142529   2.444   1.802  15.023  0.0473  2.1832 -0.7160
 7038TIP3    H242530   2.471   1.715  14.901  0.5296  0.0457  0.8465
 7039TIP3   OH242531   4.154   4.442  17.073  0.0030  0.0741 -0.4037
 7039TIP3    H142532   4.169   4.529  17.036 -0.9466 -0.2139 -1.5165
 7039TIP3    H242533   4.195   4.446  17.160  1.3860  1.0998 -1.0535
 7040TIP3   OH242534   3.643   2.433  12.678  0.0729 -0.2653  0.4097
 7040TIP3    H142535   3.685   2.353  12.708  0.2649 -0.4928 -0.4238
 7040TIP3    H242536   3.552   2.424  12.707 -0.0467 -1.0604 -0.1504
 7041TIP3   OH242537   6.080   5.161  13.407  0.1183 -0.0368  0.0644
 7041TIP3    H142538   6.013   5.213  13.450  0.8065  3.1983 -2.3329
 7041TIP3    H242539   6.034   5.084  13.373 -1.4726  0.1211  1.7507
 7042TIP3   OH242540   1.251   4.108  12.407  0.5068 -0.1306  0.1367
 7042TIP3    H142541   1.163   4.115  12.369  0.2195  0.9465  0.9555
 7042TIP3    H242542   1.295   4.189  12.381  0.7984 -0.0560  0.8374
 7043TIP3   OH242543   5.809   4.814  15.707  0.4486  0.1894 -0.0107
 7043TIP3    H142544   5.777   4.817  15.797 -1.4088  0.3306 -0.6288
 7043TIP3    H242545   5.901   4.842  15.713  0.3327  0.2893  1.8063
 7044TIP3   OH242546   5.696   5.000   5.891 -0.0643 -0.3956  0.2319
 7044TIP3    H142547   5.720   4.930   5.831 -0.1699  0.8806 -1.3840
 7044TIP3    H242548   5.604   4.985   5.910 -0.7573  0.5172 -1.9737
 7045TIP3   OH242549   0.807   1.843  11.142 -0.2606 -0.2235  0.2148
 7045TIP3    H142550   0.857   1.923  11.159 -0.1062 -0.0007 -1.1717
 7045TIP3    H242551   0.872   1.780  11.114 -0.5332 -0.4759  0.1490
 7046TIP3   OH242552   3.263   1.617  10.659 -0.5767 -0.2182 -0.3243
 7046TIP3    H142553   3.342   1.651  10.617 -0.8991 -0.9683 -1.5792
 7046TIP3    H242554   3.275   1.522  10.661 -0.6756 -0.2111  1.0955
 7047TIP3   OH242555   5.579   0.857   0.468 -0.4773  0.0466  0.4829
 7047TIP3    H142556   5.508   0.837   0.406  1.5760  2.3735 -2.9601
 7047TIP3    H242557   5.542   0.924   0.525 -2.4576 -2.2172  2.0767
 7048TIP3   OH242558   0.199   4.043  14.174  0.0336 -0.3461 -0.1691
 7048TIP3    H142559   0.279   4.071  14.218  0.0553 -1.7702  0.7494
 7048TIP3    H242560   0.216   4.058  14.081  0.3860  1.7175  0.1806
 7049TIP3   OH242561   1.278   1.711   3.430 -0.1712 -0.4185  0.2391
 7049TIP3    H142562   1.342   1.640   3.422  0.1501 -0.1552  0.5090
 7049TIP3    H242563   1.317   1.785   3.384 -1.2588 -0.9104 -1.5843
 7050TIP3   OH242564   0.207   2.079   5.205 -0.5160  0.3120  0.0066
 7050TIP3    H142565   0.188   2.095   5.113 -1.7591  1.1394  0.3706
 7050TIP3    H242566   0.122   2.055   5.243 -0.0880  0.3024  0.9850
 7051TIP3   OH242567   3.599   3.025  13.139  0.2132  0.2362  0.1338
 7051TIP3    H142568   3.688   3.006  13.170  1.3087  0.6697 -2.5004
 7051TIP3    H242569   3.580   3.112  13.174  0.5814 -0.0754  1.1573
 7052TIP3   OH242570   4.428   5.989   3.095 -0.4536  0.3057 -0.4168
 7052TIP3    H142571   4.499   5.957   3.151 -1.3279  0.2115  0.6884
 7052TIP3    H242572   4.355   5.929   3.113 -0.6584  0.0659 -1.9436
 7053TIP3   OH242573   5.827   2.668  14.278  0.4463 -0.2099  0.0760
 7053TIP3    H142574   5.795   2.750  14.240 -2.5477 -1.1011  0.4094
 7053TIP3    H242575   5.754   2.607  14.267  1.4777 -2.0034  2.4648
 7054TIP3   OH242576   1.700   4.127  12.992  0.1396  0.4947 -0.2163
 7054TIP3    H142577   1.714   4.065  13.064  0.4001 -0.1691 -0.8295
 7054TIP3    H242578   1.786   4.138  12.953  0.2751  1.9577  0.4353
 7055TIP3   OH242579   0.471   5.327   1.780  0.1048 -0.2221  0.1642
 7055TIP3    H142580   0.549   5.337   1.725 -1.8924  2.4690 -2.4794
 7055TIP3    H242581   0.502   5.346   1.869  2.1571  3.3555 -1.0899
 7056TIP3   OH242582   1.149   4.612  15.219  0.2583 -0.0103  0.1915
 7056TIP3    H142583   1.245   4.611  15.218  0.2722 -0.2634  0.9775
 7056TIP3    H242584   1.125   4.546  15.285 -0.4726 -0.5797 -0.6256
 7057TIP3   OH242585   0.250   2.962  12.485 -0.2098  0.7859 -0.2982
 7057TIP3    H142586   0.258   2.977  12.391 -1.4181 -0.4631 -0.6366
 7057TIP3    H242587   0.201   3.038  12.518  1.9188  2.2357 -0.2807
 7058TIP3   OH242588   1.898   0.294   0.219  0.0567 -0.0906  0.1715
 7058TIP3    H142589   1.946   0.301   0.301 -0.1729 -0.4757  0.3418
 7058TIP3    H242590   1.965   0.273   0.154  0.5164  1.8796 -0.0655
 7059TIP3   OH242591   1.418   0.995  14.895  0.1805 -0.3351  0.1628
 7059TIP3    H142592   1.469   1.041  14.829  0.7546 -0.2436  0.6659
 7059TIP3    H242593   1.410   1.057  14.968 -0.8252 -0.2685  0.0160
 7060TIP3   OH242594   1.121   4.019  16.535  0.3117  0.2495 -0.2683
 7060TIP3    H142595   1.098   3.991  16.624 -2.4008 -0.6673 -1.1590
 7060TIP3    H242596   1.076   4.103  16.524 -2.3808 -1.2772 -1.8568
 7061TIP3   OH242597   1.217   0.048   4.791  0.3995  0.3887  0.1452
 7061TIP3    H142598   1.169   0.127   4.768  0.5311  0.7240  1.0006
 7061TIP3    H242599   1.172   0.014   4.869  0.1523 -0.5479 -0.3930
 7062TIP3   OH242600   6.303   0.291  10.159  0.5917  0.6678  0.0840
 7062TIP3    H142601   6.382   0.338  10.136 -0.9954  2.2559 -2.6352
 7062TIP3    H242602   6.263   0.342  10.229  0.0525  2.1889 -1.2701
 7063TIP3   OH242603   3.051   6.383  13.412 -0.1875  0.6292  0.1431
 7063TIP3    H142604   3.040   6.472  13.376  1.2150  1.4006  1.4861
 7063TIP3    H242605   3.064   6.328  13.334 -0.4119  1.7129 -0.6929
 7064TIP3   OH242606   6.657   2.349  17.043 -0.1496 -0.0012  0.2396
 7064TIP3    H142607   6.744   2.368  17.078 -0.0393 -2.9900  1.9106
 7064TIP3    H242608   6.596   2.372  17.113 -0.4196 -0.7998  0.2770
 7065TIP3   OH242609   2.535   3.054   6.534  0.7030  0.4390  0.1868
 7065TIP3    H142610   2.560   2.962   6.546 -2.4854 -0.4657  0.9245
 7065TIP3    H242611   2.618   3.102   6.536  2.6267 -2.4772 -1.3359
 7066TIP3   OH242612   6.455   2.115  13.295 -0.1317 -0.2496  0.4778
 7066TIP3    H142613   6.406   2.040  13.329 -1.6236 -0.1885 -1.3907
 7066TIP3    H242614   6.487   2.086  13.210  1.3630  0.4350  0.7823
 7067TIP3   OH242615   4.310   3.129   0.560 -0.2934 -0.9593 -0.2841
 7067TIP3    H142616   4.271   3.135   0.473  0.0280 -1.6932 -0.4845
 7067TIP3    H242617   4.266   3.198   0.610  0.8519  0.7689 -1.5164
 7068TIP3   OH242618   3.477   4.015  12.245 -0.2713  0.1328 -0.2352
 7068TIP3    H142619   3.429   4.057  12.173  0.3266 -0.6890 -1.1432
 7068TIP3    H242620   3.412   3.959  12.288  0.1867 -2.6328 -2.7531
 7069TIP3   OH242621   2.051   1.131  13.643 -0.4436 -0.0066 -0.2588
 7069TIP3    H142622   2.022   1.222  13.644 -1.5661 -0.3315 -1.1196
 7069TIP3    H242623   2.096   1.119  13.726 -1.8398  0.8430  0.6534
 7070TIP3   OH242624   3.639   1.126   5.302  0.0270 -0.4813 -0.5627
 7070TIP3    H142625   3.565   1.074   5.332  0.9907 -1.3507  0.4042
 7070TIP3    H242626   3.699   1.063   5.263  1.2968 -0.1641  0.7883
 7071TIP3   OH242627   4.743   2.625  14.687 -0.3252 -0.2208 -0.1199
 7071TIP3    H142628   4.785   2.584  14.763 -0.6748 -0.3442  0.0057
 7071TIP3    H242629   4.790   2.708  14.676  1.7853 -1.4825 -1.5985
 7072TIP3   OH242630   1.293   2.187  11.022 -0.2237  0.0168 -0.0314
 7072TIP3    H142631   1.207   2.226  11.029  0.3231  1.2766 -0.1678
 7072TIP3    H242632   1.322   2.175  11.113 -0.2526  0.2530  0.0090
 7073TIP3   OH242633   4.459   6.527  12.684  0.8416  0.1685  0.2073
 7073TIP3    H142634   4.386   6.465  12.688  1.5546 -0.6738  0.5488
 7073TIP3    H242635   4.421   6.610  12.711 -0.7823  0.5526 -2.8205
 7074TIP3   OH242636   6.563   5.069   3.175  0.5039 -0.1905  0.6987
 7074TIP3    H142637   6.522   5.008   3.236  0.2591  0.9119  1.6758
 7074TIP3    H242638   6.657   5.060   3.192  0.5320 -1.0296  0.1132
 7075TIP3   OH242639   1.180   0.497  14.934  0.1175 -0.4664 -0.3747
 7075TIP3    H142640   1.185   0.548  15.015 -0.4675 -0.6839 -0.1936
 7075TIP3    H242641   1.198   0.560  14.865  1.2310 -0.3962 -0.0477
 7076TIP3   OH242642   0.838   1.577   0.868 -0.1037 -0.3043 -0.4865
 7076TIP3    H142643   0.921   1.611   0.835  1.1717 -1.9969  0.7906
 7076TIP3    H242644   0.799   1.533   0.793 -0.0334  0.7658 -1.1782
 7077TIP3   OH242645   2.806   1.372  14.307  0.5198  0.3254  0.8233
 7077TIP3    H142646   2.716   1.387  14.277 -0.0438 -0.6900  1.8919
 7077TIP3    H242647   2.860   1.387  14.230 -0.6481  0.0911 -0.0812
 7078TIP3   OH242648   3.648   4.477   2.045 -0.6693  0.0070 -0.1091
 7078TIP3    H142649   3.606   4.490   2.130  0.0861  2.0503  0.0007
 7078TIP3    H242650   3.593   4.524   1.983 -0.5759 -0.4810 -0.5685
 7079TIP3   OH242651   5.832   4.517   0.250  0.0417  0.4899 -0.5211
 7079TIP3    H142652   5.798   4.485   0.334 -0.0329 -1.0829 -1.1287
 7079TIP3    H242653   5.906   4.573   0.275 -1.3366  1.8864  0.6854
 7080TIP3   OH242654   3.230   0.034  12.185 -0.0666  0.2134 -0.4116
 7080TIP3    H142655   3.243   0.039  12.091  1.0555 -0.2384 -0.2942
 7080TIP3    H242656   3.139   0.061  12.198 -0.6420 -0.9123 -1.7469
 7081TIP3   OH242657   2.593   2.730  14.317  0.7930  0.2573 -0.0410
 7081TIP3    H142658   2.649   2.791  14.270 -0.3547  0.7769 -0.7623
 7081TIP3    H242659   2.609   2.645  14.274  0.2120  0.6103 -0.9779
 7082TIP3   OH242660   0.667   3.643   3.093  0.3795 -0.0499  0.1180
 7082TIP3    H142661   0.606   3.690   3.036  1.0487  0.7540  0.0572
 7082TIP3    H242662   0.738   3.705   3.109  0.9818 -0.8305  0.5274
 7083TIP3   OH242663   0.182   4.322   0.847  0.4247  0.0495 -0.0811
 7083TIP3    H142664   0.179   4.314   0.752 -0.9223 -0.4615 -0.0186
 7083TIP3    H242665   0.213   4.412   0.862 -1.6297  0.9845 -1.0590
 7084TIP3   OH242666   2.021   2.053  16.892  0.1322  0.1427 -0.5336
 7084TIP3    H142667   2.044   2.033  16.983 -0.1135 -1.4385 -0.7872
 7084TIP3    H242668   2.093   2.107  16.860  0.4691  0.3007  0.4610
 7085TIP3   OH242669   2.028   6.547   5.423 -0.8198 -0.0270 -0.8542
 7085TIP3    H142670   2.046   6.553   5.517  1.2330 -1.6706 -1.0869
 7085TIP3    H242671   2.004   6.636   5.398  0.4599  0.8655  0.8872
 7086TIP3   OH242672   5.584   0.924   1.796  0.0711 -0.2840 -0.1501
 7086TIP3    H142673   5.566   0.831   1.805 -3.9458  0.1971 -1.2475
 7086TIP3    H242674   5.534   0.966   1.866  1.3928  1.1257  0.0101
 7087TIP3   OH242675   1.450   5.218  17.157  0.0925 -0.3228 -0.1897
 7087TIP3    H142676   1.534   5.263  17.142 -0.4097  0.5808 -0.4004
 7087TIP3    H242677   1.418   5.197  17.070  2.0135 -4.4811 -0.1041
 7088TIP3   OH242678   6.374   4.747   5.454 -0.0036  0.3879  0.4877
 7088TIP3    H142679   6.351   4.745   5.547  1.3831  0.4848  0.8585
 7088TIP3    H242680   6.328   4.672   5.416  0.9986 -0.8785  1.6617
 7089TIP3   OH242681   6.216   4.386   2.416  0.1442 -0.1117 -0.1063
 7089TIP3    H142682   6.258   4.413   2.334  2.0503 -1.8142  0.2277
 7089TIP3    H242683   6.270   4.425   2.485 -0.8789  0.4974  0.3792
 7090TIP3   OH242684   4.217   3.706  12.524 -0.5058  0.1459 -0.1452
 7090TIP3    H142685   4.282   3.751  12.578 -0.2961 -0.1272 -0.1686
 7090TIP3    H242686   4.142   3.695  12.581 -1.3467  2.3389 -0.7201
 7091TIP3   OH242687   5.495   3.413   1.183  0.1067  0.3896  0.2458
 7091TIP3    H142688   5.411   3.444   1.216 -0.5759 -1.4136  0.3193
 7091TIP3    H242689   5.474   3.373   1.098  0.1487 -3.1759  1.7104
 7092TIP3   OH242690   3.516   2.414  11.706  0.3214 -0.4301  0.3408
 7092TIP3    H142691   3.448   2.480  11.692  0.0734 -0.8284 -0.3240
 7092TIP3    H242692   3.482   2.358  11.775 -0.0775 -0.6939 -0.0660
 7093TIP3   OH242693   4.381   6.759  11.803 -0.0037  0.4460  0.2936
 7093TIP3    H142694   4.309   6.822  11.801  1.2830  1.9557 -0.8683
 7093TIP3    H242695   4.454   6.808  11.841  0.7214 -0.6975  0.4049
 7094TIP3   OH242696   0.981   2.476  11.999  0.3786 -0.1372  0.2092
 7094TIP3    H142697   0.978   2.388  12.037 -0.9217 -0.4922 -0.6483
 7094TIP3    H242698   0.936   2.467  11.915  0.3755  1.3137  0.0373
 7095TIP3   OH242699   1.789   3.675   1.654 -0.2149  0.0621 -0.0457
 7095TIP3    H142700   1.848   3.613   1.610 -0.1691 -1.1052  1.5885
 7095TIP3    H242701   1.729   3.620   1.704 -1.3124  1.3116  0.0631
 7096TIP3   OH242702   0.944   0.795   5.127  0.3587  0.0887  0.0729
 7096TIP3    H142703   0.950   0.738   5.204 -0.2181  0.2562  0.2454
 7096TIP3    H242704   0.941   0.734   5.053  1.3635 -0.0657  0.1430
 7097TIP3   OH242705   3.897   1.811   3.408  0.0722  0.1785 -0.1624
 7097TIP3    H142706   3.904   1.903   3.433  2.0949  0.4795 -1.5476
 7097TIP3    H242707   3.956   1.766   3.469  0.9275  0.1726 -0.9711
 7098TIP3   OH242708   1.109   1.321   1.168 -0.2323 -0.2378 -0.2123
 7098TIP3    H142709   1.187   1.277   1.201  0.5673  1.9286  1.0310
 7098TIP3    H242710   1.138   1.366   1.089 -0.0948  0.8526  0.4397
 7099TIP3   OH242711   4.241   1.702  13.718  0.3803 -0.2552  0.0932
 7099TIP3    H142712   4.202   1.631  13.667 -1.1386 -0.7066  1.7685
 7099TIP3    H242713   4.166   1.745  13.760  1.4341  1.1371  0.6260
 7100TIP3   OH242714   0.630   1.390   0.215 -0.4878 -0.3615 -0.0105
 7100TIP3    H142715   0.696   1.392   0.146 -2.7681  1.1725 -2.3042
 7100TIP3    H242716   0.645   1.470   0.266 -1.6131  0.9331 -1.6378
 7101TIP3   OH242717   4.954   2.990   3.883  0.0924  0.2582  0.7102
 7101TIP3    H142718   4.959   2.900   3.851 -1.5201  0.9646 -1.9168
 7101TIP3    H242719   4.952   3.043   3.803 -0.6451  2.5251  2.1310
 7102TIP3   OH242720   5.329   0.926  12.458 -0.3841  0.3860  0.0702
 7102TIP3    H142721   5.408   0.907  12.408 -1.5293  0.2032 -1.7602
 7102TIP3    H242722   5.345   0.888  12.544  1.2861 -0.1321 -0.4329
 7103TIP3   OH242723   1.037   4.313  12.863  0.5371  0.0581  0.3295
 7103TIP3    H142724   1.052   4.342  12.953  1.6190 -0.6058  0.3811
 7103TIP3    H242725   1.071   4.223  12.861 -0.2282 -0.2205 -0.5290
 7104TIP3   OH242726   5.502   0.391   2.769 -0.5866  0.0359 -0.7221
 7104TIP3    H142727   5.489   0.298   2.786  0.1044  0.0901  0.1793
 7104TIP3    H242728   5.415   0.423   2.744 -0.8060 -0.8664 -1.1426
 7105TIP3   OH242729   5.572   3.068   0.063  0.2333  0.5053 -0.0189
 7105TIP3    H142730   5.623   3.140   0.025  0.8640 -0.4252 -0.9833
 7105TIP3    H242731   5.633   2.994   0.065 -0.9927 -0.5886 -1.0271
 7106TIP3   OH242732   5.861   3.409   1.163 -0.3458  0.4058 -0.2682
 7106TIP3    H142733   5.945   3.374   1.193 -0.3159  0.2759 -0.4975
 7106TIP3    H242734   5.882   3.493   1.124 -0.0391 -0.4039 -1.9667
 7107TIP3   OH242735   2.018   5.619  13.719 -0.7538 -0.0112 -0.0441
 7107TIP3    H142736   1.962   5.578  13.784 -0.9374  0.8875  0.3766
 7107TIP3    H242737   2.095   5.647  13.768  0.5928 -2.1821 -0.7980
 7108TIP3   OH242738   6.114   5.371   0.523 -0.3994 -0.5853  0.2798
 7108TIP3    H142739   6.050   5.421   0.573 -0.2876  1.5929 -1.5559
 7108TIP3    H242740   6.062   5.313   0.467 -1.0231  2.0309 -2.0940
 7109TIP3   OH242741   5.939   4.342   0.943  0.4873  0.5624 -0.3041
 7109TIP3    H142742   6.011   4.364   0.884  1.7281  0.4952  1.1273
 7109TIP3    H242743   5.946   4.405   1.015  1.0521 -1.3159  1.3976
 7110TIP3   OH242744   1.219   5.642  15.162 -0.6041  0.0645  0.3072
 7110TIP3    H142745   1.300   5.682  15.133 -0.1298 -1.9737 -1.4335
 7110TIP3    H242746   1.150   5.688  15.114 -0.4439  1.2179  1.1430
 7111TIP3   OH242747   3.065   0.803   4.757  0.1333 -0.3721 -0.0948
 7111TIP3    H142748   2.980   0.786   4.715 -0.0895  0.9865 -0.2503
 7111TIP3    H242749   3.111   0.720   4.752 -0.7651 -0.8450 -1.0205
 7112TIP3   OH242750   4.213   4.894  17.240 -0.4376 -0.2632 -0.2802
 7112TIP3    H142751   4.293   4.917  17.286 -0.1171  0.8192 -1.3397
 7112TIP3    H242752   4.143   4.940  17.288 -0.3271 -0.5113  0.1225
 7113TIP3   OH242753   0.071   1.365   3.227 -0.1211  0.1085 -0.5838
 7113TIP3    H142754   0.031   1.281   3.202 -1.4630  0.2357  1.0014
 7113TIP3    H242755   0.148   1.340   3.279  0.5405 -0.1213 -1.6384
 7114TIP3   OH242756   3.386   5.274  15.937 -0.0201 -0.1040 -0.3056
 7114TIP3    H142757   3.423   5.239  16.018 -0.1759 -0.9408 -0.5877
 7114TIP3    H242758   3.387   5.369  15.949  1.4461 -0.1365  0.0366
 7115TIP3   OH242759   0.013   0.404   4.831 -0.1603  0.3512  0.1003
 7115TIP3    H142760   0.087   0.450   4.792 -1.7690  1.6789 -1.4925
 7115TIP3    H242761   0.024   0.313   4.803  1.8499  0.0958  1.4773
 7116TIP3   OH242762   1.601   6.749  16.903  0.0343 -0.2003  0.0396
 7116TIP3    H142763   1.625   6.733  16.812  1.3660  0.2793  0.2774
 7116TIP3    H242764   1.682   6.783  16.943  0.2768 -2.7893  2.0231
 7117TIP3   OH242765   0.732   5.427   4.818  0.0783 -0.2022 -0.2068
 7117TIP3    H142766   0.750   5.370   4.893  0.4031 -0.4076 -0.4407
 7117TIP3    H242767   0.639   5.413   4.800 -0.1971  0.4528  0.6626
 7118TIP3   OH242768   5.225   0.178  15.292 -0.2648  0.2750 -0.2669
 7118TIP3    H142769   5.289   0.109  15.311 -0.6877 -0.3910 -1.1876
 7118TIP3    H242770   5.275   0.259  15.301  0.3120 -0.1480  0.5552
 7119TIP3   OH242771   6.681   1.329   1.449 -0.5964  0.0891  0.0523
 7119TIP3    H142772   6.727   1.404   1.411  0.4578 -1.1547 -1.2346
 7119TIP3    H242773   6.604   1.367   1.492  1.1907  2.1837  1.6607
 7120TIP3   OH242774   1.656   5.589  14.955 -0.0660  0.1057 -0.6996
 7120TIP3    H142775   1.747   5.612  14.938  0.1134 -0.3549 -0.4017
 7120TIP3    H242776   1.645   5.502  14.916 -0.2191 -0.0780 -0.2612
 7121TIP3   OH242777   1.969   6.050  14.993 -0.0090  0.1251  0.1456
 7121TIP3    H142778   2.034   6.080  15.057 -1.7570  0.0851  2.0514
 7121TIP3    H242779   1.932   5.972  15.033 -0.3209 -0.6163 -1.5386
 7122TIP3   OH242780   2.995   5.592  15.896 -0.9303 -0.3200 -0.0900
 7122TIP3    H142781   2.958   5.675  15.867 -1.0047 -0.5775 -0.7563
 7122TIP3    H242782   2.933   5.526  15.865 -0.4164 -0.6864 -0.3613
 7123TIP3   OH242783   6.515   0.638  15.414 -0.2560  0.2496 -0.4284
 7123TIP3    H142784   6.551   0.684  15.338  0.9560 -0.8428 -0.5620
 7123TIP3    H242785   6.491   0.551  15.380  1.1867 -0.5918  0.5888
 7124TIP3   OH242786   2.878   5.245   2.738 -0.0169 -0.0135 -0.2483
 7124TIP3    H142787   2.957   5.216   2.693  1.0139  0.9958  0.8358
 7124TIP3    H242788   2.877   5.195   2.819 -1.7433 -1.6649 -1.2268
 7125TIP3   OH242789   5.571   5.758   4.802 -0.2942 -0.2567  0.3055
 7125TIP3    H142790   5.655   5.723   4.831 -0.3363  0.6485  1.6348
 7125TIP3    H242791   5.517   5.761   4.881 -0.9894  0.7786 -0.1769
 7126TIP3   OH242792   2.488   1.404   6.463  0.1203 -0.4128  0.2578
 7126TIP3    H142793   2.553   1.339   6.490  0.3497 -0.6213 -0.7560
 7126TIP3    H242794   2.463   1.448   6.545  0.1118 -1.6287  0.9353
 7127TIP3   OH242795   3.498   5.468  13.795  0.0075 -0.6351  0.0511
 7127TIP3    H142796   3.496   5.563  13.785 -0.6615 -0.6354  0.1198
 7127TIP3    H242797   3.587   5.443  13.772 -0.3377 -0.2123 -1.9262
 7128TIP3   OH242798   3.776   2.833   3.657  0.4299  0.1761 -0.0317
 7128TIP3    H142799   3.797   2.751   3.701  0.9641 -0.2243 -1.0083
 7128TIP3    H242800   3.860   2.868   3.630  0.1144  0.4188 -0.7138
 7129TIP3   OH242801   5.505   3.733  15.380  0.4185  0.0786 -0.0028
 7129TIP3    H142802   5.490   3.827  15.379  0.6873  0.1257  0.3108
 7129TIP3    H242803   5.418   3.695  15.392  0.4966  0.3503  1.6566
 7130TIP3   OH242804   5.726   4.233  10.900 -0.0048  0.3152 -0.0785
 7130TIP3    H142805   5.632   4.217  10.906  0.1784 -1.9378 -1.7913
 7130TIP3    H242806   5.734   4.324  10.872 -1.7716  0.0772 -1.5040
 7131TIP3   OH242807   2.058   1.033  12.769  0.5363  0.0258 -0.2734
 7131TIP3    H142808   2.013   0.968  12.715  0.3157 -0.3690  0.3865
 7131TIP3    H242809   1.990   1.068  12.826  1.2768 -1.4685  1.6149
 7132TIP3   OH242810   6.756   3.227  11.114 -0.0910  0.5205  0.0141
 7132TIP3    H142811   6.774   3.233  11.208  0.7038 -1.4483  0.0353
 7132TIP3    H242812   6.664   3.202  11.108  0.6217 -2.6293  0.4762
 7133TIP3   OH242813   4.542   3.301  14.395  0.2274 -0.1944 -0.2723
 7133TIP3    H142814   4.596   3.225  14.418  0.1157 -0.3959 -0.6708
 7133TIP3    H242815   4.509   3.282  14.307 -1.3103 -0.5375  0.3511
 7134TIP3   OH242816   5.788   5.347  13.263  0.7171 -0.2191 -0.3838
 7134TIP3    H142817   5.817   5.376  13.350  0.3588  1.7307 -0.8751
 7134TIP3    H242818   5.718   5.407  13.239  2.4730  0.9512 -3.0691
 7135TIP3   OH242819   3.849   4.157  12.238 -0.4436  0.1285 -0.4798
 7135TIP3    H142820   3.832   4.237  12.187  1.4521  1.8040  1.3072
 7135TIP3    H242821   3.789   4.164  12.313 -0.6659 -0.4425 -0.5987
 7136TIP3   OH242822   5.486   5.121   4.114 -0.3348  0.3470 -0.5183
 7136TIP3    H142823   5.548   5.062   4.158 -0.0822 -0.2507 -1.6312
 7136TIP3    H242824   5.473   5.193   4.176  1.6505  0.5944 -0.3206
 7137TIP3   OH242825   4.802   2.308  11.362  0.2189 -0.3495 -0.1618
 7137TIP3    H142826   4.879   2.306  11.307  0.3685 -0.4131  0.0482
 7137TIP3    H242827   4.796   2.399  11.392 -1.0307  0.1946 -1.9140
 7138TIP3   OH242828   5.420   2.332  15.933  0.2447 -0.3615  0.1235
 7138TIP3    H142829   5.458   2.246  15.918  0.9142  0.0660 -0.7877
 7138TIP3    H242830   5.464   2.389  15.869 -1.3921  0.3175 -0.4578
 7139TIP3   OH242831   2.613   5.018  17.139 -0.0962  0.6069 -0.2204
 7139TIP3    H142832   2.693   4.974  17.169  0.5563 -0.2949 -2.9272
 7139TIP3    H242833   2.633   5.043  17.049 -2.4870  1.4494 -0.5798
 7140TIP3   OH242834   5.680   1.865   1.736  0.4440  0.0817 -0.6526
 7140TIP3    H142835   5.600   1.918   1.731  1.1558  1.4821  1.4095
 7140TIP3    H242836   5.649   1.775   1.725 -1.4721  0.5706  0.1932
 7141TIP3   OH242837   4.274   1.987   5.839  0.1175 -0.0948 -0.1231
 7141TIP3    H142838   4.178   1.992   5.836  0.1018 -0.7363 -1.1690
 7141TIP3    H242839   4.294   1.898   5.812  0.9527 -0.7034  2.2498
 7142TIP3   OH242840   5.577   1.963  16.710  0.1828 -0.3477 -0.0293
 7142TIP3    H142841   5.630   1.975  16.789 -0.6034  1.6759  0.2602
 7142TIP3    H242842   5.511   2.032  16.715 -0.3568 -0.6386 -2.0985
 7143TIP3   OH242843   2.573   3.064   1.731  0.0834 -0.0446  0.4793
 7143TIP3    H142844   2.510   3.091   1.799 -1.8611 -0.8110 -0.9460
 7143TIP3    H242845   2.624   2.995   1.773  0.6402  1.1875  1.9604
 7144TIP3   OH242846   0.001   3.443   4.711 -0.3069 -0.2681  0.0495
 7144TIP3    H142847  -0.013   3.348   4.713 -0.5705 -0.2191  0.5104
 7144TIP3    H242848   0.034   3.460   4.623  1.2707 -1.0032  0.4639
 7145TIP3   OH242849   2.553   0.055  13.848  0.8650 -0.6212  0.1843
 7145TIP3    H142850   2.567  -0.026  13.799  2.2270 -0.2008 -0.1587
 7145TIP3    H242851   2.568   0.124  13.784 -3.0687  0.0134 -0.3513
 7146TIP3   OH242852   0.962   4.148   1.191  0.5274 -0.2049 -0.2630
 7146TIP3    H142853   1.020   4.170   1.119  0.7831  1.3391  0.3705
 7146TIP3    H242854   0.884   4.111   1.149  0.5496  0.9316 -1.3621
 7147TIP3   OH242855   6.504   1.756  11.803 -0.4118  0.0574 -0.5673
 7147TIP3    H142856   6.523   1.753  11.710 -0.0567  2.0206 -0.5975
 7147TIP3    H242857   6.525   1.668  11.835  1.7673  0.0124 -1.9264
 7148TIP3   OH242858   5.435   1.340  11.449 -0.3511  0.5333 -0.3556
 7148TIP3    H142859   5.496   1.411  11.432 -0.5373  1.2346  1.5846
 7148TIP3    H242860   5.360   1.383  11.491 -0.7937 -0.6993  0.1653
 7149TIP3   OH242861   6.180   4.357   0.812 -0.4292  0.1560 -0.0616
 7149TIP3    H142862   6.177   4.262   0.807  0.1907  0.0824  0.7826
 7149TIP3    H242863   6.256   4.382   0.759  0.0374  0.0946  0.5622
 7150TIP3   OH242864   5.976   2.925   5.032 -0.0609  0.3122 -0.4932
 7150TIP3    H142865   6.004   3.001   5.083  1.1542  0.0482 -0.7388
 7150TIP3    H242866   6.044   2.913   4.966 -1.0353 -0.0436 -1.4644
 7151TIP3   OH242867   5.407   1.697  17.147  0.4092 -0.3634  0.0843
 7151TIP3    H142868   5.357   1.689  17.229  0.4064 -0.3412  0.0848
 7151TIP3    H242869   5.481   1.753  17.170  1.2815 -1.6391  0.4707
 7152TIP3   OH242870   1.029   3.977  12.630 -0.2186 -0.7523  0.1625
 7152TIP3    H142871   1.110   3.927  12.621  0.0867 -0.5721  1.5996
 7152TIP3    H242872   0.984   3.964  12.547  1.1181 -1.1413 -0.5425
 7153TIP3   OH242873   1.008   5.614   0.453  0.1277 -0.1499  0.2301
 7153TIP3    H142874   1.010   5.709   0.460 -2.2486  0.0526 -0.9361
 7153TIP3    H242875   0.992   5.597   0.360  2.0828 -1.7631  0.1246
 7154TIP3   OH242876   2.751   0.544  17.040 -0.0747 -0.4014 -0.7211
 7154TIP3    H142877   2.796   0.586  17.113 -1.3375  0.1859 -0.2645
 7154TIP3    H242878   2.786   0.454  17.040  0.0334 -0.3807  0.5220
 7155TIP3   OH242879   2.977   6.205  15.601  0.0781  0.1787  0.3565
 7155TIP3    H142880   2.937   6.246  15.678  0.5945  2.1251 -0.3586
 7155TIP3    H242881   3.032   6.273  15.564  0.4672 -0.9868 -1.2983
 7156TIP3   OH242882   2.107   2.577   2.686 -0.7931 -0.1879  0.5035
 7156TIP3    H142883   2.142   2.526   2.614 -0.0986  1.2849 -0.2559
 7156TIP3    H242884   2.128   2.668   2.664 -0.8070  0.3414  2.4090
 7157TIP3   OH242885   5.274   4.804  13.978 -0.3301  0.6970  0.1250
 7157TIP3    H142886   5.363   4.790  13.944 -0.8296 -0.5101 -0.7758
 7157TIP3    H242887   5.258   4.897  13.965 -0.0410  0.5158 -1.9072
 7158TIP3   OH242888   1.704   2.706  13.444  0.0468  0.0983  0.6119
 7158TIP3    H142889   1.777   2.669  13.394  1.1002  1.5985  0.9654
 7158TIP3    H242890   1.725   2.686  13.535 -0.7977 -0.8195  0.6098
 7159TIP3   OH242891   5.077   0.575  14.674  0.0632  0.2814  0.5249
 7159TIP3    H142892   4.995   0.543  14.712  0.7192 -1.3681  0.6596
 7159TIP3    H242893   5.104   0.505  14.614  0.4210  1.6443 -0.9407
 7160TIP3   OH242894   2.859   2.076  12.893 -0.1631 -0.1934 -0.1076
 7160TIP3    H142895   2.903   1.992  12.893 -0.8426 -0.5676 -1.0280
 7160TIP3    H242896   2.833   2.090  12.802 -1.7729  0.0858  0.3554
 7161TIP3   OH242897   0.841   4.955  15.832  0.3849  0.1378  0.0094
 7161TIP3    H142898   0.768   4.995  15.879  0.8952  0.3483  0.6317
 7161TIP3    H242899   0.813   4.955  15.740 -0.2346  0.5676  0.1932
 7162TIP3   OH242900   1.518   0.251  16.445  0.2251  0.2851  0.6031
 7162TIP3    H142901   1.585   0.248  16.514 -1.2049  1.1838  2.0795
 7162TIP3    H242902   1.480   0.163  16.446  0.0697  0.3549  1.1116
 7163TIP3   OH242903   2.223   6.328  11.516  0.0626 -0.5922 -0.8191
 7163TIP3    H142904   2.171   6.403  11.487 -1.4206 -0.9928  0.6426
 7163TIP3    H242905   2.303   6.367  11.552 -1.6799  0.6199  2.1501
 7164TIP3   OH242906   4.139   3.471   3.875  0.1859  0.2244 -0.2939
 7164TIP3    H142907   4.203   3.419   3.923  0.6677  1.0667  0.0075
 7164TIP3    H242908   4.089   3.516   3.943 -1.0604 -0.7989 -0.5126
 7165TIP3   OH242909   1.526   0.505   1.715 -0.0135 -0.6689  0.1558
 7165TIP3    H142910   1.620   0.520   1.703 -0.1431 -0.3939 -0.5118
 7165TIP3    H242911   1.504   0.437   1.652 -0.3401 -0.4649  0.0493
 7166TIP3   OH242912   1.852   0.197  12.433  0.2596  0.3881 -0.0600
 7166TIP3    H142913   1.869   0.118  12.382 -0.9214  1.3044 -1.9687
 7166TIP3    H242914   1.938   0.238  12.441  0.6802 -0.4435 -0.1551
 7167TIP3   OH242915   6.419   5.816   5.141 -0.0430  0.2272 -0.1152
 7167TIP3    H142916   6.457   5.827   5.228 -1.7200 -0.4889  0.7765
 7167TIP3    H242917   6.347   5.879   5.138 -1.0992 -0.9249 -0.2531
 7168TIP3   OH242918   4.835   4.249   2.813 -0.9137 -0.1734  0.3259
 7168TIP3    H142919   4.764   4.246   2.750 -1.9147 -1.7489  1.4525
 7168TIP3    H242920   4.828   4.335   2.854 -1.1007  0.3263 -0.7380
 7169TIP3   OH242921   5.914   2.407   4.394  0.3214  0.1781 -0.0348
 7169TIP3    H142922   5.970   2.452   4.457  0.4672  1.0028 -0.7304
 7169TIP3    H242923   5.891   2.475   4.331  0.6177 -0.7454 -1.1696
 7170TIP3   OH242924   4.845   6.620  16.289  0.2417 -0.4846 -0.0826
 7170TIP3    H142925   4.824   6.606  16.197 -0.7579  2.2470 -0.3830
 7170TIP3    H242926   4.929   6.577  16.302  0.9666  0.0177 -2.6044
 7171TIP3   OH242927   6.033   2.073  13.268 -0.0678  0.4033  0.9717
 7171TIP3    H142928   5.991   1.988  13.285 -0.8184  0.6966  0.6491
 7171TIP3    H242929   6.070   2.064  13.180 -2.5788  1.2972 -0.2769
 7172TIP3   OH242930   3.971   6.474   0.871  0.1044 -0.3665  0.0407
 7172TIP3    H142931   4.049   6.519   0.839  0.3435  0.2278  1.4212
 7172TIP3    H242932   3.913   6.470   0.795  0.4305  1.4883 -0.3428
 7173TIP3   OH242933   5.230   2.567  12.746  0.0048 -0.2019 -0.1018
 7173TIP3    H142934   5.214   2.473  12.758 -0.1428 -0.1075  0.4645
 7173TIP3    H242935   5.154   2.609  12.785  0.1974  0.1617 -0.1167
 7174TIP3   OH242936   5.710   0.461  15.838 -0.0783  0.5672  0.4664
 7174TIP3    H142937   5.791   0.502  15.868  0.7237  0.1748 -1.0556
 7174TIP3    H242938   5.709   0.475  15.743 -0.4794 -1.6223  0.0790
 7175TIP3   OH242939   2.546   1.036  15.231 -0.1340 -0.5297  0.6032
 7175TIP3    H142940   2.537   1.005  15.321 -0.8537  0.1937  0.7825
 7175TIP3    H242941   2.472   1.094  15.218  0.8686  0.6586  0.0735
 7176TIP3   OH242942   0.838   5.316   0.864  0.2036  0.6051  0.2846
 7176TIP3    H142943   0.844   5.264   0.944 -1.9932 -0.4903 -0.1810
 7176TIP3    H242944   0.894   5.270   0.802 -0.4528 -0.3354  0.3539
 7177TIP3   OH242945   5.407   6.117   5.375  0.1799 -0.2157  0.2787
 7177TIP3    H142946   5.441   6.189   5.322 -3.2251  1.1997 -0.2266
 7177TIP3    H242947   5.422   6.145   5.466  0.7172  0.1307  0.0906
 7178TIP3   OH242948   2.297   4.661   1.709  0.2233 -0.3210 -0.3098
 7178TIP3    H142949   2.311   4.753   1.686  1.0280 -0.3295  0.1053
 7178TIP3    H242950   2.262   4.663   1.798  3.5255 -0.4709  1.1595
 7179TIP3   OH242951   1.490   6.443   3.930  0.5042  0.3226 -0.0132
 7179TIP3    H142952   1.416   6.382   3.936  0.9925 -0.5414 -2.0102
 7179TIP3    H242953   1.567   6.390   3.952  0.8983  0.2551 -1.4760
 7180TIP3   OH242954   0.384   2.523   1.086  0.0690  0.1757 -0.6924
 7180TIP3    H142955   0.417   2.467   1.156  1.3599  1.4169 -0.2570
 7180TIP3    H242956   0.354   2.462   1.019  0.4916 -1.0266  0.1647
 7181TIP3   OH242957   6.144   2.518   2.458  0.3298  0.0469  0.6577
 7181TIP3    H142958   6.147   2.441   2.402  2.8478  0.1939  0.4561
 7181TIP3    H242959   6.119   2.589   2.399 -0.4297 -0.3476  0.4952
 7182TIP3   OH242960   1.978   5.920   0.438 -0.4928  0.0354 -0.3402
 7182TIP3    H142961   2.026   5.855   0.387  0.6236 -0.7083  1.5848
 7182TIP3    H242962   1.947   5.873   0.515  1.0510  1.9058  1.5244
 7183TIP3   OH242963   0.069   0.421  15.014 -0.5154  0.7388 -0.3798
 7183TIP3    H142964   0.106   0.477  15.082 -1.2958 -1.3492  1.9305
 7183TIP3    H242965   0.144   0.375  14.977 -0.3245 -0.9619  1.8970
 7184TIP3   OH242966   3.991   6.572  14.020 -0.4919 -0.4243 -0.5581
 7184TIP3    H142967   3.930   6.641  13.994 -0.5633 -0.3168 -0.1196
 7184TIP3    H242968   3.935   6.501  14.052 -0.3750 -0.0104  0.6083
 7185TIP3   OH242969   0.512   5.532  13.637  0.5074  0.4446  0.0657
 7185TIP3    H142970   0.452   5.586  13.689  1.2731 -1.5240  3.2827
 7185TIP3    H242971   0.484   5.442  13.654  2.4564 -0.4004 -0.8434
 7186TIP3   OH242972   1.761   3.737   1.998 -0.1894  0.0723  0.9550
 7186TIP3    H142973   1.772   3.643   1.981  1.4215  0.6754 -2.2423
 7186TIP3    H242974   1.842   3.776   1.966 -2.0138  2.7983 -0.7613
 7187TIP3   OH242975   3.694   2.948  12.063 -0.5145 -0.4711  0.0579
 7187TIP3    H142976   3.657   2.861  12.049  0.0145 -0.7391  0.2822
 7187TIP3    H242977   3.627   3.009  12.031 -0.8761 -0.9607 -0.1211
 7188TIP3   OH242978   3.155   1.389  16.754 -0.7955  0.7866  0.0474
 7188TIP3    H142979   3.127   1.376  16.663 -0.1203  1.0224 -0.2029
 7188TIP3    H242980   3.208   1.469  16.751  0.3324  0.0752  0.3942
 7189TIP3   OH242981   6.205   5.247  12.818  0.2472  0.4656  0.2632
 7189TIP3    H142982   6.142   5.303  12.772  1.0717 -0.7078 -2.4640
 7189TIP3    H242983   6.278   5.237  12.757  0.4215 -3.0457  0.8525
 7190TIP3   OH242984   2.203   5.211   1.796 -0.6889  0.2276 -0.7131
 7190TIP3    H142985   2.128   5.250   1.840  1.2446  1.6085  1.6074
 7190TIP3    H242986   2.200   5.118   1.820 -0.9634  0.5228  0.4297
 7191TIP3   OH242987   0.949   3.636  11.245  0.6232  0.0981 -0.2972
 7191TIP3    H142988   0.918   3.711  11.194 -1.5091 -1.1289 -0.9048
 7191TIP3    H242989   0.954   3.564  11.183 -0.6791 -1.0850  0.9034
 7192TIP3   OH242990   0.863   4.363   3.794 -0.4973  0.0041  0.0115
 7192TIP3    H142991   0.865   4.329   3.705 -0.6281 -0.2395  0.0998
 7192TIP3    H242992   0.907   4.448   3.789  0.0051 -0.2601 -0.1765
 7193TIP3   OH242993   4.652   3.759   1.920 -0.4707 -0.2468 -0.1438
 7193TIP3    H142994   4.616   3.843   1.893  1.5019  0.5476 -0.4792
 7193TIP3    H242995   4.577   3.710   1.953 -1.3704  2.4214  2.1361
 7194TIP3   OH242996   5.901   3.502   0.563 -0.0414  0.0167  0.1797
 7194TIP3    H142997   5.875   3.533   0.650 -1.6373 -1.6303  0.3550
 7194TIP3    H242998   5.929   3.412   0.577  1.8992  0.4425 -0.7072
 7195TIP3   OH242999   4.538   0.539  16.449  0.1733  0.4252 -0.5152
 7195TIP3    H143000   4.561   0.470  16.512 -0.8953  0.3397 -0.1865
 7195TIP3    H243001   4.582   0.513  16.368 -0.7199 -1.0168 -0.5807
 7196TIP3   OH243002   3.573   0.494  13.092 -0.1476  0.4746 -0.5592
 7196TIP3    H143003   3.567   0.529  13.003 -0.3400 -0.4724 -0.9338
 7196TIP3    H243004   3.550   0.401  13.083  1.4255 -0.0220  0.2217
 7197TIP3   OH243005   3.496   6.206  17.276  0.3309 -0.4103 -0.3595
 7197TIP3    H143006   3.468   6.255  17.199  0.6124  2.0765  1.0107
 7197TIP3    H243007   3.543   6.130  17.240  1.6511  1.3644 -2.6601
 7198TIP3   OH243008   3.822   5.899  12.702  0.1330 -0.2720  0.3805
 7198TIP3    H143009   3.884   5.905  12.629 -0.6200 -1.6805 -0.4142
 7198TIP3    H243010   3.858   5.958  12.769 -0.4276  3.0477 -1.9698
 7199TIP3   OH243011   2.323   6.429   1.731  0.0892  0.2043  0.2184
 7199TIP3    H143012   2.260   6.440   1.802 -1.3421  0.2304 -1.0102
 7199TIP3    H243013   2.346   6.518   1.705 -0.9588  0.2220 -0.6825
 7200TIP3   OH243014   2.962   4.968  15.862 -0.5062 -0.2925 -0.0497
 7200TIP3    H143015   2.905   5.016  15.922  2.4450  1.5265  1.5357
 7200TIP3    H243016   3.033   4.936  15.917  0.5441 -1.6258 -2.0594
 7201TIP3   OH243017   5.336   2.489  14.381 -0.2074 -0.1074  0.4057
 7201TIP3    H143018   5.300   2.409  14.419 -1.4200 -0.1291 -0.7217
 7201TIP3    H243019   5.430   2.484  14.399 -0.1905 -2.0116 -0.0387
 7202TIP3   OH243020   3.444   0.485  15.332 -0.3235 -0.1848  0.0217
 7202TIP3    H143021   3.405   0.514  15.415 -0.1618  0.4942 -0.1305
 7202TIP3    H243022   3.530   0.527  15.331 -0.5915  0.3678 -0.8007
 7203TIP3   OH243023   5.455   6.360  13.501  0.0994  0.9057 -0.2754
 7203TIP3    H143024   5.538   6.347  13.454 -1.5424 -0.8669 -2.9447
 7203TIP3    H243025   5.412   6.275  13.498 -1.1994  1.3446  2.4992
 7204TIP3   OH243026   1.688   4.190  12.028 -0.2285 -0.1040 -0.0789
 7204TIP3    H143027   1.665   4.283  12.035  0.5778  0.0180  1.4772
 7204TIP3    H243028   1.667   4.154  12.115  0.7691 -1.0574 -0.2178
 7205TIP3   OH243029   2.241   6.662   2.859  0.1296  0.1819 -0.2247
 7205TIP3    H143030   2.335   6.650   2.846  0.0555 -0.5313 -0.1214
 7205TIP3    H243031   2.219   6.606   2.933 -0.1372  1.3650  0.6173
 7206TIP3   OH243032   1.897   6.195   2.339 -0.1847 -0.5448  0.1141
 7206TIP3    H143033   1.922   6.242   2.260 -1.9825  0.2272 -0.0439
 7206TIP3    H243034   1.950   6.235   2.409 -1.4637  1.6353 -0.0561
 7207TIP3   OH243035   2.903   0.296   4.565  0.6680  0.2670 -0.0648
 7207TIP3    H143036   2.848   0.248   4.627  0.8976  0.1654  0.0636
 7207TIP3    H243037   2.852   0.297   4.484 -0.4786  2.0710  0.6331
 7208TIP3   OH243038   0.279   0.874  16.664  0.1719  0.2236  0.0935
 7208TIP3    H143039   0.235   0.927  16.596  0.6285  1.3300  0.6334
 7208TIP3    H243040   0.316   0.800  16.616  0.6046  1.0580 -0.9006
 7209TIP3   OH243041   6.754   6.765   2.088 -0.0935  0.6728  0.3443
 7209TIP3    H143042   6.812   6.694   2.116 -1.2614 -0.8025 -0.7870
 7209TIP3    H243043   6.753   6.826   2.162  0.5151 -0.7637  1.5879
 7210TIP3   OH243044   1.001   3.394   3.781  0.3943 -0.1082 -0.3547
 7210TIP3    H143045   1.026   3.468   3.836  0.2175  0.3336 -0.8619
 7210TIP3    H243046   1.015   3.425   3.691  1.2664 -1.0268 -0.5515
 7211TIP3   OH243047   0.294   0.322  16.748  0.1244 -0.7410 -0.0322
 7211TIP3    H143048   0.342   0.330  16.831 -0.7146 -1.3522  0.5223
 7211TIP3    H243049   0.277   0.413  16.721  1.0436 -0.5265  0.0702
 7212TIP3   OH243050   2.960   3.828   0.166  0.2730  0.2514 -0.0208
 7212TIP3    H143051   2.909   3.825   0.247 -0.6616 -0.9674 -0.6205
 7212TIP3    H243052   2.921   3.898   0.115 -1.4858 -1.2710 -0.8662
 7213TIP3   OH243053   6.657   3.242   5.585  0.0317 -0.1226 -0.5354
 7213TIP3    H143054   6.682   3.155   5.615  0.9559 -0.3260 -1.8327
 7213TIP3    H243055   6.640   3.232   5.491 -2.7270  0.5040 -0.1761
 7214TIP3   OH243056   1.408   3.615  16.067 -0.4117  0.2213  0.2338
 7214TIP3    H143057   1.341   3.597  16.132 -0.3835  0.4125  0.3156
 7214TIP3    H243058   1.361   3.621  15.984 -0.3683 -0.6649  0.1389
 7215TIP3   OH243059   4.849   0.901  11.991  0.3259  0.5327  0.4045
 7215TIP3    H143060   4.896   0.968  11.941  1.0220 -0.5305 -0.4298
 7215TIP3    H243061   4.874   0.918  12.082  1.5339  0.6376  0.0786
 7216TIP3   OH243062   6.559   2.298  16.552 -0.6110 -0.0475  0.4160
 7216TIP3    H143063   6.589   2.281  16.641 -0.1917  0.0658  0.3017
 7216TIP3    H243064   6.550   2.394  16.548  0.3286  0.0437  0.0507
 7217TIP3   OH243065   5.237   4.339   0.341 -0.2097  0.3374  0.5377
 7217TIP3    H143066   5.305   4.396   0.303  0.0982 -0.2715  0.1666
 7217TIP3    H243067   5.164   4.346   0.280  1.4345 -3.2585 -2.1614
 7218TIP3   OH243068   4.310   2.900   2.719 -0.1898  0.3635  0.1265
 7218TIP3    H143069   4.330   2.988   2.750  0.5712  0.2911 -0.1332
 7218TIP3    H243070   4.389   2.849   2.738 -0.1407  0.0500 -0.8633
 7219TIP3   OH243071   0.888   4.099   0.869 -0.0777 -0.5922  0.0069
 7219TIP3    H143072   0.793   4.104   0.861 -0.3459 -2.4161  1.3009
 7219TIP3    H243073   0.906   4.005   0.876  1.7515 -0.2380  0.4316
 7220TIP3   OH243074   6.190   5.744   2.686  0.2132 -0.4402  0.5031
 7220TIP3    H143075   6.203   5.799   2.608  2.3842 -1.3109  0.2021
 7220TIP3    H243076   6.175   5.656   2.651 -0.2357 -0.5857  1.0532
 7221TIP3   OH243077   0.911   5.633   5.084 -0.5219  0.1415  0.0211
 7221TIP3    H143078   0.964   5.619   5.162 -1.1297 -3.0267  0.0070
 7221TIP3    H243079   0.975   5.639   5.013 -0.0510 -0.9191  0.3320
 7222TIP3   OH243080   5.567   4.356  16.886  0.0065 -0.1728  0.2176
 7222TIP3    H143081   5.570   4.413  16.809 -1.3321 -0.8216 -0.3620
 7222TIP3    H243082   5.631   4.287  16.868  1.3914  0.9211  0.7732
 7223TIP3   OH243083   1.217   3.036  17.261  0.3982  0.0402  0.2757
 7223TIP3    H143084   1.225   2.943  17.240 -0.6859  0.2962 -1.4056
 7223TIP3    H243085   1.135   3.043  17.310 -0.4601  0.3405 -1.1759
 7224TIP3   OH243086   1.678   6.315   5.428 -0.4066 -0.3830  0.4771
 7224TIP3    H143087   1.737   6.243   5.451  1.6960  1.2230  0.3894
 7224TIP3    H243088   1.637   6.341   5.510  0.4762 -0.2952  0.8994
 7225TIP3   OH243089   0.118   5.947  14.932 -0.2741 -0.4594 -0.0160
 7225TIP3    H143090   0.136   5.954  14.838 -1.1363  2.5164 -0.0383
 7225TIP3    H243091   0.199   5.910  14.968  0.6264 -0.3182 -1.7615
 7226TIP3   OH243092   2.937   5.475  16.347  0.4920 -0.0227  0.3336
 7226TIP3    H143093   3.006   5.473  16.280  0.8645  2.4877  0.5490
 7226TIP3    H243094   2.979   5.442  16.426  0.7108 -0.8571 -0.1234
 7227TIP3   OH243095   1.437   0.597   0.860  0.3703  0.1439 -0.1859
 7227TIP3    H143096   1.477   0.624   0.943  0.7262  0.5473 -0.4827
 7227TIP3    H243097   1.479   0.652   0.794  0.9983 -1.0426 -0.7969
 7228TIP3   OH243098   1.739   4.944   1.349 -0.4978 -0.3877 -0.2416
 7228TIP3    H143099   1.683   4.925   1.274  1.9526 -0.7776 -2.0852
 7228TIP3    H243100   1.785   4.862   1.366 -0.0614  0.0635  0.8414
 7229TIP3   OH243101   4.335   5.924  13.626 -0.4373  0.0719  0.2006
 7229TIP3    H143102   4.293   5.966  13.551 -0.5222  0.3558  0.4055
 7229TIP3    H243103   4.285   5.844  13.641 -0.6240  0.1792  0.1558
 7230TIP3   OH243104   0.192   3.548   1.568  0.3444  0.5571  0.4317
 7230TIP3    H143105   0.167   3.638   1.544 -0.9698  0.5425  1.5828
 7230TIP3    H243106   0.233   3.558   1.655 -1.7793 -0.1504  1.5705
 7231TIP3   OH243107   5.403   0.083   2.421 -0.7254 -0.5183 -0.1146
 7231TIP3    H143108   5.466   0.070   2.492 -3.0130 -0.4872  2.0566
 7231TIP3    H243109   5.435   0.161   2.375 -0.0896  0.5820  2.0420
 7232TIP3   OH243110   1.524   4.049  12.766  0.1542  0.8177  0.3125
 7232TIP3    H143111   1.613   4.052  12.801  0.2098  0.8459  0.1686
 7232TIP3    H243112   1.470   4.018  12.840  0.0143  2.4822  0.9481
 7233TIP3   OH243113   5.187   6.232   2.985 -0.4281 -0.1812  0.4621
 7233TIP3    H143114   5.118   6.165   2.985  1.2570 -1.9843  0.2778
 7233TIP3    H243115   5.201   6.253   3.077  0.1111 -1.2738  0.6438
 7234TIP3   OH243116   5.942   4.197   3.883 -0.6497  0.2801 -0.2846
 7234TIP3    H143117   5.889   4.275   3.867 -2.3280 -0.1554  2.4918
 7234TIP3    H243118   6.031   4.230   3.897 -0.9097  1.4344 -1.2309
 7235TIP3   OH243119   4.181   3.517   4.835  0.5787  0.3787  0.3132
 7235TIP3    H143120   4.182   3.422   4.830  1.0246  0.4238 -0.6839
 7235TIP3    H243121   4.157   3.536   4.925 -0.6154 -0.6710  0.2437
 7236TIP3   OH243122   1.176   2.274  13.186 -0.2713  0.1027 -0.0048
 7236TIP3    H143123   1.109   2.209  13.169  0.2463 -0.3212 -0.4706
 7236TIP3    H243124   1.241   2.229  13.240  1.1444 -0.4626 -2.0602
 7237TIP3   OH243125   3.861   6.094  15.828 -0.4702  1.0495  0.4714
 7237TIP3    H143126   3.956   6.105  15.822 -0.3643  0.8445  1.4899
 7237TIP3    H243127   3.825   6.160  15.769  0.3259 -0.1578 -1.4807
 7238TIP3   OH243128   3.070   3.667   2.468 -0.1157 -0.3051  0.2016
 7238TIP3    H143129   3.024   3.589   2.500  0.5145 -0.1820  1.4767
 7238TIP3    H243130   3.016   3.740   2.498  0.4382 -0.1908  0.9470
 7239TIP3   OH243131   5.288   6.191  12.591 -0.1302 -0.0681  0.5845
 7239TIP3    H143132   5.304   6.283  12.570 -0.3369 -0.3671 -0.9854
 7239TIP3    H243133   5.197   6.188  12.620  0.0308  0.2893  1.1433
 7240TIP3   OH243134   1.500   5.377  12.106  0.5612  0.0582 -0.0673
 7240TIP3    H143135   1.444   5.405  12.034 -2.4042 -0.5121  1.8203
 7240TIP3    H243136   1.575   5.436  12.104 -0.1327  0.9694 -2.6742
 7241TIP3   OH243137   2.859   6.559  16.425 -0.0276 -0.1739  0.1419
 7241TIP3    H143138   2.851   6.562  16.520 -1.2010  0.8202  0.0425
 7241TIP3    H243139   2.769   6.549  16.393  0.5024 -2.4652 -0.8490
 7242TIP3   OH243140   3.141   4.141   2.788  0.2352  0.0249  0.6553
 7242TIP3    H143141   3.215   4.132   2.728 -1.1129  1.2036 -1.3119
 7242TIP3    H243142   3.150   4.230   2.824 -0.8293  0.6420 -0.5323
 7243TIP3   OH243143   3.641   2.914  11.466 -0.1208 -0.0308 -0.4628
 7243TIP3    H143144   3.647   2.974  11.540 -1.9433 -1.8633  1.3360
 7243TIP3    H243145   3.552   2.879  11.471  0.2741 -1.5369 -2.4962
 7244TIP3   OH243146   5.323   1.928  10.711  0.1059  0.8779 -0.2127
 7244TIP3    H143147   5.340   1.859  10.775 -2.0454  0.3358 -0.1442
 7244TIP3    H243148   5.347   2.009  10.757 -0.0892  0.3942  0.7749
 7245TIP3   OH243149   5.605   1.375   0.136 -0.0812 -0.6410  0.5417
 7245TIP3    H143150   5.560   1.331   0.064 -0.6626 -0.0099  0.5160
 7245TIP3    H243151   5.617   1.307   0.202 -0.0870 -1.0759  0.0999
 7246TIP3   OH243152   5.556   3.491   5.650 -0.3754  0.0662 -0.2256
 7246TIP3    H143153   5.465   3.487   5.681 -0.4185  0.3100 -0.3174
 7246TIP3    H243154   5.573   3.584   5.638 -0.2156  0.0002 -0.5143
 7247TIP3   OH243155   1.686   6.235  14.088 -0.2174 -0.6437  0.5638
 7247TIP3    H143156   1.771   6.228  14.132 -0.6902  1.1023  1.9100
 7247TIP3    H243157   1.640   6.302  14.138 -0.8381  1.5060 -2.5688
 7248TIP3   OH243158   0.962   1.051  15.766  0.3555 -0.1434 -0.0527
 7248TIP3    H143159   0.897   1.089  15.708  0.4118 -0.0076 -0.0276
 7248TIP3    H243160   0.966   0.959  15.741  1.3161  0.1754 -1.1466
 7249TIP3   OH243161   4.972   1.675   4.652  0.4617 -0.3719  0.5945
 7249TIP3    H143162   4.976   1.685   4.747 -1.5475 -0.9346  0.7960
 7249TIP3    H243163   4.896   1.618   4.638 -0.8107  1.6527 -1.4409
 7250TIP3   OH243164   2.591   3.730   3.234 -0.3048  0.8294  0.4544
 7250TIP3    H143165   2.501   3.755   3.252  0.0778  3.1429 -0.4007
 7250TIP3    H243166   2.634   3.813   3.211  1.7215 -0.3863 -0.3929
 7251TIP3   OH243167   6.607   2.135  11.308 -0.1345 -0.3197  0.4068
 7251TIP3    H143168   6.608   2.227  11.281  2.2241  0.6265  3.1767
 7251TIP3    H243169   6.622   2.086  11.227 -2.5101  1.5798 -1.3305
 7252TIP3   OH243170   0.548   0.338  13.417  0.3222 -0.1794  0.2606
 7252TIP3    H143171   0.476   0.279  13.440  0.1723  0.1672  0.7043
 7252TIP3    H243172   0.616   0.281  13.382 -0.7150 -0.3695 -1.5821
 7253TIP3   OH243173   4.474   5.194  11.514  0.2924 -0.3662  0.1825
 7253TIP3    H143174   4.447   5.103  11.526  0.6652 -0.6408 -0.9309
 7253TIP3    H243175   4.530   5.213  11.589 -1.4790 -0.3673  1.5642
 7254TIP3   OH243176   5.963   0.756  10.728 -0.7169  1.2505 -0.0201
 7254TIP3    H143177   5.951   0.848  10.705  0.6952  1.1064 -1.4771
 7254TIP3    H243178   5.999   0.716  10.649 -1.3891 -0.5889  0.5499
 7255TIP3   OH243179   2.222   3.850  16.848  0.8498  0.5219  0.0003
 7255TIP3    H143180   2.208   3.781  16.912  0.8867  0.3956 -0.1254
 7255TIP3    H243181   2.288   3.814  16.788 -0.0719  0.1463 -0.8248
 7256TIP3   OH243182   1.201   5.541  13.711 -0.1116 -0.4292  0.5655
 7256TIP3    H143183   1.189   5.606  13.641 -1.2697 -1.8644 -0.6092
 7256TIP3    H243184   1.296   5.540  13.725 -0.0138  1.1101  0.2253
 7257TIP3   OH243185   0.423   0.338   4.885 -0.2608  0.0613  0.2078
 7257TIP3    H143186   0.368   0.260   4.872 -1.1142  0.5762  0.6150
 7257TIP3    H243187   0.474   0.345   4.804  0.8864 -1.7214  0.7216
 7258TIP3   OH243188   3.521   2.657  13.214 -0.4331  0.4332  0.0312
 7258TIP3    H143189   3.460   2.729  13.230 -2.8443 -1.3316 -0.7700
 7258TIP3    H243190   3.483   2.582  13.260  0.0430 -1.2211 -2.0933
 7259TIP3   OH243191   3.462   4.248  10.960 -0.3347 -0.2870  0.4754
 7259TIP3    H143192   3.430   4.173  11.012  1.0428 -0.0494  1.7473
 7259TIP3    H243193   3.417   4.323  10.997 -0.2691 -0.2650  0.5114
 7260TIP3   OH243194   0.617   3.821   6.148 -0.0506 -0.1279  0.4431
 7260TIP3    H143195   0.698   3.860   6.181 -0.3195 -0.3637  1.4322
 7260TIP3    H243196   0.611   3.737   6.194 -1.1475  0.1531  0.8366
 7261TIP3   OH243197   6.222   4.142  12.838  0.2649  0.0573  0.4429
 7261TIP3    H143198   6.255   4.179  12.920  1.4583 -0.8400  0.3973
 7261TIP3    H243199   6.153   4.081  12.866  1.9295 -1.6601  0.9841
 7262TIP3   OH243200   2.297   2.271   0.033  0.1064 -0.0362 -0.2214
 7262TIP3    H143201   2.245   2.309   0.104  1.0828  2.3607 -0.6827
 7262TIP3    H243202   2.252   2.299  -0.047  0.4807 -0.4449 -0.5775
 7263TIP3   OH243203   4.130   5.788   3.842  0.1824  0.3047 -0.0365
 7263TIP3    H143204   4.139   5.702   3.800  0.1722  0.6478 -0.7516
 7263TIP3    H243205   4.215   5.829   3.831  0.2150  0.3571  0.3868
 7264TIP3   OH243206   3.502   3.857   4.999 -0.0966 -0.2898  0.6239
 7264TIP3    H143207   3.581   3.851   5.053 -0.2758 -0.6118  0.8519
 7264TIP3    H243208   3.501   3.947   4.967 -0.3686  0.1122  1.7336
 7265TIP3   OH243209   2.996   6.516   2.564  0.2151 -0.1749 -0.0108
 7265TIP3    H143210   3.006   6.488   2.655  2.5070  0.5519  0.0404
 7265TIP3    H243211   2.988   6.434   2.514 -2.4495 -0.5464  0.9041
 7266TIP3   OH243212   5.592   6.582   3.202 -1.0114 -0.4798 -0.6321
 7266TIP3    H143213   5.577   6.611   3.292  1.9808 -1.5259  0.3274
 7266TIP3    H243214   5.529   6.512   3.188 -1.8249  0.0073  0.4793
 7267TIP3   OH243215   2.123   2.988  12.499  0.3674  0.1464 -0.1024
 7267TIP3    H143216   2.194   2.940  12.542 -0.4966  0.0370  1.2763
 7267TIP3    H243217   2.077   2.923  12.448 -0.5684 -0.4743  1.4546
 7268TIP3   OH243218   4.291   6.498  12.309  0.2698 -0.1045 -0.3687
 7268TIP3    H143219   4.274   6.453  12.226  0.0790  1.3680 -1.1546
 7268TIP3    H243220   4.253   6.585  12.298  0.4149  0.1932  1.1998
 7269TIP3   OH243221   5.462   5.707   0.074 -0.1013  0.0337  0.1710
 7269TIP3    H143222   5.533   5.753   0.029 -0.2626 -1.5027 -1.7932
 7269TIP3    H243223   5.504   5.667   0.150  0.8871  0.1988 -0.2699
 7270TIP3   OH243224   2.962   0.824   5.795  0.0275 -0.0266  0.1004
 7270TIP3    H143225   2.945   0.898   5.736 -2.1212  0.3530  1.0900
 7270TIP3    H243226   2.969   0.865   5.882 -2.0357 -0.9946  0.7836
 7271TIP3   OH243227   5.196   1.841   5.801 -0.2428  0.1120  0.5076
 7271TIP3    H143228   5.166   1.928   5.827 -0.2023  1.4084 -3.1500
 7271TIP3    H243229   5.280   1.830   5.846  0.0168  2.2430  0.6616
 7272TIP3   OH243230   4.216   1.354  14.357 -0.5873  0.1371  0.4420
 7272TIP3    H143231   4.127   1.321  14.348 -0.7153  0.1062  1.6230
 7272TIP3    H243232   4.261   1.324  14.278 -1.7108  0.4637 -0.3351
 7273TIP3   OH243233   0.261   5.250   1.650  0.9032 -0.1970 -0.4272
 7273TIP3    H143234   0.337   5.269   1.704  2.0309  0.3897 -2.1217
 7273TIP3    H243235   0.279   5.163   1.613  0.1559 -0.5875  0.1077
 7274TIP3   OH243236   0.489   4.138   2.944 -0.3197 -0.8322 -0.2285
 7274TIP3    H143237   0.507   4.205   2.878 -0.2473  0.2877  0.8895
 7274TIP3    H243238   0.419   4.177   2.998 -1.8857 -2.5927 -0.8787
 7275TIP3   OH243239   0.799   1.306   6.655 -0.4864  0.2412 -0.2135
 7275TIP3    H143240   0.745   1.255   6.715 -0.6440  2.3389  1.5607
 7275TIP3    H243241   0.777   1.272   6.568 -1.5817 -1.7013  0.7569
 7276TIP3   OH243242   6.067   0.330   6.219 -0.3077 -0.0746  0.2245
 7276TIP3    H143243   6.097   0.408   6.173 -2.2054 -0.6446 -2.1618
 7276TIP3    H243244   5.979   0.352   6.249 -0.3597 -0.8689  0.6746
 7277TIP3   OH243245   0.591   6.669   1.685  1.1395 -0.2925  0.0984
 7277TIP3    H143246   0.528   6.615   1.637  1.5494 -0.1552 -0.6206
 7277TIP3    H243247   0.668   6.670   1.628  0.9537  1.5017 -0.1596
 7278TIP3   OH243248   1.622   1.416   3.675  0.0650  0.0110  0.2827
 7278TIP3    H143249   1.696   1.393   3.731  0.2919  0.7613  0.3010
 7278TIP3    H243250   1.645   1.379   3.590  0.6027  0.4831  0.2156
 7279TIP3   OH243251   3.479   1.186   3.232  0.0955  0.3047 -0.1419
 7279TIP3    H143252   3.509   1.159   3.319  1.0173  0.6699 -0.3387
 7279TIP3    H243253   3.473   1.282   3.238  3.3092  0.7140 -1.3888
 7280TIP3   OH243254   6.533   4.171  13.668  0.0060 -0.1132 -0.1382
 7280TIP3    H143255   6.575   4.162  13.753  0.9445  0.2519 -0.5446
 7280TIP3    H243256   6.440   4.156  13.685 -0.1474  2.0147  1.3238
 7281TIP3   OH243257   1.877   3.709   5.781  0.4618 -0.8491  0.3842
 7281TIP3    H143258   1.958   3.673   5.815  1.7410  0.3049 -1.2938
 7281TIP3    H243259   1.876   3.686   5.688 -0.6703 -0.0747  0.1702
 7282TIP3   OH243260   6.115   2.126  12.009 -0.0760  0.2527 -0.0628
 7282TIP3    H143261   6.033   2.083  11.984  0.1351 -0.3401  0.2478
 7282TIP3    H243262   6.095   2.168  12.092 -0.0932  0.1882 -0.0337
 7283TIP3   OH243263   5.415   4.039  14.105 -0.0308  0.4824 -0.1580
 7283TIP3    H143264   5.443   4.122  14.067 -0.0434  0.7499  0.4204
 7283TIP3    H243265   5.404   3.981  14.029  0.0066  0.9954 -0.5587
 7284TIP3   OH243266   1.822   3.438  12.227 -0.2196 -0.4205 -0.1802
 7284TIP3    H143267   1.807   3.457  12.134 -0.2924 -2.0399 -0.5454
 7284TIP3    H243268   1.769   3.360  12.243  0.4053 -0.6117  1.0237
 7285TIP3   OH243269   1.077   0.695  15.476 -0.1978  0.0008  0.1030
 7285TIP3    H143270   0.995   0.727  15.516  1.3381  2.6529  1.4051
 7285TIP3    H243271   1.127   0.660  15.550  0.0801 -1.1252 -0.6022
 7286TIP3   OH243272   5.908   0.536  11.307  0.5288 -0.1635  0.3884
 7286TIP3    H143273   5.889   0.613  11.254 -1.8508  0.4483  1.9509
 7286TIP3    H243274   5.918   0.465  11.243 -1.1093  0.7348 -0.9561
 7287TIP3   OH243275   6.090   2.372  11.866  0.0159  0.2618 -0.4853
 7287TIP3    H143276   6.126   2.302  11.920 -0.7797  0.6012  0.5195
 7287TIP3    H243277   6.167   2.422  11.837  0.5160 -0.4568 -0.4379
 7288TIP3   OH243278   5.522   6.486  16.476 -0.2277  0.5983 -0.1743
 7288TIP3    H143279   5.535   6.543  16.551 -1.7643  0.5520  0.1580
 7288TIP3    H243280   5.427   6.478  16.467 -0.1019  0.6489 -2.1711
 7289TIP3   OH243281   4.439   3.259  13.139 -0.1155  0.0538 -0.6328
 7289TIP3    H143282   4.366   3.294  13.190  0.6055  0.5375  0.0735
 7289TIP3    H243283   4.481   3.336  13.101  1.5538  0.0090  1.0189
 7290TIP3   OH243284   2.084   0.200   0.032 -0.0997  0.0838 -0.6543
 7290TIP3    H143285   2.141   0.155  -0.031  1.5240 -0.7499  1.2755
 7290TIP3    H243286   2.123   0.287   0.042  0.2740 -0.1398 -0.0801
 7291TIP3   OH243287   0.062   4.766   4.440 -0.0716 -0.3824  0.2403
 7291TIP3    H143288   0.011   4.787   4.362  0.4322  1.9197  0.4841
 7291TIP3    H243289   0.002   4.783   4.513  0.6614  1.3122  0.4849
 7292TIP3   OH243290   4.191   0.534   5.484 -0.3995 -0.6235  0.3859
 7292TIP3    H143291   4.215   0.613   5.435 -0.1054 -0.9205  0.0361
 7292TIP3    H243292   4.103   0.512   5.453 -0.1270 -0.9386 -0.1940
 7293TIP3   OH243293   4.779   1.516   4.544  0.2868 -0.0675  0.4222
 7293TIP3    H143294   4.716   1.584   4.522  0.4456 -0.5003 -1.5384
 7293TIP3    H243295   4.743   1.436   4.504  1.4879 -0.5604  0.2762
 7294TIP3   OH243296   5.281   0.160   0.226 -0.0864  0.2603 -0.4404
 7294TIP3    H143297   5.185   0.158   0.225 -0.1363  1.1307  0.4611
 7294TIP3    H243298   5.303   0.161   0.319  0.8582 -1.2858 -0.6200
 7295TIP3   OH243299   2.189   4.655   5.991 -0.0137  0.1759  0.3065
 7295TIP3    H143300   2.141   4.723   6.037  0.5619  1.7186 -1.2714
 7295TIP3    H243301   2.132   4.630   5.918  0.1855 -0.3704  0.3280
 7296TIP3   OH243302   2.852   5.071   2.942 -0.5031  0.1728  0.1897
 7296TIP3    H143303   2.904   5.051   3.020 -0.9875  1.3028  0.8280
 7296TIP3    H243304   2.864   4.995   2.885 -0.2392 -0.7373  1.4150
 7297TIP3   OH243305   5.193   4.819   6.123 -0.0801  0.4268  0.1477
 7297TIP3    H143306   5.212   4.734   6.162  0.7232  0.1520 -0.8145
 7297TIP3    H243307   5.124   4.856   6.179 -0.0010 -0.5787  0.9366
 7298TIP3   OH243308   3.575   6.513   2.801  0.5353  0.7848  0.0578
 7298TIP3    H143309   3.644   6.549   2.857  0.2836  0.5476  0.5243
 7298TIP3    H243310   3.501   6.499   2.860 -0.5455  2.7225 -0.7578
 7299TIP3   OH243311   3.688   3.213  15.469  0.0914  0.0392  0.3844
 7299TIP3    H143312   3.717   3.149  15.534  0.6771 -0.3474 -0.2460
 7299TIP3    H243313   3.606   3.247  15.504 -0.1460 -0.9370  0.8078
 7300TIP3   OH243314   2.169   4.932   0.932 -0.1131 -0.4364  0.4782
 7300TIP3    H143315   2.195   4.903   1.019  1.8183  3.5884  1.4479
 7300TIP3    H243316   2.139   5.022   0.944 -0.8858 -0.1133 -2.8756
 7301TIP3   OH243317   1.295   3.788  11.437  0.1136  0.2836 -0.2205
 7301TIP3    H143318   1.329   3.716  11.492 -0.5583 -0.0410 -0.2248
 7301TIP3    H243319   1.370   3.846  11.425  1.2644 -1.4321 -1.9255
 7302TIP3   OH243320   2.399   0.182  11.927  0.7493  0.1832  0.0067
 7302TIP3    H143321   2.476   0.179  11.869  0.4448 -2.9718 -0.4114
 7302TIP3    H243322   2.333   0.230  11.877  0.7362 -1.8212 -2.0656
 7303TIP3   OH243323   6.686   0.844  17.032 -0.0334 -0.6425 -0.1812
 7303TIP3    H143324   6.768   0.870  16.989 -0.6656  0.4043 -0.7946
 7303TIP3    H243325   6.652   0.774  16.976 -1.1045  1.0451 -1.7832
 7304TIP3   OH243326   0.966   2.496   5.077  0.4138  0.3055  0.3919
 7304TIP3    H143327   0.996   2.550   5.004 -0.0436 -1.0447 -0.8509
 7304TIP3    H243328   0.874   2.519   5.088  0.5447  0.6827  0.7108
 7305TIP3   OH243329   5.006   3.914   3.707  0.2766 -0.5319 -0.4209
 7305TIP3    H143330   5.007   3.894   3.801 -1.6828  0.8085 -0.0593
 7305TIP3    H243331   4.940   3.856   3.670 -3.0674  2.5792  0.0921
 7306TIP3   OH243332   5.242   6.557   0.179 -0.0256 -0.1297 -0.0023
 7306TIP3    H143333   5.172   6.494   0.162 -1.2546  0.7680  1.4362
 7306TIP3    H243334   5.266   6.591   0.093 -0.6612 -1.1643 -0.6146
 7307TIP3   OH243335   1.778   0.115   5.086 -0.0734  0.1411 -0.5111
 7307TIP3    H143336   1.746   0.205   5.099  0.4176  0.3352 -0.6147
 7307TIP3    H243337   1.702   0.060   5.104 -0.7028  0.6278 -1.5721
 7308TIP3   OH243338   1.042   4.495  15.806 -0.4196  0.5931 -0.3279
 7308TIP3    H143339   1.109   4.524  15.743 -1.1076  1.7165 -0.5764
 7308TIP3    H243340   0.976   4.451  15.752 -1.9595  3.2080 -0.7597
 7309TIP3   OH243341   6.025   6.651  11.250  0.1632  0.5211 -0.7480
 7309TIP3    H143342   5.964   6.716  11.215 -1.1978  0.8581  1.9935
 7309TIP3    H243343   6.046   6.682  11.338  0.3239 -2.2024  0.2704
 7310TIP3   OH243344   5.995   0.490  13.448 -0.5566  0.1073  0.0266
 7310TIP3    H143345   6.005   0.439  13.528  1.1721  0.2003 -0.0887
 7310TIP3    H243346   6.011   0.581  13.475 -1.6656  0.3526 -0.1211
 7311TIP3   OH243347   3.485   6.419  11.348 -0.3590  0.1984  0.0340
 7311TIP3    H143348   3.453   6.470  11.273 -1.5309  0.4969  0.7032
 7311TIP3    H243349   3.568   6.383  11.319  0.1169  1.8317 -0.7618
 7312TIP3   OH243350   2.621   6.508   5.493  0.1650 -0.4665 -0.4557
 7312TIP3    H143351   2.662   6.514   5.579  1.9795 -0.6447 -1.2632
 7312TIP3    H243352   2.583   6.420   5.491 -1.1242  0.0218  0.6391
 7313TIP3   OH243353   0.190   3.658   3.978  0.1906  0.0418  0.2628
 7313TIP3    H143354   0.119   3.607   4.018 -0.5534  1.0458  0.2460
 7313TIP3    H243355   0.154   3.745   3.967  0.8310  0.1365 -1.3911
 7314TIP3   OH243356   5.431   2.360  15.234 -0.1684 -0.1811 -0.3709
 7314TIP3    H143357   5.514   2.380  15.192 -0.9381  1.0139 -1.3870
 7314TIP3    H243358   5.411   2.270  15.208  2.3290 -1.7613  2.5462
 7315TIP3   OH243359   2.944   0.840  12.298  0.1642 -0.6035 -1.2300
 7315TIP3    H143360   3.024   0.887  12.274 -0.0105 -0.1945 -1.0261
 7315TIP3    H243361   2.878   0.873  12.237  0.6800 -2.7578 -3.0756
 7316TIP3   OH243362   5.945   5.555   1.298 -0.7576 -0.0547  0.2143
 7316TIP3    H143363   5.938   5.470   1.341 -2.1089 -1.7630 -3.0662
 7316TIP3    H243364   5.863   5.565   1.250 -0.0100  2.4188 -0.6995
 7317TIP3   OH243365   3.180   2.679   3.887  0.0750 -0.2467 -0.2719
 7317TIP3    H143366   3.131   2.639   3.815 -0.0295 -1.5391  0.4836
 7317TIP3    H243367   3.144   2.767   3.895 -1.4030 -0.8041 -0.4386
 7318TIP3   OH243368   6.144   5.577   4.628 -0.0422  0.3446 -0.6064
 7318TIP3    H143369   6.188   5.617   4.704 -0.0424  2.0456 -1.4430
 7318TIP3    H243370   6.081   5.516   4.667  1.9544 -1.0431  0.6619
 7319TIP3   OH243371   2.431   1.397  16.488  0.2975  0.5357  0.3828
 7319TIP3    H143372   2.446   1.421  16.396 -0.0601 -2.3381 -0.5238
 7319TIP3    H243373   2.518   1.375  16.521  0.2109 -0.0754  0.2069
 7320TIP3   OH243374   4.368   2.207  15.792  0.1776  0.1170 -0.1171
 7320TIP3    H143375   4.397   2.263  15.720  0.6177  0.5929  0.4215
 7320TIP3    H243376   4.377   2.262  15.870 -0.2624 -0.4030  0.3028
 7321TIP3   OH243377   3.934   6.361   4.395  0.8132  0.4566 -0.7782
 7321TIP3    H143378   3.999   6.310   4.442  0.0283 -0.6630 -0.8698
 7321TIP3    H243379   3.860   6.301   4.383 -0.7804  2.0635  0.4786
 7322TIP3   OH243380   5.953   6.578   0.817  0.3027  0.2903  0.3653
 7322TIP3    H143381   5.930   6.546   0.730  0.3794  1.5803 -0.1492
 7322TIP3    H243382   5.913   6.665   0.822  0.4739  0.3178  1.5429
 7323TIP3   OH243383   5.002   4.500  11.609 -0.0503 -0.1199 -0.1478
 7323TIP3    H143384   4.926   4.445  11.588  0.9233 -0.9073 -1.8018
 7323TIP3    H243385   5.036   4.463  11.690  0.8553 -2.3619 -1.4424
 7324TIP3   OH243386   4.262   3.056   2.157 -0.5862 -1.0658 -0.3979
 7324TIP3    H143387   4.298   3.068   2.244  0.2750 -2.4251 -0.5381
 7324TIP3    H243388   4.179   3.010   2.172 -1.2775  0.2121 -0.2068
 7325TIP3   OH243389   3.265   6.214  16.701 -0.1130 -0.2371  0.5327
 7325TIP3    H143390   3.261   6.298  16.747 -1.4760 -0.9455  1.7628
 7325TIP3    H243391   3.242   6.236  16.610 -2.0897  0.5189  1.1570
 7326TIP3   OH243392   3.924   1.324   1.774 -0.3145  1.0174 -0.4039
 7326TIP3    H143393   3.967   1.398   1.817 -0.7203  0.9392  0.1464
 7326TIP3    H243394   3.884   1.362   1.696  1.4108  0.9490 -1.3774
 7327TIP3   OH243395   1.313   2.249  12.014 -0.1769  0.8130  0.6898
 7327TIP3    H143396   1.372   2.270  11.941 -0.8744  1.0034  0.1694
 7327TIP3    H243397   1.340   2.161  12.041  1.0054  1.2862  1.1287
 7328TIP3   OH243398   6.547   0.327   4.591 -0.6664 -0.5689  0.8254
 7328TIP3    H143399   6.641   0.330   4.607 -0.3768 -0.8848 -0.6483
 7328TIP3    H243400   6.514   0.260   4.650 -0.2149  0.5085  2.3631
 7329TIP3   OH243401   2.567   0.075   1.229 -0.0057 -0.1437 -0.3375
 7329TIP3    H143402   2.644   0.019   1.221 -0.1936 -0.1921 -2.2669
 7329TIP3    H243403   2.594   0.145   1.289  1.1684 -0.7564 -0.1230
 7330TIP3   OH243404   3.007   1.998  13.982  0.4373  0.1424 -0.3022
 7330TIP3    H143405   3.055   1.983  14.064  0.1505  2.1782  0.2953
 7330TIP3    H243406   2.919   2.022  14.010 -0.5574 -1.9719 -1.3549
 7331TIP3   OH243407   0.463   6.324   2.337 -0.4298  0.0906  0.1223
 7331TIP3    H143408   0.430   6.274   2.262 -0.7686  1.5081 -0.7143
 7331TIP3    H243409   0.558   6.321   2.327 -0.3489 -1.6317  0.9554
 7332TIP3   OH243410   0.301   6.749   4.038  0.3495 -0.0540  0.1461
 7332TIP3    H143411   0.350   6.695   3.975  0.3103 -1.3845  1.2082
 7332TIP3    H243412   0.215   6.706   4.044 -0.1649  0.9402  0.0019
 7333TIP3   OH243413   2.580   4.849  10.467  0.0553  0.3550 -0.1195
 7333TIP3    H143414   2.565   4.816  10.556  1.1756 -0.2008 -0.1113
 7333TIP3    H243415   2.521   4.798  10.412 -1.1471  1.1728  0.3629
 7334TIP3   OH243416   0.501   0.055   6.453 -0.2187 -0.4356 -0.6156
 7334TIP3    H143417   0.421   0.003   6.460  1.6376 -3.6530 -1.2652
 7334TIP3    H243418   0.557   0.025   6.524  0.1839  2.4262  0.4275
 7335TIP3   OH243419   4.087   5.421  12.786 -0.1463 -0.1050  0.0192
 7335TIP3    H143420   4.001   5.395  12.752 -0.0222  0.5526 -0.8406
 7335TIP3    H243421   4.083   5.401  12.880 -1.9121  1.5692  0.3697
 7336TIP3   OH243422   1.895   5.208  12.559 -0.3065 -0.0007  0.3756
 7336TIP3    H143423   1.907   5.210  12.464 -0.2969 -0.6398  0.3614
 7336TIP3    H243424   1.882   5.300  12.583  1.5526  0.4002  0.0055
 7337TIP3   OH243425   0.646   6.747  13.916  0.7686 -0.4126 -0.4451
 7337TIP3    H143426   0.735   6.719  13.897  1.9406  1.6727  1.4866
 7337TIP3    H243427   0.631   6.822  13.858  0.9319  0.2793  0.3888
 7338TIP3   OH243428   0.835   6.172   6.136 -0.5976 -0.2459  0.1685
 7338TIP3    H143429   0.843   6.143   6.227  0.5306  2.5599  1.0640
 7338TIP3    H243430   0.808   6.264   6.143 -0.3669  0.0577 -2.3342
 7339TIP3   OH243431   5.348   4.841   0.874  0.7686  0.3395  0.2815
 7339TIP3    H143432   5.383   4.785   0.943 -0.5180 -0.3964  0.3518
 7339TIP3    H243433   5.353   4.787   0.795  1.4790  0.8946 -0.0721
 7340TIP3   OH243434   6.187   0.862  17.076  0.3867 -0.1919  0.3202
 7340TIP3    H143435   6.248   0.833  17.008  0.7579  0.0389  0.5507
 7340TIP3    H243436   6.111   0.804  17.067  1.0190 -1.0876  0.6204
 7341TIP3   OH243437   1.038   0.669  11.319 -0.3020  0.0076  0.4754
 7341TIP3    H143438   0.996   0.616  11.387 -1.9072  1.2155  0.4891
 7341TIP3    H243439   1.005   0.758  11.335 -0.5599  0.3678 -1.7320
 7342TIP3   OH243440   4.349   0.122   0.337  0.0629  0.0036 -0.2054
 7342TIP3    H143441   4.272   0.169   0.303 -0.9740 -1.5011 -0.0384
 7342TIP3    H243442   4.409   0.116   0.263 -0.4879  0.1777 -0.6692
 7343TIP3   OH243443   3.969   4.052  12.993  0.3806  0.0716 -0.5591
 7343TIP3    H143444   3.898   3.991  13.012 -0.6724  1.8668  1.7551
 7343TIP3    H243445   4.038   4.028  13.055  0.2100  0.7996 -0.0758
 7344TIP3   OH243446   3.210   2.271   5.044 -0.1445 -0.7250 -0.5690
 7344TIP3    H143447   3.188   2.179   5.059 -0.0185 -0.5734  0.7052
 7344TIP3    H243448   3.127   2.317   5.053  0.0911 -0.5196  0.8313
 7345TIP3   OH243449   4.725   0.536  11.228 -0.5121 -0.2813  0.6699
 7345TIP3    H143450   4.778   0.616  11.228 -1.1071  0.1214  0.6241
 7345TIP3    H243451   4.657   0.552  11.162 -0.5220 -0.9054  0.5198
 7346TIP3   OH243452   4.756   2.421  11.687 -0.0650  0.7920 -0.6031
 7346TIP3    H143453   4.705   2.401  11.608  0.1014  1.6255 -0.9241
 7346TIP3    H243454   4.756   2.516  11.693  1.3433  0.8069 -0.5197
 7347TIP3   OH243455   5.270   3.389   0.083  0.9335 -0.0892  0.3006
 7347TIP3    H143456   5.317   3.322   0.132  0.7601 -0.0872  0.4688
 7347TIP3    H243457   5.335   3.458   0.068  1.7304 -1.1848 -1.6701
 7348TIP3   OH243458   0.296   6.001  16.521  0.8277  0.5458 -0.6042
 7348TIP3    H143459   0.247   5.922  16.498 -0.4190  0.5140  1.7793
 7348TIP3    H243460   0.243   6.073  16.488 -0.3181  0.4649  0.9166
 7349TIP3   OH243461   2.432   1.168  15.534  0.2210 -0.3808  0.2209
 7349TIP3    H143462   2.447   1.237  15.470 -0.5353 -0.5850 -0.1909
 7349TIP3    H243463   2.460   1.205  15.618 -1.5516  0.9785  0.2650
 7350TIP3   OH243464   0.755   1.235  15.557 -0.1722 -0.2758  0.2489
 7350TIP3    H143465   0.687   1.230  15.625 -1.9780 -0.2938 -1.4705
 7350TIP3    H243466   0.724   1.176  15.488  0.0536  1.9471 -1.8772
 7351TIP3   OH243467   5.285   1.303  14.260 -0.6037  0.2464  0.0237
 7351TIP3    H143468   5.218   1.235  14.251  0.4291 -0.5265 -2.8532
 7351TIP3    H243469   5.269   1.361  14.185  0.3469  1.5701  0.8013
 7352TIP3   OH243470   5.913   5.956  15.277 -0.5028  0.1935 -0.5810
 7352TIP3    H143471   5.901   6.027  15.340 -0.2632  0.4638 -0.8408
 7352TIP3    H243472   5.836   5.900  15.290 -0.8231  0.6327 -0.5539
 7353TIP3   OH243473   5.456   0.839   3.869  0.3184  0.2074  0.5237
 7353TIP3    H143474   5.482   0.926   3.840  0.3758  1.1055  3.0239
 7353TIP3    H243475   5.377   0.819   3.819 -0.6436  2.4243  1.0533
 7354TIP3   OH243476   5.491   0.324  16.187  0.3218  0.1444 -0.2512
 7354TIP3    H143477   5.435   0.259  16.146  1.2080 -1.7415  1.3319
 7354TIP3    H243478   5.439   0.358  16.260  0.3102  0.2442 -0.3076
 7355TIP3   OH243479   2.042   2.480  14.279  0.7720  0.3846  0.3968
 7355TIP3    H143480   2.052   2.387  14.299 -0.0551  0.4551  1.1789
 7355TIP3    H243481   2.011   2.482  14.188 -1.8101 -0.2636  1.1738
 7356TIP3   OH243482   4.119   1.604  10.979  0.0281  0.0647 -0.8494
 7356TIP3    H143483   4.075   1.685  10.956  2.1700  1.5925  0.1519
 7356TIP3    H243484   4.049   1.549  11.015 -1.4217  1.5412 -1.2634
 7357TIP3   OH243485   0.065   3.193   2.546 -0.8399  0.0392  0.0676
 7357TIP3    H143486  -0.024   3.211   2.516 -1.4540 -1.2642  1.0352
 7357TIP3    H243487   0.055   3.154   2.633  0.7307  0.7351  0.6085
 7358TIP3   OH243488   0.043   0.965   3.921  0.1737 -0.1386  0.1316
 7358TIP3    H143489   0.133   0.936   3.908  0.0566 -0.8492  0.8488
 7358TIP3    H243490   0.007   0.971   3.833  1.2357  1.2051 -0.2467
 7359TIP3   OH243491   1.499   5.155  12.625  0.0830 -0.1339 -0.1795
 7359TIP3    H143492   1.549   5.080  12.594 -1.6613 -0.7172 -1.8412
 7359TIP3    H243493   1.452   5.123  12.702  0.4676 -0.2899 -0.0086
 7360TIP3   OH243494   4.781   2.345   1.470 -0.5203  0.4289 -0.2974
 7360TIP3    H143495   4.753   2.287   1.399  1.2260 -1.5405  0.5001
 7360TIP3    H243496   4.876   2.333   1.475 -0.5880  0.3060  2.4443
 7361TIP3   OH243497   1.190   5.057  12.408  0.3099  0.2628  0.9605
 7361TIP3    H143498   1.140   5.124  12.455  0.0138  1.7983 -1.3906
 7361TIP3    H243499   1.278   5.094  12.400  0.5158 -0.2540  0.8188
 7362TIP3   OH243500   0.483   6.293  13.335 -0.0836  0.0246 -0.3194
 7362TIP3    H143501   0.574   6.320  13.344 -0.0072 -0.2937 -0.1281
 7362TIP3    H243502   0.446   6.353  13.270 -0.2999  1.5720  1.1507
 7363TIP3   OH243503   6.016   2.233  15.899  0.4141  0.0493 -0.4961
 7363TIP3    H143504   6.089   2.206  15.954  0.3854 -1.4165 -1.1446
 7363TIP3    H243505   6.012   2.328  15.910  1.8839  0.0573  0.2004
 7364TIP3   OH243506   2.977   3.419  15.824 -0.4381  0.6067  0.0911
 7364TIP3    H143507   3.039   3.375  15.882  0.5372  1.4992 -0.2363
 7364TIP3    H243508   2.931   3.349  15.780  1.5247 -0.1327 -0.9106
 7365TIP3   OH243509   6.021   4.742  16.127  0.0518  0.1221 -0.5162
 7365TIP3    H143510   5.954   4.797  16.168  0.1347 -0.3313  0.2448
 7365TIP3    H243511   6.098   4.799  16.120  0.1448  0.1079  0.2887
 7366TIP3   OH243512   2.006   1.849  11.061 -0.1375  0.1674  0.2635
 7366TIP3    H143513   1.999   1.941  11.086 -2.8202  0.1143 -0.0803
 7366TIP3    H243514   1.959   1.843  10.977  0.0075 -1.5108  0.2655
 7367TIP3   OH243515   3.612   2.711   1.951  0.3947  0.5845  0.6585
 7367TIP3    H143516   3.676   2.640   1.949  0.8465  0.9874  0.6120
 7367TIP3    H243517   3.536   2.674   1.995 -0.4193 -0.7641 -1.7319
 7368TIP3   OH243518   2.270   2.177  14.490  0.3087  0.5088 -0.2119
 7368TIP3    H143519   2.220   2.163  14.410  1.3906  0.0685 -0.8314
 7368TIP3    H243520   2.205   2.205  14.555 -0.6710  0.2794 -1.0757
 7369TIP3   OH243521   4.653   2.312  10.359  0.2700 -0.1417 -0.5760
 7369TIP3    H143522   4.664   2.342  10.269 -1.7805  0.7162 -0.5892
 7369TIP3    H243523   4.702   2.375  10.412  0.9273 -0.2686 -1.0197
 7370TIP3   OH243524   5.456   0.201   1.962  0.1103 -0.4094 -0.0341
 7370TIP3    H143525   5.438   0.118   2.006  0.5664 -0.6276 -0.2471
 7370TIP3    H243526   5.434   0.185   1.870 -0.9369  0.0771  0.1214
 7371TIP3   OH243527   4.846   4.908   2.842  0.3474 -0.4395  0.0073
 7371TIP3    H143528   4.767   4.856   2.830  0.3805 -0.2151 -1.4012
 7371TIP3    H243529   4.826   4.966   2.915  0.0633 -1.9418  1.1624
 7372TIP3   OH243530   5.281   3.958   0.497 -0.2774 -0.1156  0.1518
 7372TIP3    H143531   5.189   3.940   0.519 -0.4547 -0.6517 -0.9553
 7372TIP3    H243532   5.329   3.882   0.529 -0.4705 -0.6656 -0.8124
 7373TIP3   OH243533   5.897   0.804   1.072  0.0412  0.2092 -0.8053
 7373TIP3    H143534   5.913   0.867   1.002 -1.2972  2.0768  0.4657
 7373TIP3    H243535   5.830   0.845   1.126  1.3350 -0.9120  1.8424
 7374TIP3   OH243536   1.089   1.219  12.625 -0.4154 -0.2629 -0.0681
 7374TIP3    H143537   1.157   1.229  12.692 -0.0336  2.6583 -0.7288
 7374TIP3    H243538   1.088   1.304  12.580 -3.1338 -0.8990 -1.4041
 7375TIP3   OH243539   4.832   4.129  16.375  0.5612  0.1232  0.6302
 7375TIP3    H143540   4.739   4.149  16.366  0.6029 -0.1602 -0.6772
 7375TIP3    H243541   4.867   4.202  16.427 -0.4467  0.0206  1.4943
 7376TIP3   OH243542   5.413   4.442   0.693  0.3379 -0.0116  0.0540
 7376TIP3    H143543   5.459   4.408   0.771 -1.8056 -2.2513  0.4680
 7376TIP3    H243544   5.429   4.376   0.626 -0.8512  0.0296 -0.2855
 7377TIP3   OH243545   4.995   0.347  12.741 -0.1140 -0.6191  0.2433
 7377TIP3    H143546   4.905   0.360  12.708  0.2448 -0.3988 -0.6834
 7377TIP3    H243547   5.029   0.274  12.688  0.3850 -0.4393  0.3140
 7378TIP3   OH243548   6.196   3.272   5.732  0.3782  0.0983 -0.4865
 7378TIP3    H143549   6.135   3.219   5.681 -1.2896  0.7798  0.7045
 7378TIP3    H243550   6.163   3.268   5.821  1.0934  1.8731 -0.0874
 7379TIP3   OH243551   3.114   4.527  13.950  0.1196  0.1868  0.2804
 7379TIP3    H143552   3.123   4.619  13.974 -1.2321  0.0565  1.3917
 7379TIP3    H243553   3.046   4.527  13.882  0.7581  0.0736 -0.3800
 7380TIP3   OH243554   3.852   4.137  16.635 -0.3355  0.4462 -0.2043
 7380TIP3    H143555   3.809   4.124  16.720  2.1870 -1.0415  0.9625
 7380TIP3    H243556   3.886   4.051  16.613  0.9321  1.2820 -1.6611
 7381TIP3   OH243557   4.004   0.919   3.107  0.1688  0.0452  0.0115
 7381TIP3    H143558   3.934   0.858   3.132  0.4259 -1.0990 -1.8745
 7381TIP3    H243559   3.959   1.001   3.087 -0.3518  0.0460  1.1168
 7382TIP3   OH243560   4.299   4.902   0.301  0.0397 -0.2813 -0.2609
 7382TIP3    H143561   4.229   4.842   0.277 -0.7577  0.0635  1.0773
 7382TIP3    H243562   4.333   4.934   0.218 -0.4078 -1.5687 -0.9622
 7383TIP3   OH243563   5.431   1.456   1.555 -0.4776 -0.4635 -0.4277
 7383TIP3    H143564   5.446   1.471   1.462 -0.2737 -0.4886 -0.3985
 7383TIP3    H243565   5.343   1.489   1.571  0.8094  3.0595  0.1774
 7384TIP3   OH243566   0.061   3.922  12.771 -0.0431 -0.4661 -0.1423
 7384TIP3    H143567   0.023   3.954  12.689 -0.5624  0.1450  0.3267
 7384TIP3    H243568   0.043   3.992  12.835  0.0484 -1.0825  0.5727
 7385TIP3   OH243569   3.580   2.794  13.664 -0.4493 -0.8690 -0.2041
 7385TIP3    H143570   3.649   2.752  13.612 -0.1587  1.1566 -1.5504
 7385TIP3    H243571   3.502   2.787  13.609 -1.1209 -2.2463  0.8767
 7386TIP3   OH243572   3.465   2.943   0.011  0.3190  0.2916 -0.1400
 7386TIP3    H143573   3.395   2.917  -0.049 -0.4389  2.2235 -0.1541
 7386TIP3    H243574   3.420   2.976   0.089  1.2057  1.1988  0.0114
 7387TIP3   OH243575   2.106   3.735  15.956 -0.3820 -0.0973  0.5143
 7387TIP3    H143576   2.030   3.743  15.898 -1.2224 -0.7045  1.4946
 7387TIP3    H243577   2.069   3.712  16.041  1.0580 -3.8546  0.3100
 7388TIP3   OH243578   2.315   6.410   3.042  0.4036 -0.3043  0.2193
 7388TIP3    H143579   2.335   6.359   3.120  0.5233 -0.5975 -0.0008
 7388TIP3    H243580   2.401   6.432   3.005  0.3546  0.1294  0.3596
 7389TIP3   OH243581   0.826   3.189   3.806  0.2562  0.1125 -0.6347
 7389TIP3    H143582   0.894   3.122   3.799 -0.1542 -0.8619  2.6457
 7389TIP3    H243583   0.873   3.270   3.823  0.6778 -0.1888 -0.3486
 7390TIP3   OH243584   0.021   4.784   5.165  0.4135  0.2395 -0.2827
 7390TIP3    H143585   0.105   4.738   5.160 -0.3042 -1.0681 -0.7085
 7390TIP3    H243586  -0.031   4.731   5.225 -0.9232 -0.3670 -1.9020
 7391TIP3   OH243587   1.644   0.626   2.066  0.7680 -0.2219 -0.0877
 7391TIP3    H143588   1.686   0.543   2.044  1.1864 -0.5760  1.9070
 7391TIP3    H243589   1.550   0.607   2.064  0.8627 -0.7465  0.3487
 7392TIP3   OH243590   5.205   3.578  16.578  0.5512 -0.0343  0.1303
 7392TIP3    H143591   5.123   3.552  16.536  1.5017 -3.2937  0.0319
 7392TIP3    H243592   5.249   3.632  16.512 -0.0617 -1.0861 -1.1889
 7393TIP3   OH243593   3.276   0.574  15.541  0.6765 -0.0042 -0.1401
 7393TIP3    H143594   3.294   0.668  15.549  2.2491  0.0178 -2.9761
 7393TIP3    H243595   3.193   0.570  15.493  0.0575 -0.1295  0.8940
 7394TIP3   OH243596   4.489   0.009  13.448  0.2341  0.6040  0.0955
 7394TIP3    H143597   4.520  -0.021  13.533  0.5505  0.9943  0.1176
 7394TIP3    H243598   4.395  -0.009  13.449  0.1675  0.9662  0.6785
 7395TIP3   OH243599   2.471   1.209   0.214 -0.4661 -0.3554  0.4347
 7395TIP3    H143600   2.566   1.208   0.228 -0.5191 -0.5793  0.7940
 7395TIP3    H243601   2.435   1.245   0.295 -0.7171 -0.7495  0.5033
 7396TIP3   OH243602   2.214   3.176   5.315 -0.7093  0.0642  0.7660
 7396TIP3    H143603   2.222   3.117   5.390  0.0532 -1.4531 -0.4182
 7396TIP3    H243604   2.282   3.242   5.328  2.4954 -2.6604 -0.5815
 7397TIP3   OH243605   4.400   0.265   1.373  0.5177 -0.1602 -0.2129
 7397TIP3    H143606   4.495   0.262   1.372  0.6105 -1.3409  2.5355
 7397TIP3    H243607   4.374   0.217   1.294  2.2114 -0.6084 -0.5402
 7398TIP3   OH243608   3.370   0.188   0.825  0.3350  0.1359  0.3449
 7398TIP3    H143609   3.427   0.193   0.748  1.3418  0.5091  1.0869
 7398TIP3    H243610   3.426   0.216   0.898 -0.7224  0.2217  1.1480
 7399TIP3   OH243611   3.616   5.991   5.821  0.2419  0.0044  0.6863
 7399TIP3    H143612   3.588   6.016   5.909 -1.1377  1.6895 -0.1723
 7399TIP3    H243613   3.596   5.898   5.815  0.6279 -0.2015  2.2394
 7400TIP3   OH243614   2.980   0.425  11.871  0.7092 -0.2060 -0.1263
 7400TIP3    H143615   2.913   0.493  11.875  0.2136 -0.7601  1.9570
 7400TIP3    H243616   2.937   0.347  11.904  1.8604 -1.0433 -0.5552
 7401TIP3   OH243617   3.023   3.512   5.272  0.0621 -0.2869  0.2775
 7401TIP3    H143618   2.927   3.510   5.265  0.0506 -1.6271  0.6369
 7401TIP3    H243619   3.053   3.445   5.211  0.9212  1.7171 -1.6345
 7402TIP3   OH243620   5.079   3.205   6.361 -0.7253 -0.2920 -0.2058
 7402TIP3    H143621   5.108   3.248   6.281  0.2118  1.2984  0.9067
 7402TIP3    H243622   4.997   3.249   6.384 -0.1908  0.3944  0.4917
 7403TIP3   OH243623   1.483   3.607  12.338 -0.6494  0.0040 -0.4204
 7403TIP3    H143624   1.507   3.540  12.403 -1.0089  0.4328  0.1692
 7403TIP3    H243625   1.567   3.644  12.311 -0.4315 -0.7851 -0.8771
 7404TIP3   OH243626   3.557   5.700   5.796  0.0538 -0.7692  0.3460
 7404TIP3    H143627   3.633   5.643   5.813  0.3518 -0.8288 -1.0305
 7404TIP3    H243628   3.521   5.667   5.713 -0.3713  0.4164  0.0461
 7405TIP3   OH243629   5.241   3.068   1.567  0.6063 -0.0374  0.1525
 7405TIP3    H143630   5.304   3.081   1.637 -2.0578  2.0314  2.3935
 7405TIP3    H243631   5.208   2.979   1.580  0.1172  0.3414  1.5698
 7406TIP3   OH243632   3.247   1.512  13.558 -0.4759  0.1844  0.0849
 7406TIP3    H143633   3.184   1.561  13.612  0.3664  2.8292 -1.2122
 7406TIP3    H243634   3.201   1.498  13.475  0.3899  1.5857 -0.6495
 7407TIP3   OH243635   1.181   2.514   2.360 -0.3450  0.1982 -0.6382
 7407TIP3    H143636   1.136   2.585   2.314  2.1463  2.5434  0.2527
 7407TIP3    H243637   1.110   2.456   2.390 -2.4580  1.9029 -2.0163
 7408TIP3   OH243638   5.927   2.195  12.784 -0.0773 -0.2411  0.3675
 7408TIP3    H143639   5.894   2.250  12.855 -0.4392 -1.0696  0.8559
 7408TIP3    H243640   5.864   2.206  12.713  0.4638  0.8512  0.0278
 7409TIP3   OH243641   1.559   6.302   3.389  0.3910 -0.3721  0.5357
 7409TIP3    H143642   1.570   6.302   3.484 -2.1268 -2.2477  0.9560
 7409TIP3    H243643   1.573   6.210   3.364 -1.2592 -0.3818 -0.5090
 7410TIP3   OH243644   2.558   2.222   3.171  0.0664 -0.0724 -0.1970
 7410TIP3    H143645   2.535   2.237   3.263 -0.1305 -1.2439 -0.0456
 7410TIP3    H243646   2.477   2.235   3.123 -0.3775 -1.6639  0.0591
 7411TIP3   OH243647   6.577   5.558   6.326  0.1348 -0.2623 -0.3362
 7411TIP3    H143648   6.655   5.548   6.381  0.2554 -0.6120 -0.5650
 7411TIP3    H243649   6.515   5.606   6.381  0.0006 -1.1974  0.3597
 7412TIP3   OH243650   6.299   3.370  14.516  0.1650 -0.1153  0.0834
 7412TIP3    H143651   6.228   3.358  14.579  0.1846 -1.0872 -0.0527
 7412TIP3    H243652   6.330   3.281  14.499  1.2090  0.2705 -0.0996
 7413TIP3   OH243653   3.025   3.476   0.641  0.5918  0.2270  0.3721
 7413TIP3    H143654   3.104   3.423   0.640 -0.6054 -1.7470 -2.5228
 7413TIP3    H243655   2.958   3.419   0.679 -0.2214  0.4643 -0.6630
 7414TIP3   OH243656   6.423   3.911  12.692 -0.3495  0.4207  0.0628
 7414TIP3    H143657   6.479   3.943  12.621 -0.2108  0.6427  0.2714
 7414TIP3    H243658   6.454   3.956  12.770 -1.0425  0.8181  0.1202
 7415TIP3   OH243659   4.329   6.510   2.762 -0.8194 -0.6599  0.1361
 7415TIP3    H143660   4.285   6.592   2.741  1.4522  0.2357 -1.5050
 7415TIP3    H243661   4.287   6.445   2.705  0.4864  0.3647 -2.1357
 7416TIP3   OH243662   1.003   2.217   2.132  0.5704 -0.0136  0.1826
 7416TIP3    H143663   1.096   2.226   2.113  0.4970 -0.0373 -0.1895
 7416TIP3    H243664   0.995   2.243   2.224  0.7377  1.3490 -0.1646
 7417TIP3   OH243665   0.321   0.949  10.947 -0.0790 -0.1035 -0.2872
 7417TIP3    H143666   0.360   1.037  10.948 -0.8989  0.2678 -0.3343
 7417TIP3    H243667   0.395   0.890  10.934  0.2516  0.7027 -2.3812
 7418TIP3   OH243668   2.793   5.350   1.770 -0.0771 -0.3528  0.4337
 7418TIP3    H143669   2.859   5.284   1.745 -0.5448 -0.9549  0.7544
 7418TIP3    H243670   2.739   5.361   1.692  0.0790 -0.2515  0.3390
 7419TIP3   OH243671   0.615   4.645  10.756  0.1749 -0.4364 -0.0601
 7419TIP3    H143672   0.602   4.740  10.757  1.3810 -0.2605  0.7568
 7419TIP3    H243673   0.537   4.610  10.799  0.2760  0.2722  0.7314
 7420TIP3   OH243674   1.442   2.814  16.722 -0.2865 -0.0695  0.2917
 7420TIP3    H143675   1.425   2.832  16.630  2.2906  0.0211 -0.2486
 7420TIP3    H243676   1.456   2.719  16.726  0.5431  0.0474  0.3845
 7421TIP3   OH243677   2.147   2.462  13.009  0.0481  0.2395 -0.0409
 7421TIP3    H143678   2.188   2.547  13.024  1.9968 -0.7023  0.4203
 7421TIP3    H243679   2.129   2.428  13.097  0.7814 -0.4641 -0.1469
 7422TIP3   OH243680   1.952   4.346   0.757  0.5877  0.2586 -0.1909
 7422TIP3    H143681   1.981   4.391   0.836 -0.4577  0.5340  0.0577
 7422TIP3    H243682   2.004   4.266   0.755  0.1159 -0.1176  1.2021
 7423TIP3   OH243683   2.550   6.387   2.561  0.4054 -0.3556  0.3121
 7423TIP3    H143684   2.551   6.408   2.467 -0.1178  0.5747  0.4974
 7423TIP3    H243685   2.459   6.360   2.579  0.4151 -0.1954  0.6133
 7424TIP3   OH243686   4.367   1.824  12.925  0.4585  0.6554 -0.0414
 7424TIP3    H143687   4.316   1.783  12.995  0.2736  0.1829 -0.4515
 7424TIP3    H243688   4.448   1.852  12.968 -0.0204  1.1633  0.5512
 7425TIP3   OH243689   0.737   6.425   6.171  0.1063  0.1337 -0.2489
 7425TIP3    H143690   0.677   6.451   6.241 -0.5824 -1.6772 -0.1084
 7425TIP3    H243691   0.799   6.497   6.164 -1.0390  1.2632  0.8238
 7426TIP3   OH243692   3.248   0.397   1.158 -0.3995 -0.3345 -0.2528
 7426TIP3    H143693   3.194   0.332   1.202  0.3151 -1.2973 -0.7795
 7426TIP3    H243694   3.220   0.481   1.196 -0.4309 -1.0480  1.3533
 7427TIP3   OH243695   6.467   1.805   3.307 -0.2685  0.0596  0.1292
 7427TIP3    H143696   6.451   1.777   3.397  1.4987 -2.4134 -0.2301
 7427TIP3    H243697   6.391   1.773   3.258  0.1049 -1.1719  0.3147
 7428TIP3   OH243698   2.731   0.995  12.138 -0.3579  0.0099  1.0693
 7428TIP3    H143699   2.690   0.909  12.127  0.5748 -0.4380  0.9862
 7428TIP3    H243700   2.658   1.053  12.161 -1.0743 -0.7034  0.6687
 7429TIP3   OH243701   2.411   6.325  14.056  0.1510  0.1510  0.6095
 7429TIP3    H143702   2.387   6.373  13.977  2.2270 -0.0908 -0.2502
 7429TIP3    H243703   2.343   6.259  14.066 -0.3844  0.4740 -0.7096
 7430TIP3   OH243704   6.115   3.416  12.996  0.5215  0.3212  0.2538
 7430TIP3    H143705   6.094   3.334  13.040  1.4605  0.0641  0.2490
 7430TIP3    H243706   6.080   3.406  12.907  0.9729 -0.2474  0.1321
 7431TIP3   OH243707   2.140   4.377  15.009 -0.0172 -0.0483  0.2226
 7431TIP3    H143708   2.079   4.304  15.013 -0.9499  0.5354 -1.7583
 7431TIP3    H243709   2.132   4.421  15.094  0.4448 -2.0998  1.3844
 7432TIP3   OH243710   6.619   5.870   3.184 -0.0958  0.1443  0.0982
 7432TIP3    H143711   6.609   5.929   3.258 -0.6981 -0.7491  0.7576
 7432TIP3    H243712   6.687   5.909   3.130 -1.0191  1.8436  0.1047
 7433TIP3   OH243713   1.044   0.053  15.596 -0.0606  0.3037  0.3068
 7433TIP3    H143714   1.044   0.035  15.690 -2.3839 -1.1005  0.1185
 7433TIP3    H243715   1.123   0.105  15.582 -0.6594  2.2852  3.3314
 7434TIP3   OH243716   0.532   1.469   5.684 -0.0616 -0.6381 -0.6625
 7434TIP3    H143717   0.568   1.403   5.625  1.8301  0.8865 -1.3341
 7434TIP3    H243718   0.546   1.552   5.637 -1.0061  0.3693  0.7736
 7435TIP3   OH243719   0.105   4.595  13.639  0.9484  0.1352 -0.1667
 7435TIP3    H143720   0.082   4.520  13.583  1.2167  1.2121 -1.8109
 7435TIP3    H243721   0.187   4.569  13.681  0.2653 -1.0698  0.4529
 7436TIP3   OH243722   5.543   2.273   1.146  0.4744 -0.1279 -0.6766
 7436TIP3    H143723   5.550   2.368   1.150 -2.6003  0.1520  0.1216
 7436TIP3    H243724   5.546   2.253   1.052  2.8620  0.4778 -0.8099
 7437TIP3   OH243725   3.954   4.998   6.662 -0.0250 -0.1585  0.3377
 7437TIP3    H143726   3.867   5.014   6.625 -0.6377 -1.7521  1.0120
 7437TIP3    H243727   3.941   4.999   6.757  0.6709 -0.5348  0.4470
 7438TIP3   OH243728   3.469   3.594   5.407  0.2341  0.0569 -0.9624
 7438TIP3    H143729   3.560   3.612   5.432 -0.8445  1.0988  2.7601
 7438TIP3    H243730   3.417   3.653   5.461 -2.8142 -2.4810 -0.8626
 7439TIP3   OH243731   4.776   0.823  14.392  0.6800  0.2265  0.1516
 7439TIP3    H143732   4.705   0.841  14.329  2.6681 -0.5710 -2.4960
 7439TIP3    H243733   4.768   0.729  14.410  0.1250  0.4518  1.1132
 7440TIP3   OH243734   0.812   0.188   3.180  0.4978  0.2915 -0.4990
 7440TIP3    H143735   0.891   0.169   3.130  1.4081  1.3379  0.4744
 7440TIP3    H243736   0.802   0.284   3.174  0.1848  0.3496  0.6412
 7441TIP3   OH243737   5.637   2.206   5.686 -0.0700 -0.2166 -0.3569
 7441TIP3    H143738   5.673   2.141   5.626  0.0699  0.2588 -0.7968
 7441TIP3    H243739   5.670   2.181   5.772 -0.5424 -1.0941 -0.4256
 7442TIP3   OH243740   6.069   1.705  13.096 -0.0512 -0.0954 -0.5671
 7442TIP3    H143741   6.112   1.750  13.023 -0.3373  0.1503 -0.5891
 7442TIP3    H243742   6.139   1.655  13.138 -0.3507 -2.4020 -2.6003
 7443TIP3   OH243743   4.439   0.656  11.740  0.3908 -0.2004 -0.8449
 7443TIP3    H143744   4.363   0.610  11.705  0.5409 -0.2466 -1.1143
 7443TIP3    H243745   4.446   0.735  11.686  0.0568  0.2055 -0.3018
 7444TIP3   OH243746   6.450   5.548  11.090 -0.4517  0.1129 -0.0601
 7444TIP3    H143747   6.523   5.551  11.028  1.8131  1.0026  2.4542
 7444TIP3    H243748   6.401   5.469  11.065  0.0610  0.6317 -3.1509
 7445TIP3   OH243749   2.164   5.553  15.201  0.1170 -0.3838  0.0058
 7445TIP3    H143750   2.184   5.645  15.187 -1.8776 -0.0080 -0.8346
 7445TIP3    H243751   2.237   5.505  15.162  1.5582  0.8109  1.1393
 7446TIP3   OH243752   6.678   4.597  12.866 -0.0256 -0.3772 -0.1708
 7446TIP3    H143753   6.700   4.690  12.874  0.8146 -0.6354  0.6190
 7446TIP3    H243754   6.604   4.595  12.806  0.4366  0.7425 -0.7943
 7447TIP3   OH243755   1.759   4.952  11.720 -0.0558  0.8758  0.3129
 7447TIP3    H143756   1.830   5.016  11.723  0.1961  0.6401 -0.5798
 7447TIP3    H243757   1.803   4.867  11.723 -0.1966  0.7004 -1.7165
 7448TIP3   OH243758   6.354   2.651  16.867 -0.5042  0.0101 -0.3624
 7448TIP3    H143759   6.413   2.709  16.819 -0.6869  0.9919  0.5651
 7448TIP3    H243760   6.298   2.612  16.799  1.7245 -1.6539 -1.4039
 7449TIP3   OH243761   5.411   4.206  13.546  0.3024 -0.0076 -0.3777
 7449TIP3    H143762   5.398   4.267  13.473  0.5970  0.5237 -0.0006
 7449TIP3    H243763   5.381   4.255  13.623 -1.7988 -1.2221 -0.3351
 7450TIP3   OH243764   5.708   5.716   3.045  0.5339  0.1322 -0.1254
 7450TIP3    H143765   5.720   5.652   2.975 -0.0701  0.7478 -0.8170
 7450TIP3    H243766   5.622   5.696   3.082 -0.5945  1.7375 -1.6883
 7451TIP3   OH243767   5.170   5.341  12.803  0.5760 -0.1949 -0.2325
 7451TIP3    H143768   5.115   5.271  12.769  0.5419 -0.5260  0.4849
 7451TIP3    H243769   5.202   5.308  12.887  0.6332  0.6072  0.0687
 7452TIP3   OH243770   0.716   2.000  15.942 -0.1647  0.3881 -0.3463
 7452TIP3    H143771   0.626   1.973  15.922 -0.1250  0.2664 -0.3648
 7452TIP3    H243772   0.733   1.963  16.029  0.2816 -0.6309 -0.8442
 7453TIP3   OH243773   2.449   4.891  12.053 -0.1096 -0.0123 -0.0344
 7453TIP3    H143774   2.410   4.819  12.005  1.0866 -0.6454 -0.1024
 7453TIP3    H243775   2.390   4.906  12.127 -0.6363 -0.7142 -0.3055
 7454TIP3   OH243776   1.348   1.504  15.193  0.3066  0.3061 -0.7882
 7454TIP3    H143777   1.267   1.555  15.200  0.0436  0.2201 -2.7984
 7454TIP3    H243778   1.345   1.465  15.106 -0.4947 -4.8754  1.1952
 7455TIP3   OH243779   3.383   6.533   4.593 -0.2428 -0.4908 -0.8570
 7455TIP3    H143780   3.428   6.617   4.599  1.6448 -1.5227  0.5744
 7455TIP3    H243781   3.373   6.518   4.499  3.0129 -0.4342 -1.3308
 7456TIP3   OH243782   1.669   1.915   4.944  0.3535 -0.6068 -0.4356
 7456TIP3    H143783   1.689   1.865   4.865  1.3732  1.3927 -1.5308
 7456TIP3    H243784   1.574   1.925   4.942  0.4105 -0.0703 -1.7794
 7457TIP3   OH243785   2.290   1.400  14.861 -0.3690 -0.4266 -0.1744
 7457TIP3    H143786   2.263   1.332  14.923 -0.6687  0.9706  1.2944
 7457TIP3    H243787   2.369   1.365  14.820 -2.1367 -2.9607 -1.7586
 7458TIP3   OH243788   5.384   1.688  13.113 -0.5590 -0.1244  0.0369
 7458TIP3    H143789   5.361   1.611  13.060  1.0561 -0.3155 -0.4275
 7458TIP3    H243790   5.393   1.653  13.202 -4.9292  0.4738  0.9353
 7459TIP3   OH243791   4.382   0.196  13.104  0.5278  0.5316 -0.2474
 7459TIP3    H143792   4.326   0.173  13.030 -0.0287 -0.5127  0.4857
 7459TIP3    H243793   4.322   0.212  13.176  1.0253  2.2892 -0.1834
 7460TIP3   OH243794   1.834   2.266  14.873 -0.0230 -0.0459  0.0477
 7460TIP3    H143795   1.910   2.265  14.814 -1.1197  1.4624 -1.4794
 7460TIP3    H243796   1.797   2.354  14.863  0.0210  0.4658  3.4487
 7461TIP3   OH243797   2.712   2.693   4.292  0.0564 -0.1558  0.0249
 7461TIP3    H143798   2.691   2.733   4.376  1.0917  1.2493 -0.3529
 7461TIP3    H243799   2.752   2.609   4.314 -0.9176 -0.4176  0.8738
 7462TIP3   OH243800   3.150   0.368   3.747 -0.2006 -0.3530  0.2787
 7462TIP3    H143801   3.088   0.320   3.802 -1.3807  0.2316 -0.4979
 7462TIP3    H243802   3.128   0.460   3.763  0.5096 -0.1387  0.0233
 7463TIP3   OH243803   2.067   3.675   2.869  0.5792 -0.6020  0.1667
 7463TIP3    H143804   1.974   3.669   2.851  0.6619  0.5032 -0.7032
 7463TIP3    H243805   2.074   3.662   2.964 -0.4374 -0.7806  0.2243
 7464TIP3   OH243806   0.534   3.782  14.548  0.0045 -0.1850  0.0843
 7464TIP3    H143807   0.461   3.754  14.603 -1.2370 -0.4844 -1.6117
 7464TIP3    H243808   0.545   3.875  14.567  1.4597 -0.8107  2.7890
 7465TIP3   OH243809   1.055   1.551  16.373  0.6292  0.1229  0.3545
 7465TIP3    H143810   0.985   1.490  16.351  1.4260 -1.0321  0.9223
 7465TIP3    H243811   1.057   1.551  16.468  0.6363  1.0748  0.3664
 7466TIP3   OH243812   0.078   0.493   5.727  0.0086 -0.0465 -0.3225
 7466TIP3    H143813   0.026   0.432   5.778  1.8150 -0.2018  1.4541
 7466TIP3    H243814   0.094   0.447   5.644 -1.3204 -0.6190 -0.2876
 7467TIP3   OH243815   4.795   3.996   3.376 -0.4035 -0.5044 -0.0687
 7467TIP3    H143816   4.833   4.038   3.299 -1.3631 -0.3285 -0.4600
 7467TIP3    H243817   4.871   3.963   3.425  0.3069  0.7281 -0.2952
 7468TIP3   OH243818   6.292   6.160   1.476 -0.4619 -0.1576  0.4774
 7468TIP3    H143819   6.283   6.075   1.518  1.2338 -1.0758 -0.8662
 7468TIP3    H243820   6.376   6.194   1.507 -1.3123  1.2685  1.3374
 7469TIP3   OH243821   3.316   4.090   3.119 -0.3264  0.2730 -0.3496
 7469TIP3    H143822   3.346   4.179   3.100 -1.6338  0.8630  0.2630
 7469TIP3    H243823   3.332   4.042   3.038 -2.2257  1.7665 -1.6867
 7470TIP3   OH243824   6.659   0.520  16.789 -0.0215  0.3289  0.2256
 7470TIP3    H143825   6.614   0.574  16.725 -1.6790  0.0953  1.1381
 7470TIP3    H243826   6.742   0.565  16.807 -0.3236  1.2875 -0.7715
 7471TIP3   OH243827   5.620   3.503  11.775  0.4694 -0.4866 -0.0078
 7471TIP3    H143828   5.576   3.568  11.829  1.4373  0.6391 -0.5319
 7471TIP3    H243829   5.709   3.498  11.810  0.3377 -1.7350  0.1898
 7472TIP3   OH243830   0.851   1.732  13.213  0.0790 -0.3783  0.1757
 7472TIP3    H143831   0.865   1.638  13.227  0.7293 -0.0175  2.3646
 7472TIP3    H243832   0.760   1.739  13.186  0.3789 -1.7253 -1.3073
 7473TIP3   OH243833   2.539   5.699   5.456  0.0256  0.4428 -0.0708
 7473TIP3    H143834   2.460   5.645   5.458  1.6518 -2.0446  1.1298
 7473TIP3    H243835   2.533   5.752   5.536  0.2834 -0.8703  0.8434
 7474TIP3   OH243836   2.514   6.108  16.260  0.4716  0.0883 -0.2623
 7474TIP3    H143837   2.526   6.066  16.345  1.8023 -1.0388 -0.9565
 7474TIP3    H243838   2.427   6.147  16.264  0.9087  0.9905  1.9884
 7475TIP3   OH243839   4.908   4.871  11.559 -0.4346 -0.1899 -0.2530
 7475TIP3    H143840   4.936   4.931  11.490 -0.8946  0.2358 -0.0773
 7475TIP3    H243841   4.978   4.873  11.624  0.3407 -1.1432 -1.0330
 7476TIP3   OH243842   1.442   4.691   2.962  0.3432 -0.8258  0.8371
 7476TIP3    H143843   1.406   4.779   2.969  1.8916 -0.2356  1.8149
 7476TIP3    H243844   1.426   4.652   3.048 -2.4367 -2.4211 -0.2535
 7477TIP3   OH243845   3.384   3.906  11.393 -0.1714  0.1917  0.1949
 7477TIP3    H143846   3.333   3.922  11.473  2.6234 -1.3458  2.4710
 7477TIP3    H243847   3.469   3.948  11.409  0.7752 -0.8736 -1.6117
 7478TIP3   OH243848   6.197   2.923  16.125  0.3483 -0.0134 -0.3753
 7478TIP3    H143849   6.158   2.855  16.180  0.5613  0.2546  0.1186
 7478TIP3    H243850   6.169   2.901  16.036  0.3200 -0.6801 -0.2105
 7479TIP3   OH243851   0.278   4.355  14.680  0.2372 -0.0541  0.2864
 7479TIP3    H143852   0.198   4.306  14.697 -0.1712 -0.2639 -2.0390
 7479TIP3    H243853   0.249   4.436  14.639  1.1430  0.5565  0.8020
 7480TIP3   OH243854   0.613   2.739   0.389 -0.1547 -0.6556  0.5352
 7480TIP3    H143855   0.634   2.751   0.296 -1.3537  1.1300  0.4500
 7480TIP3    H243856   0.692   2.765   0.435  0.9673 -2.9122  0.0386
 7481TIP3   OH243857   4.399   1.501   3.705  0.1831  0.0236 -0.0304
 7481TIP3    H143858   4.468   1.455   3.657 -0.7859 -2.0889  0.4561
 7481TIP3    H243859   4.338   1.530   3.637  1.3946  1.7308 -0.4463
 7482TIP3   OH243860   2.301   0.409   1.717  0.0261 -0.1754 -0.0570
 7482TIP3    H143861   2.213   0.380   1.738 -0.3733  0.8625 -0.2602
 7482TIP3    H243862   2.358   0.352   1.770 -0.7938 -0.2168  0.7986
 7483TIP3   OH243863   3.550   4.359  14.892 -0.0406 -0.4334  0.1332
 7483TIP3    H143864   3.584   4.443  14.860 -0.0176 -1.0206 -1.4644
 7483TIP3    H243865   3.458   4.359  14.868 -0.1619 -0.6539  0.5917
 7484TIP3   OH243866   2.471   1.866   0.093 -0.1456 -0.4328  0.0079
 7484TIP3    H143867   2.477   1.952   0.135 -0.4792  0.8841 -2.4917
 7484TIP3    H243868   2.387   1.831   0.122  0.6360 -0.6726  2.2465
 7485TIP3   OH243869   3.974   0.748  11.287  0.8493 -0.2662  0.0526
 7485TIP3    H143870   3.892   0.798  11.285  0.1957 -1.2105  1.5833
 7485TIP3    H243871   3.984   0.715  11.197  1.4036  2.6692 -1.0538
 7486TIP3   OH243872   3.009   3.769  11.321  0.1756 -0.0931 -0.6794
 7486TIP3    H143873   2.940   3.820  11.363  0.3523 -0.4514  0.0720
 7486TIP3    H243874   3.075   3.756  11.390 -0.1281 -1.8164 -0.6625
 7487TIP3   OH243875   0.083   1.573   6.011  0.2086 -0.4242 -0.4141
 7487TIP3    H143876   0.156   1.560   5.951  1.1271  0.2905  0.5088
 7487TIP3    H243877   0.123   1.572   6.098 -0.7264  0.8914  0.0654
 7488TIP3   OH243878   1.062   0.603   1.908  0.2577  0.2531  0.2263
 7488TIP3    H143879   1.025   0.569   1.990 -1.1871  1.1861 -0.0098
 7488TIP3    H243880   0.986   0.618   1.852  0.9703  2.1911 -0.3046
 7489TIP3   OH243881   3.420   1.788  16.629 -0.3119 -0.5499 -0.2768
 7489TIP3    H143882   3.383   1.778  16.717 -0.0470 -0.9572 -0.2140
 7489TIP3    H243883   3.348   1.825  16.577 -0.3448  0.0888  0.2055
 7490TIP3   OH243884   6.355   1.310  14.872  0.6060 -0.2307 -0.0755
 7490TIP3    H143885   6.377   1.342  14.785  0.4937  0.1274  0.0251
 7490TIP3    H243886   6.315   1.385  14.916  1.3635 -0.1834  0.5419
 7491TIP3   OH243887   5.262   3.628   3.354 -0.1745  0.5153  0.0927
 7491TIP3    H143888   5.184   3.669   3.317 -0.7395 -0.4499  0.1871
 7491TIP3    H243889   5.282   3.556   3.294  0.7104  0.8055  0.0189
 7492TIP3   OH243890   0.987   0.907  12.113  1.3527  0.4579 -0.1467
 7492TIP3    H143891   1.002   0.826  12.161  1.0751 -0.3971 -1.4402
 7492TIP3    H243892   0.964   0.879  12.024  1.3608  1.9567 -0.6653
 7493TIP3   OH243893   4.283   0.018  15.487 -0.1471  0.0122 -0.4438
 7493TIP3    H143894   4.300  -0.001  15.579  0.4090 -0.5259 -0.6515
 7493TIP3    H243895   4.218  -0.048  15.461  0.8372 -0.8310 -0.8303
 7494TIP3   OH243896   4.992   6.686  11.708  0.2522  0.2956  0.3598
 7494TIP3    H143897   4.947   6.764  11.674 -0.3649 -0.3046 -0.2293
 7494TIP3    H243898   4.922   6.621  11.719  0.9043 -0.5003 -0.0995
 7495TIP3   OH243899   6.467   4.424  14.207 -0.0754  0.6550  0.2043
 7495TIP3    H143900   6.402   4.439  14.275  0.9487 -2.2156  2.0091
 7495TIP3    H243901   6.415   4.406  14.128 -1.4693  0.0278  1.2100
 7496TIP3   OH243902   1.172   3.875  15.260 -0.2294  0.1267 -0.5823
 7496TIP3    H143903   1.202   3.789  15.290 -1.5867  0.0003  0.5168
 7496TIP3    H243904   1.211   3.885  15.173 -1.5777 -2.4641 -1.5889
 7497TIP3   OH243905   0.276   1.976   4.930  0.4703  0.3641  0.1372
 7497TIP3    H143906   0.359   1.975   4.883 -0.1816  1.9243 -1.1432
 7497TIP3    H243907   0.231   2.054   4.897 -0.2956  1.2038  2.9037
 7498TIP3   OH243908   2.275   0.987   3.413 -0.1779 -0.4586  0.0719
 7498TIP3    H143909   2.189   0.951   3.432 -0.2921  0.5706  1.6779
 7498TIP3    H243910   2.268   1.018   3.322 -1.8222  0.5074  0.4874
 7499TIP3   OH243911   4.429   0.823   3.706 -0.0832  0.0819 -0.1667
 7499TIP3    H143912   4.465   0.879   3.775 -0.7701 -0.1707  0.4118
 7499TIP3    H243913   4.364   0.769   3.751 -2.4232  1.6643 -1.4419
 7500TIP3   OH243914   0.024   4.663  13.328 -0.2416 -0.3021  0.4730
 7500TIP3    H143915  -0.053   4.606  13.329 -0.4119 -0.0652  1.1391
 7500TIP3    H243916   0.097   4.603  13.311 -0.6132 -0.4571 -0.6490
 7501TIP3   OH243917   4.950   3.025  11.280  0.0203  0.0656  0.2065
 7501TIP3    H143918   4.892   3.099  11.295  1.1557  1.2330 -0.8554
 7501TIP3    H243919   5.036   3.055  11.310  0.2606 -1.3338  1.0446
 7502TIP3   OH243920   4.065   2.446   2.898  0.0040 -0.2258 -0.2216
 7502TIP3    H143921   3.986   2.480   2.940  0.8006 -1.0145  2.0451
 7502TIP3    H243922   4.061   2.480   2.809 -2.0047  1.1768  0.3373
 7503TIP3   OH243923   6.606   4.244   4.694 -0.4944 -0.1564 -0.0533
 7503TIP3    H143924   6.540   4.298   4.737  0.4893  0.4072  0.8098
 7503TIP3    H243925   6.650   4.303   4.633  0.7550  0.1331  1.0775
 7504TIP3   OH243926   1.638   5.847   4.664  0.3594  0.4804  0.3216
 7504TIP3    H143927   1.600   5.915   4.719 -1.0871  0.4862 -0.6274
 7504TIP3    H243928   1.616   5.765   4.708 -0.4563  0.5015 -0.0403
 7505TIP3   OH243929   2.231   2.895  15.096 -0.1507 -0.2437 -0.3242
 7505TIP3    H143930   2.147   2.879  15.137 -0.1816 -1.8811 -0.9554
 7505TIP3    H243931   2.211   2.914  15.004  0.2002 -1.4666 -0.6666
 7506TIP3   OH243932   1.716   4.131   5.485  0.1306 -0.2853 -0.1394
 7506TIP3    H143933   1.800   4.147   5.527  0.7991 -1.4736 -0.9476
 7506TIP3    H243934   1.653   4.183   5.535  1.5808  2.0617 -0.5781
 7507TIP3   OH243935   0.619   5.768   1.560  0.2598 -0.4609 -0.1416
 7507TIP3    H143936   0.563   5.691   1.552  0.3379 -0.3370 -2.2371
 7507TIP3    H243937   0.559   5.840   1.576  0.1711 -0.8592  1.6033
 7508TIP3   OH243938   1.712   2.916  14.411  0.1759  0.0408 -0.2053
 7508TIP3    H143939   1.768   2.946  14.483 -0.5874  0.3251  0.2803
 7508TIP3    H243940   1.771   2.908  14.336  0.9818 -0.2605  0.4514
 7509TIP3   OH243941   3.874   4.657  15.713  0.1122  0.7130  0.2408
 7509TIP3    H143942   3.863   4.595  15.641 -1.7624 -1.2908  2.0972
 7509TIP3    H243943   3.804   4.722  15.701  1.8238  2.3575 -1.4735
 7510TIP3   OH243944   3.008   0.534  12.958 -0.1610 -0.3417  0.0543
 7510TIP3    H143945   3.096   0.497  12.950 -0.0467 -0.5673  1.8351
 7510TIP3    H243946   3.008   0.610  12.900  1.2907 -0.2291  0.1667
 7511TIP3   OH243947   5.356   2.291  14.028  0.2015  0.2781  0.1375
 7511TIP3    H143948   5.279   2.242  14.055 -0.1021 -0.2561 -1.5747
 7511TIP3    H243949   5.343   2.379  14.064 -1.4820  0.3555 -0.5836
 7512TIP3   OH243950   3.730   5.995  12.064  0.4638 -0.6040  0.5358
 7512TIP3    H143951   3.770   5.949  11.990  1.3517  0.4238  0.3613
 7512TIP3    H243952   3.655   6.040  12.027  0.7417 -0.3228  0.3035
 7513TIP3   OH243953   1.941   3.944   4.954 -0.3564 -0.5147  0.2492
 7513TIP3    H143954   2.004   4.002   4.910 -0.3723 -0.1745  0.6754
 7513TIP3    H243955   1.950   3.861   4.907 -0.9956  0.0757 -0.9821
 7514TIP3   OH243956   2.906   4.359   1.522 -0.3177 -1.1845  0.2418
 7514TIP3    H143957   2.990   4.314   1.515  1.2008  1.5573 -0.7486
 7514TIP3    H243958   2.902   4.388   1.613 -0.3181 -1.5327  0.3540
 7515TIP3   OH243959   6.702   0.865   5.467  0.0488 -0.7946 -0.1071
 7515TIP3    H143960   6.642   0.931   5.504 -0.1414  0.1216 -1.9028
 7515TIP3    H243961   6.741   0.822   5.543 -0.1145  1.1387  1.1392
 7516TIP3   OH243962   2.112   1.699  10.625 -0.1740 -0.2738  0.1323
 7516TIP3    H143963   2.164   1.763  10.576 -0.9184 -1.1838 -1.9445
 7516TIP3    H243964   2.103   1.625  10.566 -0.5792 -1.7238  1.9284
 7517TIP3   OH243965   5.115   0.169  11.531 -0.0277  0.1053  0.3163
 7517TIP3    H143966   5.184   0.112  11.498 -0.5668  0.2928 -1.2475
 7517TIP3    H243967   5.158   0.225  11.595  1.0874 -0.3176 -0.0402
 7518TIP3   OH243968   4.458   0.882   4.247 -0.4428  0.3073  0.3779
 7518TIP3    H143969   4.446   0.849   4.336 -1.0751  1.8680  0.8932
 7518TIP3    H243970   4.392   0.950   4.237 -2.4551 -1.7912 -2.3313
 7519TIP3   OH243971   1.650   4.958  16.047 -0.4957 -0.4826 -0.7141
 7519TIP3    H143972   1.589   4.892  16.080 -1.3658  0.7951  0.3091
 7519TIP3    H243973   1.610   4.990  15.967 -1.7889  1.1200  0.5094
 7520TIP3   OH243974   1.286   4.934   2.655 -0.0976 -0.2525  0.2335
 7520TIP3    H143975   1.262   5.027   2.660 -0.3763 -0.3854  1.6515
 7520TIP3    H243976   1.373   4.935   2.616 -0.1100  0.6073  0.1952
 7521TIP3   OH243977   4.325   0.279  12.642 -0.4260 -0.1618  0.2171
 7521TIP3    H143978   4.302   0.187  12.626 -1.6739 -0.1833  1.8228
 7521TIP3    H243979   4.294   0.295  12.732  1.7722  1.1959  0.7900
 7522TIP3   OH243980   0.784   1.763  12.007 -0.2717 -0.0923  0.1460
 7522TIP3    H143981   0.798   1.681  12.055  4.5626  1.0005  1.2013
 7522TIP3    H243982   0.718   1.809  12.058 -2.4976 -2.8404  0.0065
 7523TIP3   OH243983   2.512   5.692   0.285 -0.7786 -0.7041 -0.2485
 7523TIP3    H143984   2.481   5.723   0.370 -0.8740 -0.3369 -0.4149
 7523TIP3    H243985   2.493   5.598   0.285 -0.1206 -0.8530  0.4225
 7524TIP3   OH243986   2.204   2.537   5.076  0.2278 -0.6433  0.1587
 7524TIP3    H143987   2.170   2.592   5.005  1.6473  1.2738  0.8882
 7524TIP3    H243988   2.299   2.548   5.073  0.3897 -1.2574  1.7630
 7525TIP3   OH243989   3.957   5.493   1.663  0.3715 -0.6815 -0.4829
 7525TIP3    H143990   3.929   5.538   1.584  1.8496 -0.9780 -1.2131
 7525TIP3    H243991   4.040   5.534   1.687  0.0036 -0.6734  0.8610
 7526TIP3   OH243992   2.436   0.651  15.381  0.2285 -0.1531  0.0866
 7526TIP3    H143993   2.352   0.642  15.426  0.6394  1.2135  1.1821
 7526TIP3    H243994   2.475   0.730  15.418  1.5282 -0.1611 -1.1840
 7527TIP3   OH243995   1.123   3.334  14.673 -0.9463 -0.0120  0.0050
 7527TIP3    H143996   1.194   3.284  14.714 -1.4777 -1.4831 -0.7967
 7527TIP3    H243997   1.159   3.422  14.662 -0.5271  0.2802  2.9375
 7528TIP3   OH243998   6.557   6.597   2.322  0.6585  0.1103 -0.3443
 7528TIP3    H143999   6.564   6.536   2.249 -0.5883 -1.5153  0.8382
 7528TIP3    H244000   6.512   6.673   2.285 -0.6319 -0.9847 -1.1002
 7529TIP3   OH244001   5.052   3.885  14.057  0.3688 -0.6427  0.4799
 7529TIP3    H144002   4.985   3.820  14.039 -0.0996 -0.2521  0.7888
 7529TIP3    H244003   5.007   3.953  14.108 -0.1932  1.8624 -2.9634
 7530TIP3   OH244004   5.856   5.508  17.101  0.1135  0.2654  0.3188
 7530TIP3    H144005   5.929   5.538  17.046  0.7530 -2.4268 -0.4435
 7530TIP3    H244006   5.894   5.441  17.158 -2.1562 -3.6381 -2.2715
 7531TIP3   OH244007   0.743   5.532  16.382  0.1334 -0.9093  0.8272
 7531TIP3    H144008   0.791   5.595  16.436 -1.6709  0.1351  1.2994
 7531TIP3    H244009   0.673   5.500  16.439 -0.4658 -1.4822 -0.1970
 7532TIP3   OH244010   4.695   5.308  14.969  0.1383 -0.1068 -0.6700
 7532TIP3    H144011   4.757   5.246  15.007  0.4151  0.3494 -0.3625
 7532TIP3    H244012   4.676   5.273  14.882  0.8128 -0.2576 -0.7588
 7533TIP3   OH244013   5.594   1.420  11.808 -0.5542  0.1122 -0.0008
 7533TIP3    H144014   5.521   1.478  11.790 -1.1583 -0.8069 -0.6168
 7533TIP3    H244015   5.576   1.384  11.895  0.2810  1.4889  0.7751
 7534TIP3   OH244016   0.028   2.124  13.292 -0.3402 -0.0633 -0.0796
 7534TIP3    H144017  -0.058   2.158  13.314 -0.2415 -0.3498  0.7665
 7534TIP3    H244018   0.087   2.198  13.306 -0.3149 -0.1622  0.3308
 7535TIP3   OH244019   5.141   4.211  17.028  0.6540  1.0429 -0.0460
 7535TIP3    H144020   5.206   4.277  17.053  0.6486  0.5068  1.4999
 7535TIP3    H244021   5.102   4.183  17.111 -2.9373  2.6513 -1.0143
 7536TIP3   OH244022   6.551   4.290  11.660  0.2412 -0.2420 -0.1549
 7536TIP3    H144023   6.618   4.225  11.639  0.4100  0.3727 -1.6476
 7536TIP3    H244024   6.500   4.250  11.730  1.0848 -1.4611 -0.2041
 7537TIP3   OH244025   4.411   3.693   2.214  0.0059 -0.6828  0.3630
 7537TIP3    H144026   4.412   3.739   2.130 -0.2225 -0.4603  0.4806
 7537TIP3    H244027   4.472   3.743   2.269  1.0929 -1.5385 -0.0401
 7538TIP3   OH244028   2.827   5.689   4.402  0.0361  0.0959 -0.4024
 7538TIP3    H144029   2.807   5.595   4.401  1.2127 -0.1824 -1.4528
 7538TIP3    H244030   2.889   5.701   4.329  2.1281  1.1950  1.4198
 7539TIP3   OH244031   6.491   2.288  12.316 -0.1430 -0.4534 -0.3665
 7539TIP3    H144032   6.404   2.250  12.326  0.6702 -2.2380  0.4831
 7539TIP3    H244033   6.476   2.380  12.295 -2.2121 -0.6770 -0.0073
 7540TIP3   OH244034   6.675   6.357  13.220 -0.2508 -0.5673  0.1424
 7540TIP3    H144035   6.640   6.280  13.176 -0.4378 -0.3112 -0.1677
 7540TIP3    H244036   6.756   6.376  13.173 -1.2849  0.7095 -1.2503
 7541TIP3   OH244037   4.927   4.423   1.607  0.1229  0.2011  0.3749
 7541TIP3    H144038   4.977   4.378   1.675 -1.3133 -0.4805  1.0365
 7541TIP3    H244039   4.990   4.479   1.563  1.8536 -1.9625 -0.0550
 7542TIP3   OH244040   4.934   3.980   3.083  0.5012  0.0343 -0.2786
 7542TIP3    H144041   5.003   3.958   3.021 -0.1830  0.4057 -1.1942
 7542TIP3    H244042   4.947   4.073   3.102  0.6128 -0.0404  0.0167
 7543TIP3   OH244043   3.668   2.400   0.434  0.1838 -0.3361 -0.1812
 7543TIP3    H144044   3.666   2.350   0.352  0.0914 -0.8924  0.1542
 7543TIP3    H244045   3.577   2.425   0.450  0.4531  1.6332 -1.3473
 7544TIP3   OH244046   5.165   2.572   2.607  0.2886  0.0148 -0.3591
 7544TIP3    H144047   5.178   2.662   2.576 -0.4558  0.2849  0.0599
 7544TIP3    H244048   5.070   2.565   2.619  0.4723 -0.3051  1.1255
 7545TIP3   OH244049   2.651   1.202   6.479  0.2058  0.3349  0.2106
 7545TIP3    H144050   2.745   1.222   6.469  0.5920 -0.1781  2.4232
 7545TIP3    H244051   2.629   1.152   6.400  1.0755  2.7392 -1.7060
 7546TIP3   OH244052   1.263   5.821  13.907  0.0871  0.0728  0.1888
 7546TIP3    H144053   1.300   5.794  13.823 -1.1049  0.1705 -0.3760
 7546TIP3    H244054   1.332   5.800  13.971  1.4943  1.0779 -0.9262
 7547TIP3   OH244055   3.108   0.921  14.200 -0.6382  0.0114  0.3728
 7547TIP3    H144056   3.042   0.975  14.242  0.7299  1.4073  0.8360
 7547TIP3    H244057   3.122   0.849  14.262 -0.9814  0.2795  0.7701
 7548TIP3   OH244058   4.979   4.493  13.567 -0.1420 -0.5208 -0.6006
 7548TIP3    H144059   4.970   4.398  13.572  0.0237 -0.4862  1.3131
 7548TIP3    H244060   4.889   4.524  13.553 -0.5039 -0.9079  0.6930
 7549TIP3   OH244061   5.717   2.010   5.183  0.1714  0.4574  0.1037
 7549TIP3    H144062   5.728   2.075   5.252 -0.2121  1.4182 -0.7088
 7549TIP3    H244063   5.744   1.927   5.222  1.9675  1.3185  0.7495
 7550TIP3   OH244064   2.576   2.789   0.862  0.8367 -0.1502  0.0828
 7550TIP3    H144065   2.665   2.804   0.830  0.9921 -0.4528  0.3727
 7550TIP3    H244066   2.579   2.812   0.954  0.7616 -0.7133  0.2300
 7551TIP3   OH244067   0.027   3.048   1.512  0.3946 -0.2519 -0.0129
 7551TIP3    H144068   0.093   3.111   1.486  0.5687 -1.1479 -1.8701
 7551TIP3    H244069   0.034   3.044   1.608  2.4607  0.2743 -0.1031
 7552TIP3   OH244070   2.343   4.549  14.889 -0.2638 -0.8396  0.3590
 7552TIP3    H144071   2.266   4.494  14.902 -2.4798  2.4984  2.8826
 7552TIP3    H244072   2.353   4.598  14.970  2.0785  1.8392 -1.3364
 7553TIP3   OH244073   1.803   5.729   5.361 -0.0151 -0.1189 -0.2704
 7553TIP3    H144074   1.753   5.805   5.392 -1.4781 -0.8638 -0.6991
 7553TIP3    H244075   1.832   5.685   5.441  0.2451  0.5012 -0.0170
 7554TIP3   OH244076   2.954   6.330   2.338  0.1510 -0.5654  0.5055
 7554TIP3    H144077   2.965   6.258   2.399  1.9836 -0.9951 -0.2938
 7554TIP3    H244078   3.029   6.326   2.279 -1.1689  0.2411 -1.3883
 7555TIP3   OH244079   0.730   0.110   5.502 -0.4915 -0.5702 -0.0983
 7555TIP3    H144080   0.705   0.137   5.413  0.1069 -1.0360 -0.4166
 7555TIP3    H244081   0.784   0.182   5.534 -1.9280  0.2868  0.4671
 7556TIP3   OH244082   1.498   6.307   2.202  0.5617  0.3716  0.2257
 7556TIP3    H144083   1.497   6.281   2.294  1.4432  0.2780  0.2115
 7556TIP3    H244084   1.412   6.281   2.170  0.3721  0.0905  0.9338
 7557TIP3   OH244085   3.301   0.060   2.699 -0.2301 -0.8624  0.6714
 7557TIP3    H144086   3.307  -0.020   2.647 -0.9906 -0.1443 -0.5740
 7557TIP3    H244087   3.359   0.122   2.654 -1.1372 -0.1380  0.4729
 7558TIP3   OH244088   2.495   3.331  16.102 -0.1672 -0.0197  0.2959
 7558TIP3    H144089   2.438   3.268  16.057  0.8321 -1.9701  1.6035
 7558TIP3    H244090   2.518   3.395  16.034  0.1159 -2.0040 -1.5989
 7559TIP3   OH244091   6.441   5.985   4.204 -0.1756  0.6746  0.1312
 7559TIP3    H144092   6.483   5.961   4.287  0.8224  0.3950 -0.4405
 7559TIP3    H244093   6.504   6.043   4.162 -1.0504  1.5076 -0.0650
 7560TIP3   OH244094   6.677   3.802   3.749  0.1372  0.2550  0.9149
 7560TIP3    H144095   6.652   3.732   3.810 -1.2509  0.0683  0.1701
 7560TIP3    H244096   6.669   3.882   3.801 -0.4855  0.0494  1.1487
 7561TIP3   OH244097   2.494   2.040  16.263  0.4647  0.4701  0.3626
 7561TIP3    H144098   2.466   2.096  16.191 -0.0105 -0.0465  0.1379
 7561TIP3    H244099   2.454   2.079  16.341 -0.5600 -0.0184  0.0979
 7562TIP3   OH244100   3.586   3.223   5.241  0.6119  0.0721  0.3223
 7562TIP3    H144101   3.571   3.306   5.194 -1.5133 -0.7876 -0.6363
 7562TIP3    H244102   3.649   3.176   5.186 -1.7030 -0.8443 -1.7028
 7563TIP3   OH244103   1.052   1.138  16.473  0.2823 -0.1605 -0.5653
 7563TIP3    H144104   0.958   1.151  16.484  0.3288  1.8664 -2.0044
 7563TIP3    H244105   1.060   1.049  16.440 -0.8446 -1.3810  2.1080
 7564TIP3   OH244106   4.702   1.084  16.495 -0.2246 -0.3543  0.2326
 7564TIP3    H144107   4.702   1.140  16.417 -0.7186  0.6396  0.9229
 7564TIP3    H244108   4.609   1.067  16.512 -0.1612 -0.0555  0.9386
 7565TIP3   OH244109   5.822   0.649  15.064  0.0859  0.0063  0.1687
 7565TIP3    H144110   5.776   0.598  15.131 -0.4831  0.2036 -0.0614
 7565TIP3    H244111   5.914   0.629  15.077  0.0209  0.3409  1.2684
 7566TIP3   OH244112   5.007   0.494   2.846 -0.4512 -0.0964  0.1109
 7566TIP3    H144113   5.095   0.527   2.860 -0.3939 -0.5038  0.7500
 7566TIP3    H244114   4.967   0.496   2.933 -2.0446  2.7726 -0.5479
 7567TIP3   OH244115   4.674   0.503   3.441  0.2375 -0.0884 -0.1132
 7567TIP3    H144116   4.647   0.438   3.376 -0.5576 -1.4850  1.5309
 7567TIP3    H244117   4.601   0.507   3.502  0.6827  1.6958  0.3510
 7568TIP3   OH244118   0.075   1.101  17.271  0.2439  0.2186  0.0169
 7568TIP3    H144119   0.066   1.006  17.264  0.1821  0.1220  1.2242
 7568TIP3    H244120   0.149   1.122  17.214  0.1934 -0.5278 -0.3420
 7569TIP3   OH244121   5.408   5.754   5.723  0.4175 -0.0838  0.0070
 7569TIP3    H144122   5.320   5.719   5.740  0.7909 -0.5033  1.1683
 7569TIP3    H244123   5.405   5.783   5.632 -0.7445 -0.6454 -0.1512
 7570TIP3   OH244124   3.452   0.883  13.386 -0.1377  0.7826  0.1175
 7570TIP3    H144125   3.394   0.933  13.442 -3.6204 -2.2260 -0.4426
 7570TIP3    H244126   3.478   0.807  13.439 -0.0087  0.0764 -0.9194
 7571TIP3   OH244127   0.182   0.550  11.942 -0.3464 -0.0194 -0.3130
 7571TIP3    H144128   0.272   0.517  11.944 -0.3395 -0.0157  1.8820
 7571TIP3    H244129   0.129   0.474  11.916  0.4286  0.6301 -4.3937
 7572TIP3   OH244130   4.601   3.866  13.918 -0.2409 -0.6339  0.0244
 7572TIP3    H144131   4.672   3.808  13.945  0.4475 -0.5292 -1.5147
 7572TIP3    H244132   4.528   3.842  13.976  0.8804 -1.0672  1.3042
 7573TIP3   OH244133   1.870   5.452  11.555 -0.1753  0.0081 -0.1146
 7573TIP3    H144134   1.882   5.533  11.505  0.2405  1.0938  1.6482
 7573TIP3    H244135   1.958   5.415  11.562 -0.1772  0.0413  0.0934
 7574TIP3   OH244136   3.765   2.053   2.462 -0.4104  0.0812 -0.7460
 7574TIP3    H144137   3.742   1.960   2.466 -2.4881  0.5792  0.7591
 7574TIP3    H244138   3.775   2.080   2.553  1.4319  1.1014 -1.1920
 7575TIP3   OH244139   6.321   1.267   0.361 -0.1960 -0.1870 -0.5355
 7575TIP3    H144140   6.281   1.204   0.422 -1.3438 -0.0967 -1.1605
 7575TIP3    H244141   6.268   1.259   0.282 -1.4401  2.7124 -0.1090
 7576TIP3   OH244142   6.099   4.623   4.311  0.2349 -0.1972 -0.1381
 7576TIP3    H144143   6.020   4.597   4.359 -0.0761  0.6708 -0.1584
 7576TIP3    H244144   6.073   4.620   4.219  0.5854 -1.0634 -0.2114
 7577TIP3   OH244145   4.801   6.318   3.489  0.4453 -0.5013 -0.4999
 7577TIP3    H144146   4.879   6.286   3.534  1.0201 -0.7026 -1.6176
 7577TIP3    H244147   4.728   6.286   3.542  1.0834 -1.4741 -0.1875
 7578TIP3   OH244148   6.022   4.759   6.269 -0.1845 -0.2434 -0.2423
 7578TIP3    H144149   5.938   4.757   6.223 -0.1487 -0.8708 -0.2834
 7578TIP3    H244150   6.043   4.852   6.276  0.4278 -0.1330 -2.6637
 7579TIP3   OH244151   3.981   0.532   0.699 -0.1905 -0.2544  0.3236
 7579TIP3    H144152   3.903   0.543   0.753  0.5884 -2.1333  1.9489
 7579TIP3    H244153   3.947   0.513   0.612 -1.4915  1.7222  0.3350
 7580TIP3   OH244154   2.228   4.563   0.690 -0.3402  0.3716 -0.1005
 7580TIP3    H144155   2.322   4.580   0.693 -0.1944 -0.5050  0.5201
 7580TIP3    H244156   2.219   4.483   0.640 -0.6021 -0.4938  1.2812
 7581TIP3   OH244157   4.241   3.872   2.778 -0.7045 -0.7975  0.3132
 7581TIP3    H144158   4.224   3.860   2.685 -1.1912 -1.4571  0.4808
 7581TIP3    H244159   4.244   3.783   2.814 -0.0312 -0.5692  0.8410
 7582TIP3   OH244160   4.964   0.125  14.067 -0.5026  0.7007 -0.2625
 7582TIP3    H144161   4.977   0.082  14.151  0.7396  0.9951 -0.2844
 7582TIP3    H244162   4.978   0.056  14.002  0.4350  0.8741 -0.2655
 7583TIP3   OH244163   3.830   0.878  16.596  0.2260 -0.0740 -0.5427
 7583TIP3    H144164   3.888   0.954  16.587  0.8543 -0.5218 -0.3404
 7583TIP3    H244165   3.830   0.859  16.690 -0.6394  0.2209 -0.4789
 7584TIP3   OH244166   3.473   1.929   1.730  0.2183  0.5483 -0.5175
 7584TIP3    H144167   3.484   2.008   1.677 -5.2775  2.1108 -0.0299
 7584TIP3    H244168   3.409   1.877   1.681  1.2385 -2.0393  0.7592
 7585TIP3   OH244169   2.049   0.533   6.520  0.0097  1.0029 -0.0015
 7585TIP3    H144170   2.017   0.457   6.567 -2.9257  2.3233  0.3977
 7585TIP3    H244171   2.121   0.566   6.572  0.3393 -0.6095  0.6148
 7586TIP3   OH244172   5.924   0.105  11.408 -0.4894  0.0277 -0.4194
 7586TIP3    H144173   5.852   0.157  11.375 -0.5179 -0.2483 -0.7956
 7586TIP3    H244174   5.903   0.090  11.500 -0.0106  1.4848 -0.0469
 7587TIP3   OH244175   1.986   3.459   4.093  0.0823 -0.3925 -0.1579
 7587TIP3    H144176   1.922   3.442   4.024  0.0852  0.5066 -0.3998
 7587TIP3    H244177   2.071   3.439   4.053  0.2204  1.5971 -0.9570
 7588TIP3   OH244178   2.930   3.223   0.213 -0.7552  0.3101  0.4950
 7588TIP3    H144179   3.023   3.234   0.234 -0.7721 -0.3971  0.9442
 7588TIP3    H244180   2.928   3.155   0.146 -1.0882 -1.2187  1.9935
 7589TIP3   OH244181   4.981   1.537  15.039 -0.4542  0.0816  0.1400
 7589TIP3    H144182   4.888   1.557  15.043 -0.4095  0.1836  0.8005
 7589TIP3    H244183   4.986   1.443  15.025 -0.6605  0.1636 -0.4647
 7590TIP3   OH244184   5.368   4.419   4.488 -0.3586  0.5259  0.4488
 7590TIP3    H144185   5.301   4.476   4.450 -0.7247  1.1478  1.9400
 7590TIP3    H244186   5.337   4.402   4.577 -0.7607 -2.8298 -0.1845
 7591TIP3   OH244187   5.402   5.946  16.495 -0.5746 -0.1193 -0.3512
 7591TIP3    H144188   5.340   5.947  16.568 -1.7521 -0.4807 -1.2935
 7591TIP3    H244189   5.464   5.877  16.517  1.1918  2.0363  1.9043
 7592TIP3   OH244190   1.810   4.092   0.577 -0.1318 -0.6190 -0.0139
 7592TIP3    H144191   1.819   4.151   0.652 -1.6705  1.0252 -1.0600
 7592TIP3    H244192   1.732   4.040   0.597 -1.0640  0.4262 -0.8212
 7593TIP3   OH244193   4.110   3.137   3.669 -0.3406 -0.0474  0.3501
 7593TIP3    H144194   4.021   3.165   3.688 -0.0994  1.2044 -0.2216
 7593TIP3    H244195   4.160   3.160   3.748 -0.6620 -1.5675  1.0279
 7594TIP3   OH244196   1.359   4.557   3.209  0.4260  0.0862  0.4417
 7594TIP3    H144197   1.303   4.484   3.181  0.7746  0.0986 -0.3071
 7594TIP3    H244198   1.314   4.594   3.286 -0.3733 -0.1619  0.1010
 7595TIP3   OH244199   4.973   3.043   0.720  0.4963  0.5514 -0.0508
 7595TIP3    H144200   5.024   3.004   0.791 -2.1734 -1.3328  1.0039
 7595TIP3    H244201   5.026   3.028   0.642  0.6825 -3.4602  0.6163
 7596TIP3   OH244202   1.344   6.634   3.618  0.5145  0.1564 -0.7536
 7596TIP3    H144203   1.388   6.620   3.702  0.2033  0.3683 -0.5525
 7596TIP3    H244204   1.363   6.726   3.597 -1.1775  0.7538  0.1422
 7597TIP3   OH244205   2.923   3.940   5.006 -0.3668 -0.3920 -0.7374
 7597TIP3    H144206   2.998   3.880   5.008  2.0631  2.4027 -0.2947
 7597TIP3    H244207   2.929   3.983   4.921 -1.3616  0.0034 -0.6226
 7598TIP3   OH244208   5.842   5.360   1.461 -0.1630 -0.5721 -0.2861
 7598TIP3    H144209   5.860   5.301   1.534 -0.0959  1.9361  1.8602
 7598TIP3    H244210   5.747   5.371   1.462 -0.2377 -1.1118 -1.0775
 7599TIP3   OH244211   0.564   2.422  12.061 -0.5160  0.5122 -0.0807
 7599TIP3    H144212   0.581   2.424  11.967 -0.4215  0.3756 -0.0682
 7599TIP3    H244213   0.474   2.452  12.070 -0.5274  0.5198 -0.2153
 7600TIP3   OH244214   4.215   0.440  13.337 -0.2678 -0.2239  0.1842
 7600TIP3    H144215   4.276   0.503  13.298 -0.4008 -1.6849 -2.6631
 7600TIP3    H244216   4.270   0.369  13.369 -0.2989 -0.3959 -0.1307
 7601TIP3   OH244217   2.299   4.719  11.914  0.0769  0.3310 -0.0817
 7601TIP3    H144218   2.333   4.631  11.895 -0.5784 -0.2347  1.2750
 7601TIP3    H244219   2.212   4.720  11.873  0.8812  1.1124 -1.8943
 7602TIP3   OH244220   5.042   4.728   5.901  0.3212  0.4903  0.1318
 7602TIP3    H144221   5.100   4.745   5.976 -1.1308  1.5389  1.0829
 7602TIP3    H244222   5.040   4.812   5.854  1.5792 -0.2876 -1.3939
 7603TIP3   OH244223   1.363   4.528  15.690 -0.0305  0.7377 -0.3394
 7603TIP3    H144224   1.408   4.532  15.774 -0.1792  0.3116 -0.2392
 7603TIP3    H244225   1.341   4.436  15.678 -1.8924  1.0777  0.1555
 7604TIP3   OH244226   1.399   5.998   4.012  0.1715 -0.1969 -0.0056
 7604TIP3    H144227   1.332   6.017   3.947  1.2056 -1.0743 -1.3693
 7604TIP3    H244228   1.351   5.959   4.085 -0.9914  0.7102 -0.2566
 7605TIP3   OH244229   1.700   3.611  16.165 -0.5455 -0.4389  0.5478
 7605TIP3    H144230   1.737   3.560  16.092 -2.2580 -0.6070 -0.2502
 7605TIP3    H244231   1.610   3.628  16.139 -0.3969  1.9134  1.3948
 7606TIP3   OH244232   2.946   3.548  11.802 -0.4624 -0.5728  0.0639
 7606TIP3    H144233   3.039   3.559  11.823 -0.6371  0.6340  0.2935
 7606TIP3    H244234   2.946   3.502  11.718  0.4112  1.1713 -0.9606
 7607TIP3   OH244235   1.724   3.588   6.005  0.1180 -0.1248 -0.0883
 7607TIP3    H144236   1.769   3.589   5.920  0.0917 -1.7764 -0.1496
 7607TIP3    H244237   1.709   3.680   6.025 -0.6814  0.2966 -2.3171
 7608TIP3   OH244238   6.629   0.314  15.968  0.2393 -0.2721  0.2065
 7608TIP3    H144239   6.702   0.259  15.998 -0.9752 -1.2942  1.4163
 7608TIP3    H244240   6.562   0.251  15.943 -0.7982  0.6662  0.5776
 7609TIP3   OH244241   3.723   3.961   3.663 -0.6843  0.0543 -0.2334
 7609TIP3    H144242   3.790   3.893   3.665 -0.4972  0.2264  1.3796
 7609TIP3    H244243   3.659   3.932   3.599 -0.4301 -1.4799  0.1807
 7610TIP3   OH244244   4.155   1.216   1.061 -0.0163 -0.7005 -1.0669
 7610TIP3    H144245   4.099   1.230   0.985 -0.0996 -0.5512 -0.9787
 7610TIP3    H244246   4.235   1.179   1.025 -0.2211 -1.0394 -1.1790
 7611TIP3   OH244247   5.659   5.106   1.336  0.1308  0.5565  0.6749
 7611TIP3    H144248   5.685   5.183   1.285 -0.2188  1.3856  1.7042
 7611TIP3    H244249   5.741   5.059   1.352  0.2736  0.4132 -0.4207
 7612TIP3   OH244250   6.337   2.284  13.965  0.3406  0.2419 -0.0522
 7612TIP3    H144251   6.289   2.271  13.884 -1.8194 -1.9633  1.4165
 7612TIP3    H244252   6.358   2.195  13.995  1.3853  0.9996  1.6205
 7613TIP3   OH244253   3.117   0.301   2.703 -0.3933 -0.2764 -0.1839
 7613TIP3    H144254   3.155   0.257   2.627  0.1857  2.1110 -1.3848
 7613TIP3    H244255   3.189   0.353   2.739 -1.0297 -0.3015  1.1510
 7614TIP3   OH244256   3.073   1.873   5.201 -0.4013 -0.3361  0.5791
 7614TIP3    H144257   3.063   1.897   5.293 -2.7985 -0.6441  0.4769
 7614TIP3    H244258   3.139   1.803   5.202  1.5874  1.4434  1.6727
 7615TIP3   OH244259   0.182   0.908  11.193  0.1952 -0.0025  0.6697
 7615TIP3    H144260   0.245   0.903  11.121 -0.4426 -0.3315  0.1128
 7615TIP3    H244261   0.123   0.833  11.177 -0.3521  0.3241  1.1455
 7616TIP3   OH244262   5.820   4.969  16.699 -0.1826  0.1523  0.2124
 7616TIP3    H144263   5.818   4.951  16.793  0.5286 -0.7181  0.0812
 7616TIP3    H244264   5.778   5.054  16.690  1.3007  1.0783  1.5132
 7617TIP3   OH244265   5.054   4.379   6.001 -0.1915  0.5145 -0.2371
 7617TIP3    H144266   5.019   4.454   6.049  0.2300 -0.4091  1.6278
 7617TIP3    H244267   4.978   4.323   5.984 -0.2703  0.5809 -0.1060
 7618TIP3   OH244268   3.735   5.046   3.547 -0.5290 -0.2040  0.5446
 7618TIP3    H144269   3.775   5.108   3.609 -1.5076  1.9698 -0.8543
 7618TIP3    H244270   3.807   4.994   3.514  0.5558  1.0037  0.9180
 7619TIP3   OH244271   6.517   5.946   1.142 -0.7859  0.1530 -0.0983
 7619TIP3    H144272   6.528   5.905   1.228 -2.2256  0.5868  0.3162
 7619TIP3    H244273   6.490   5.874   1.085  1.3275 -0.3840 -0.5167
 7620TIP3   OH244274   2.303   1.702   3.843 -0.4230  0.1147  0.0713
 7620TIP3    H144275   2.236   1.769   3.853  0.1409  0.8440 -0.8559
 7620TIP3    H244276   2.374   1.729   3.901 -1.1173 -0.9672  1.5022
 7621TIP3   OH244277   6.050   5.000   0.898  0.0954  0.3113 -0.3537
 7621TIP3    H144278   6.097   5.083   0.907 -0.1427  0.5783 -1.4278
 7621TIP3    H244279   6.079   4.965   0.813  0.0993 -0.6517  0.0259
 7622TIP3   OH244280   5.245   6.324  13.937  0.2101 -0.3708 -0.0255
 7622TIP3    H144281   5.273   6.260  13.871 -3.3777 -1.7728 -0.4184
 7622TIP3    H244282   5.318   6.327  13.999  2.5986 -1.0485 -2.5704
 7623TIP3   OH244283   3.995   0.034   1.398 -0.6066 -0.0457 -0.3414
 7623TIP3    H144284   3.975   0.106   1.457 -0.3278  1.1554 -1.6689
 7623TIP3    H244285   4.060  -0.019   1.445 -0.1669  1.0448  0.3082
 7624TIP3   OH244286   4.805   2.791  16.690 -0.1635 -0.1432 -0.2017
 7624TIP3    H144287   4.805   2.776  16.785  1.3239 -0.9171 -0.2892
 7624TIP3    H244288   4.828   2.705  16.653  1.9027  0.7300 -1.1076
 7625TIP3   OH244289   2.388   0.397   3.466  0.1406  0.1151 -0.2363
 7625TIP3    H144290   2.350   0.470   3.515 -0.4256  0.9155 -1.7948
 7625TIP3    H244291   2.481   0.417   3.463 -0.1000  1.1946 -1.2679
 7626TIP3   OH244292   2.743   4.230  15.361 -0.3083 -0.2080  0.3506
 7626TIP3    H144293   2.777   4.147  15.328 -1.7101 -0.5044 -0.4244
 7626TIP3    H244294   2.740   4.287  15.285 -2.1024 -0.3983  0.2325
 7627TIP3   OH244295   4.854   4.728   2.565  0.0040  0.1799  1.0953
 7627TIP3    H144296   4.902   4.671   2.625  0.6291 -0.8030 -0.2992
 7627TIP3    H244297   4.901   4.811   2.568  1.0209 -0.3685  0.7427
 7628TIP3   OH244298   4.032   0.837  15.046 -0.8887  0.6413  0.1254
 7628TIP3    H144299   4.109   0.795  15.083 -0.2862  3.1362  1.9616
 7628TIP3    H244300   4.060   0.927  15.028 -2.6267  0.8878 -1.7591
 7629TIP3   OH244301   6.513   6.174  14.136 -0.3755 -0.4537  0.5732
 7629TIP3    H144302   6.560   6.092  14.118  2.1274  1.2949 -1.7475
 7629TIP3    H244303   6.579   6.242  14.122 -2.5873  2.0146  1.5141
 7630TIP3   OH244304   6.677   1.670  15.937 -0.0686  0.2942  0.1663
 7630TIP3    H144305   6.733   1.747  15.951  1.5674 -0.8014 -0.0945
 7630TIP3    H244306   6.650   1.644  16.025 -2.2333  2.2302  0.1692
 7631TIP3   OH244307   0.050   4.923  12.306 -0.1942  0.0368  0.8323
 7631TIP3    H144308  -0.011   4.935  12.233  1.7936  0.1556 -0.9321
 7631TIP3    H244309   0.135   4.948  12.270  1.2222 -1.9240  2.5621
 7632TIP3   OH244310   1.787   3.971  16.222  0.1104  0.3870  0.8888
 7632TIP3    H144311   1.802   4.045  16.281 -2.4380  2.3727 -0.7354
 7632TIP3    H244312   1.709   3.928  16.257 -0.1102  0.2388  0.2289
 7633TIP3   OH244313   5.723   4.621   1.533  1.2723 -0.1295 -0.2936
 7633TIP3    H144314   5.751   4.675   1.459  0.6050  0.1647 -0.3361
 7633TIP3    H244315   5.717   4.682   1.606  1.3918 -0.3139 -0.1304
 7634TIP3   OH244316   1.716   6.736  14.527  0.1098  0.0791 -0.6398
 7634TIP3    H144317   1.797   6.701  14.491  0.3683 -0.3055  0.2973
 7634TIP3    H244318   1.696   6.811  14.471  0.1642 -0.8456 -1.9692
 7635TIP3   OH244319   0.068   6.735  13.184 -0.2732  0.3683 -0.4532
 7635TIP3    H144320   0.122   6.700  13.114  0.2936 -0.2377  0.2603
 7635TIP3    H244321  -0.020   6.703  13.165  0.0718 -0.6890 -0.3181
 7636TIP3   OH244322   6.410   1.463  16.097 -0.1438  0.6697  0.1753
 7636TIP3    H144323   6.363   1.380  16.091  0.7651 -0.1072  2.7767
 7636TIP3    H244324   6.401   1.490  16.188  2.6409  1.5818  0.2612
 7637TIP3   OH244325   4.556   5.842  12.584 -0.3414 -0.8789 -0.0649
 7637TIP3    H144326   4.546   5.785  12.507  0.4857 -0.1259 -0.7566
 7637TIP3    H244327   4.647   5.831  12.610  0.1894  0.9944 -0.9531
 7638TIP3   OH244328   2.918   4.716   4.376  0.4016  0.0186  0.2643
 7638TIP3    H144329   3.008   4.744   4.391  0.3890 -0.5847  1.5715
 7638TIP3    H244330   2.879   4.787   4.324  1.6233  0.2634 -0.3432
 7639TIP3   OH244331   6.574   2.344   2.369 -0.5067  0.0941  0.0887
 7639TIP3    H144332   6.516   2.268   2.363  0.5456 -0.6008 -2.7892
 7639TIP3    H244333   6.619   2.347   2.285  1.4534  2.3797  1.0950
 7640TIP3   OH244334   4.845   5.436   3.369  0.0818 -0.2586 -0.0254
 7640TIP3    H144335   4.803   5.482   3.442  0.2772 -0.2603  0.0903
 7640TIP3    H244336   4.812   5.347   3.374  1.1609 -0.6303  0.9255
 7641TIP3   OH244337   5.808   4.706   4.168 -0.7653 -0.2726  0.5869
 7641TIP3    H144338   5.882   4.673   4.117 -0.3327  1.3460  0.1020
 7641TIP3    H244339   5.787   4.635   4.229  1.4323 -0.6508  1.0104
 7642TIP3   OH244340   2.679   2.169  15.211  0.0902 -0.4065  0.5170
 7642TIP3    H144341   2.682   2.264  15.205 -1.2392 -0.2023  2.3524
 7642TIP3    H244342   2.618   2.143  15.142  1.5184 -0.1217 -0.9417
 7643TIP3   OH244343   5.542   3.270  10.770  0.2935 -0.3981  0.3979
 7643TIP3    H144344   5.497   3.190  10.744 -0.8532  0.4223 -0.2643
 7643TIP3    H244345   5.607   3.242  10.834 -0.8070 -1.7122  0.9873
 7644TIP3   OH244346   2.947   0.107  15.172 -0.5097 -0.3353  0.4169
 7644TIP3    H144347   2.974   0.184  15.123 -0.4073  0.0415  1.0535
 7644TIP3    H244348   3.022   0.087  15.228  1.3701 -3.6033 -2.8403
 7645TIP3   OH244349   3.974   4.007  12.662  0.4875  0.1173 -0.3901
 7645TIP3    H144350   4.004   4.011  12.753  2.3712  2.0049 -1.0242
 7645TIP3    H244351   3.973   4.098  12.633 -3.9133  0.0272 -1.1868
 7646TIP3   OH244352   4.318   2.637   3.384 -0.2691 -0.6819  0.5840
 7646TIP3    H144353   4.275   2.669   3.304  2.1070  1.0573 -0.1109
 7646TIP3    H244354   4.304   2.708   3.448 -0.2161 -1.0479  1.0059
 7647TIP3   OH244355   0.408   3.823   6.459 -0.4657  0.4656  0.2331
 7647TIP3    H144356   0.418   3.790   6.370 -2.3615 -0.3237  0.2596
 7647TIP3    H244357   0.362   3.754   6.506 -0.0352  1.1076  1.6809
 7648TIP3   OH244358   1.640   2.327  14.625  0.3562 -0.4123  0.5406
 7648TIP3    H144359   1.637   2.329  14.529  1.2127  3.8826  0.4023
 7648TIP3    H244360   1.731   2.307  14.646  0.9479  1.7373  0.2518
 7649TIP3   OH244361   0.614   0.711   4.572 -0.0262  0.0457  0.7132
 7649TIP3    H144362   0.599   0.646   4.504 -1.5738  2.4158 -1.3684
 7649TIP3    H244363   0.529   0.720   4.616  0.1615  0.7020  0.9550
 7650TIP3   OH244364   1.881   0.209   3.708  0.3443  0.2191 -0.2906
 7650TIP3    H144365   1.930   0.269   3.651 -0.6729  2.0826  0.6967
 7650TIP3    H244366   1.810   0.176   3.653  1.3570 -0.7428 -1.0714
 7651TIP3   OH244367   3.604   1.391   5.152 -0.0849 -0.1701  0.3373
 7651TIP3    H144368   3.640   1.315   5.197  1.8521  0.8827  0.6723
 7651TIP3    H244369   3.622   1.465   5.210  0.3296  0.8791 -1.0680
 7652TIP3   OH244370   5.388   3.489  12.665 -0.0080 -0.3680 -0.0297
 7652TIP3    H144371   5.349   3.571  12.693 -1.0875 -0.8962  0.0492
 7652TIP3    H244372   5.342   3.466  12.585  0.5317 -0.7209 -0.2468
 7653TIP3   OH244373   0.699   4.861   2.917  0.2284 -0.2121  0.3228
 7653TIP3    H144374   0.610   4.894   2.904 -0.8781 -2.9311  0.2221
 7653TIP3    H244375   0.753   4.915   2.859 -1.3799  1.2996  0.1386
 7654TIP3   OH244376   4.453   6.519   5.796 -0.0403  0.0091  0.4206
 7654TIP3    H144377   4.433   6.426   5.788 -0.4941  0.2058 -0.9298
 7654TIP3    H244378   4.371   6.560   5.822  0.4980 -0.1172  2.4863
 7655TIP3   OH244379   2.935   1.264   0.971  0.1964  0.4674  0.4640
 7655TIP3    H144380   2.919   1.179   0.930 -0.0254  1.0327 -0.6724
 7655TIP3    H244381   3.015   1.252   1.023  0.9756 -0.0660 -0.8128
 7656TIP3   OH244382   2.474   1.388   1.124 -0.5500  0.0114  0.1602
 7656TIP3    H144383   2.383   1.369   1.102 -0.4853  2.1882 -2.6389
 7656TIP3    H244384   2.525   1.338   1.060  0.0658  0.7189  0.0742
 7657TIP3   OH244385   2.974   3.485  15.324  0.2548  0.0466 -0.0890
 7657TIP3    H144386   2.989   3.518  15.413  0.2580 -2.0063  0.7300
 7657TIP3    H244387   2.892   3.436  15.331  0.6708 -0.8065 -1.0016
 7658TIP3   OH244388   4.889   2.943   2.283 -0.3017 -0.3723  0.6116
 7658TIP3    H144389   4.935   2.985   2.355 -0.3080 -2.7760  2.1419
 7658TIP3    H244390   4.928   2.856   2.277 -1.2147 -0.6969 -1.4295
 7659TIP3   OH244391   4.475   2.086  12.589  0.0714 -0.4055  0.2469
 7659TIP3    H144392   4.461   2.166  12.539  1.4233  1.2803  2.3798
 7659TIP3    H244393   4.570   2.083  12.604 -0.1401 -1.4679  1.6272
 7660TIP3   OH244394   5.710   1.293  13.068  0.1926  0.2447 -0.4406
 7660TIP3    H144395   5.657   1.372  13.072 -1.3666 -0.8010  0.6647
 7660TIP3    H244396   5.776   1.305  13.136 -2.2523 -0.8224  2.3508
 7661TIP3   OH244397   0.892   4.012  14.746  0.0858 -0.1215 -0.1934
 7661TIP3    H144398   0.963   4.055  14.793 -1.3532  0.8414  1.1776
 7661TIP3    H244399   0.824   3.998  14.811 -0.8478 -1.3952 -1.3740
 7662TIP3   OH244400   5.878   5.428   3.773 -0.0650 -0.3351 -0.3676
 7662TIP3    H144401   5.934   5.390   3.840  0.0289 -0.3441 -0.4509
 7662TIP3    H244402   5.794   5.443   3.817 -0.1234 -0.6988 -0.3506
 7663TIP3   OH244403   1.966   1.229   0.237 -0.4350  0.8605  0.3024
 7663TIP3    H144404   1.982   1.284   0.314 -1.3911  2.2971 -0.4814
 7663TIP3    H244405   2.034   1.254   0.175 -1.1381  1.5127 -0.2217
 7664TIP3   OH244406   6.378   1.998   0.532 -0.3017  0.1617  0.2457
 7664TIP3    H144407   6.295   1.985   0.487 -0.2545 -0.7324  0.4026
 7664TIP3    H244408   6.354   2.016   0.622 -0.3252 -0.0252  0.2763
 7665TIP3   OH244409   4.584   2.977  13.757 -0.2955 -0.0964  0.2197
 7665TIP3    H144410   4.519   2.915  13.724 -0.6813  0.5332 -0.2295
 7665TIP3    H244411   4.611   3.026  13.679  0.0033  0.2926  0.5691
 7666TIP3   OH244412   2.699   2.666  10.377  0.1287  0.3037 -0.2130
 7666TIP3    H144413   2.756   2.742  10.393  0.7419 -0.3863  1.0916
 7666TIP3    H244414   2.757   2.599  10.341  0.3819 -0.6630  1.8286
 7667TIP3   OH244415   5.408   2.483  11.587 -0.3922 -0.4646  0.6067
 7667TIP3    H144416   5.330   2.446  11.546  0.2100 -0.7976 -0.2564
 7667TIP3    H244417   5.390   2.479  11.681 -0.4611 -2.7071  0.5394
 7668TIP3   OH244418   1.524   1.003   0.584  0.3960 -0.2533  0.3268
 7668TIP3    H144419   1.497   1.032   0.671 -0.0153  3.5303 -0.8496
 7668TIP3    H244420   1.442   0.986   0.538  0.4679  0.4334 -0.0693
 7669TIP3   OH244421   1.581   2.502   1.653 -0.3160  0.0266  0.0510
 7669TIP3    H144422   1.646   2.564   1.620 -0.1967  1.2577  2.3481
 7669TIP3    H244423   1.633   2.431   1.691 -0.2867  0.6351  1.1971
 7670TIP3   OH244424   4.310   6.523  16.555 -0.2635  0.0449  1.2714
 7670TIP3    H144425   4.223   6.529  16.516 -0.6405 -0.2212  2.0452
 7670TIP3    H244426   4.361   6.471  16.493 -0.4327  0.8579  0.4385
 7671TIP3   OH244427   2.917   5.052   5.609 -0.1841  0.0897 -0.0281
 7671TIP3    H144428   2.869   4.969   5.612  1.6081 -1.0061 -0.3170
 7671TIP3    H244429   2.975   5.043   5.533 -0.3749  1.8790 -0.4235
 7672TIP3   OH244430   5.316   3.145  11.667 -0.5156  0.2620  0.0421
 7672TIP3    H144431   5.407   3.175  11.668 -0.3059 -0.0738 -2.1491
 7672TIP3    H244432   5.291   3.140  11.759  1.8698 -0.1968  0.7488
 7673TIP3   OH244433   3.602   5.447   5.060 -0.0108 -0.0386 -0.2310
 7673TIP3    H144434   3.617   5.473   5.151 -0.0196  0.2227 -0.3025
 7673TIP3    H244435   3.660   5.504   5.009 -1.8515  1.6072 -0.5816
 7674TIP3   OH244436   2.153   0.652   4.326  0.1966 -0.0499  0.1691
 7674TIP3    H144437   2.127   0.743   4.342  0.5979  0.1418 -0.2328
 7674TIP3    H244438   2.200   0.626   4.405  0.2115  0.1441  0.2250
 7675TIP3   OH244439   4.659   1.074  12.779  0.4766 -0.6473 -0.2001
 7675TIP3    H144440   4.678   1.021  12.856  1.6876  1.2554  0.8883
 7675TIP3    H244441   4.702   1.158  12.796 -0.8901  0.5209 -2.0772
 7676TIP3   OH244442   4.803   3.660  10.782 -0.1283 -0.0547  0.7893
 7676TIP3    H144443   4.729   3.599  10.782 -0.0638 -0.1410  0.2374
 7676TIP3    H244444   4.788   3.716  10.706  1.8288 -1.9246 -1.1364
 7677TIP3   OH244445   2.889   5.317   5.968  0.5066 -0.8100  0.5048
 7677TIP3    H144446   2.821   5.370   6.009  1.5124  0.6701  0.3466
 7677TIP3    H244447   2.879   5.334   5.874  1.5947  0.1270  0.5248
 7678TIP3   OH244448   1.161   6.470   4.780  0.1427  0.1451 -0.0184
 7678TIP3    H144449   1.234   6.529   4.797 -0.5384  1.6911 -2.0498
 7678TIP3    H244450   1.108   6.474   4.859  1.1023  0.7623  0.6115
 7679TIP3   OH244451   3.105   1.771   1.437  0.3491  0.2262 -0.4538
 7679TIP3    H144452   3.119   1.850   1.489  0.8371  0.2106 -0.5508
 7679TIP3    H244453   3.011   1.766   1.424  0.3299  0.9134 -0.6276
 7680TIP3   OH244454   5.977   1.575   1.815  0.0875  0.2318 -0.1976
 7680TIP3    H144455   5.959   1.664   1.845 -0.1234  0.7818 -1.8164
 7680TIP3    H244456   6.072   1.567   1.817  0.0713  0.2283  0.6537
 7681TIP3   OH244457   0.220   3.922  16.311  0.4196  0.0090  0.6419
 7681TIP3    H144458   0.205   3.882  16.397 -0.7234  2.0330  1.4588
 7681TIP3    H244459   0.138   3.968  16.292  1.1016  0.6103 -0.9656
 7682TIP3   OH244460   5.890   6.632   6.001  0.6165 -0.1400 -0.1416
 7682TIP3    H144461   5.903   6.627   6.096  0.8620 -0.4419 -0.1882
 7682TIP3    H244462   5.804   6.592   5.986  0.0808  0.8861  0.0584
 7683TIP3   OH244463   5.671   0.256  14.746  0.2484 -0.0297  0.4547
 7683TIP3    H144464   5.700   0.340  14.781  1.9825 -0.3238 -0.1808
 7683TIP3    H244465   5.590   0.276  14.699  0.3769  1.1963  0.7235
 7684TIP3   OH244466   2.778   3.959   1.676 -0.6188  0.2162  0.3321
 7684TIP3    H144467   2.808   3.999   1.758  0.0647 -0.2534  0.3254
 7684TIP3    H244468   2.755   4.032   1.620  2.2677  0.7264 -0.3251
 7685TIP3   OH244469   2.089   2.849  14.836 -0.2826 -0.5313  0.0465
 7685TIP3    H144470   2.145   2.772  14.829 -1.0034 -1.1978  1.2959
 7685TIP3    H244471   2.135   2.917  14.786  0.5133 -1.6650 -0.8182
 7686TIP3   OH244472   4.556   1.021   1.219 -0.3233  0.1906  0.3775
 7686TIP3    H144473   4.584   0.962   1.148  0.9014  0.8391  0.2786
 7686TIP3    H244474   4.608   0.994   1.294  0.1536  1.0349  0.3671
 7687TIP3   OH244475   1.193   5.448   0.606 -0.3064  0.2330 -0.3235
 7687TIP3    H144476   1.139   5.370   0.598  0.6568 -0.5089  0.1738
 7687TIP3    H244477   1.154   5.511   0.545 -2.0728 -0.0507  0.4460
 7688TIP3   OH244478   1.406   2.658   5.632 -0.4261  0.1305 -0.3731
 7688TIP3    H144479   1.490   2.704   5.633  0.4234 -1.3634  0.7735
 7688TIP3    H244480   1.409   2.601   5.708 -1.4358 -1.8108 -1.7079
 7689TIP3   OH244481   1.467   3.578  11.946 -0.0935  0.6784 -0.1405
 7689TIP3    H144482   1.394   3.518  11.965 -0.2644  1.4027  1.6985
 7689TIP3    H244483   1.438   3.627  11.869 -0.3211 -0.9508 -1.1485
 7690TIP3   OH244484   4.545   1.696   4.719  1.0874  0.3460 -0.1197
 7690TIP3    H144485   4.558   1.709   4.625  2.0378 -1.8578 -0.3736
 7690TIP3    H244486   4.610   1.753   4.760  1.1614  0.7896 -0.8301
 7691TIP3   OH244487   3.846   4.234  14.673 -0.4361 -0.3287  0.0664
 7691TIP3    H144488   3.868   4.166  14.610 -0.2625  0.8874 -1.2351
 7691TIP3    H244489   3.771   4.280  14.635 -1.0432 -0.2482  1.2814
 7692TIP3   OH244490   6.499   3.180  11.228  0.6745  0.4899  0.9426
 7692TIP3    H144491   6.457   3.259  11.264 -0.3436  1.1416 -1.4720
 7692TIP3    H244492   6.491   3.115  11.298  0.5680  2.1837  2.6100
 7693TIP3   OH244493   5.942   5.767  14.928  0.0777 -0.2816  0.8018
 7693TIP3    H144494   5.975   5.736  14.844  1.3590  2.2574  0.2923
 7693TIP3    H244495   6.000   5.727  14.993  0.9950  0.1463  0.2548
 7694TIP3   OH244496   0.344   5.158  12.761 -0.0308 -0.1492  0.4866
 7694TIP3    H144497   0.355   5.090  12.695 -0.3745 -1.1861  1.4624
 7694TIP3    H244498   0.377   5.119  12.842 -0.3052  0.8185  1.0906
 7695TIP3   OH244499   6.109   1.683   3.681  0.2056  0.3737  0.1059
 7695TIP3    H144500   6.141   1.723   3.761  0.0892 -1.8221  1.3472
 7695TIP3    H244501   6.138   1.592   3.687 -1.3293 -0.2810 -1.4928
 7696TIP3   OH244502   5.066   2.966   5.722  0.4714  0.1848 -0.0613
 7696TIP3    H144503   5.006   2.906   5.677 -1.8423  1.1358  1.5556
 7696TIP3    H244504   5.081   2.926   5.808  2.4000 -0.1259 -0.4840
 7697TIP3   OH244505   4.550   2.132  16.349 -0.0167 -0.3238 -0.0097
 7697TIP3    H144506   4.532   2.157  16.440 -0.5264  0.6833 -0.3775
 7697TIP3    H244507   4.595   2.048  16.356  1.2065  0.3856  1.2445
 7698TIP3   OH244508   1.580   0.163   3.011  0.5575  0.1567 -0.1914
 7698TIP3    H144509   1.655   0.203   2.967  1.6577  0.6352  1.9600
 7698TIP3    H244510   1.617   0.090   3.059 -0.0463  1.2017  2.0000
 7699TIP3   OH244511   0.763   1.235   3.209  0.4255  0.1853  0.6896
 7699TIP3    H144512   0.809   1.305   3.255 -2.8284  1.8470  1.7429
 7699TIP3    H244513   0.743   1.170   3.276 -0.9137  0.7405  0.8729
 7700TIP3   OH244514   2.654   4.400  14.592 -0.0375 -0.3894 -0.0434
 7700TIP3    H144515   2.574   4.352  14.573 -0.0549 -0.3320 -0.1167
 7700TIP3    H244516   2.625   4.478  14.639  0.1401 -1.3649  1.7930
 7701TIP3   OH244517   5.020   1.935  13.825  0.4865 -0.1102 -0.4086
 7701TIP3    H144518   4.931   1.921  13.793  0.0766 -1.0527  1.0537
 7701TIP3    H244519   5.067   1.855  13.803  1.1315  0.5503 -1.5591
 7702TIP3   OH244520   5.333   0.562   4.255 -0.3695  0.4701  0.0972
 7702TIP3    H144521   5.369   0.485   4.299 -1.2261 -0.8320 -1.3792
 7702TIP3    H244522   5.402   0.588   4.194  0.2636  1.4432  1.1779
 7703TIP3   OH244523   2.678   6.147   4.066 -0.2424  0.3540 -0.0196
 7703TIP3    H144524   2.660   6.113   4.153 -1.4180 -1.2227 -0.8293
 7703TIP3    H244525   2.592   6.168   4.030 -0.0156 -1.0857 -1.5608
 7704TIP3   OH244526   2.330   4.118   0.369  0.2672  0.0780 -0.0882
 7704TIP3    H144527   2.425   4.105   0.363  0.2200 -0.3776  0.1130
 7704TIP3    H244528   2.296   4.033   0.395 -0.1806  0.2921  0.0305
 7705TIP3   OH244529   3.690   2.751  15.318 -0.9994  0.1942 -0.2822
 7705TIP3    H144530   3.683   2.841  15.287  0.0137  0.4060  0.0478
 7705TIP3    H244531   3.674   2.757  15.412 -0.0910  0.1825 -0.1099
 7706TIP3   OH244532   2.866   2.416   2.239 -0.0722  0.1725 -0.0342
 7706TIP3    H144533   2.866   2.508   2.266  2.9286  1.0967 -2.6019
 7706TIP3    H244534   2.932   2.374   2.295 -0.8165 -0.2671  0.5403
 7707TIP3   OH244535   0.912   0.547  10.874 -0.1001  0.3019  0.0702
 7707TIP3    H144536   0.818   0.554  10.858  0.2230  1.2222 -1.6076
 7707TIP3    H244537   0.933   0.622  10.931 -0.2591  0.5447 -0.1901
 7708TIP3   OH244538   0.548   1.490  14.642  0.2196  0.2546  0.1922
 7708TIP3    H144539   0.497   1.556  14.595 -0.2576 -0.0630  0.2562
 7708TIP3    H244540   0.551   1.521  14.732 -0.9485 -0.3443  0.4622
 7709TIP3   OH244541   4.108   6.099   4.358  0.1853 -0.3932 -0.5973
 7709TIP3    H144542   4.080   6.011   4.334 -0.7345  0.0252 -1.1238
 7709TIP3    H244543   4.170   6.086   4.430 -2.4448 -1.3586  1.6888
 7710TIP3   OH244544   1.616   3.484   1.705 -0.3398  0.2369 -0.5733
 7710TIP3    H144545   1.541   3.513   1.758  0.3430  2.1785 -0.6000
 7710TIP3    H244546   1.657   3.415   1.757 -0.4858  1.1547  0.8002
 7711TIP3   OH244547   4.281   1.274  11.387 -0.0484  0.9014  0.4488
 7711TIP3    H144548   4.202   1.290  11.438 -0.0447 -0.3875  0.8804
 7711TIP3    H244549   4.252   1.214  11.317  0.3808  1.0462  0.1448
 7712TIP3   OH244550   6.123   6.216   0.054 -0.6813  0.1904  0.3680
 7712TIP3    H144551   6.046   6.269   0.076 -2.8778 -2.2029 -0.9731
 7712TIP3    H244552   6.095   6.125   0.069  2.4847 -0.7498  1.4365
 7713TIP3   OH244553   4.349   2.664  10.233 -0.2574 -0.0059  0.1261
 7713TIP3    H144554   4.298   2.739  10.262  1.6216  1.3214  0.1729
 7713TIP3    H244555   4.328   2.594  10.295 -1.6799  0.6144  0.3568
 7714TIP3   OH244556   4.618   3.336   2.456  0.4669  0.5552 -0.2147
 7714TIP3    H144557   4.682   3.391   2.502  1.4771  1.1085 -2.1882
 7714TIP3    H244558   4.668   3.259   2.429 -0.2289  0.0216 -0.0311
 7715TIP3   OH244559   3.623   0.750   4.610  0.1586 -0.6718  0.5296
 7715TIP3    H144560   3.704   0.702   4.625 -1.0333 -2.0047  3.4685
 7715TIP3    H244561   3.575   0.697   4.545  0.6752 -1.0782  0.4772
 7716TIP3   OH244562   4.167   4.660   5.352  0.1598  0.0835  0.7222
 7716TIP3    H144563   4.075   4.688   5.352  0.5698  1.5606 -1.1140
 7716TIP3    H244564   4.183   4.630   5.263  1.8181  1.0960  0.6505
 7717TIP3   OH244565   3.140   4.797  11.095  0.6255  0.1806  0.4418
 7717TIP3    H144566   3.101   4.717  11.133  2.6049 -0.8699  0.3919
 7717TIP3    H244567   3.224   4.768  11.060  0.1300  1.6993 -2.2826
 7718TIP3   OH244568   1.388   0.227  11.783  0.4382  0.1758  0.0331
 7718TIP3    H144569   1.477   0.259  11.766  0.4038  0.2827  0.0571
 7718TIP3    H244570   1.374   0.244  11.876  0.3669  0.2195  0.0146
 7719TIP3   OH244571   4.193   0.146   1.226  0.2801  0.2200  0.0098
 7719TIP3    H144572   4.207   0.118   1.317 -0.4191  1.4469  0.5261
 7719TIP3    H244573   4.204   0.066   1.174 -0.3884 -0.7343  1.2759
 7720TIP3   OH244574   2.197   3.172  15.238  0.1133 -0.1213  0.4523
 7720TIP3    H144575   2.228   3.150  15.326 -2.0711  0.0614  1.3332
 7720TIP3    H244576   2.265   3.138  15.180  2.8895  1.8895  2.2148
 7721TIP3   OH244577   1.532   1.050   3.063 -0.0556  0.1727  0.1168
 7721TIP3    H144578   1.560   0.960   3.048 -0.5649 -0.0733  0.6146
 7721TIP3    H244579   1.473   1.069   2.991 -0.1414  0.0241  0.1470
 7722TIP3   OH244580   0.029   0.448   2.426 -0.3688 -0.5685 -0.6235
 7722TIP3    H144581   0.032   0.394   2.505 -2.8642 -1.0834 -0.7969
 7722TIP3    H244582   0.115   0.436   2.386  0.1932 -2.0367  0.8922
 7723TIP3   OH244583   6.427   3.372   4.181  0.1245  0.4212 -0.1185
 7723TIP3    H144584   6.476   3.291   4.168  1.4959  1.0763  0.7001
 7723TIP3    H244585   6.376   3.357   4.261  0.9831  0.6084  0.4843
 7724TIP3   OH244586   1.087   0.574   0.487 -0.4286  0.0383 -0.0654
 7724TIP3    H144587   1.032   0.570   0.408 -0.9659 -0.3822  0.3202
 7724TIP3    H244588   1.034   0.623   0.550  1.1732  3.0228 -0.8550
 7725TIP3   OH244589   0.349   1.584   2.517 -0.6999  0.4788  0.1695
 7725TIP3    H144590   0.427   1.530   2.527 -0.8738  0.0579 -0.6064
 7725TIP3    H244591   0.323   1.607   2.606 -0.7263 -0.8819  0.5267
 7726TIP3   OH244592   4.937   1.093   5.873 -0.1593  0.8404 -0.3630
 7726TIP3    H144593   4.899   1.045   5.947  1.2289 -0.9828 -0.7312
 7726TIP3    H244594   4.863   1.112   5.816 -0.8264 -0.7793 -0.1121
 7727TIP3   OH244595   1.672   5.308   4.670 -0.0727  0.6123  0.1803
 7727TIP3    H144596   1.705   5.225   4.637  0.5668  1.3322 -1.0695
 7727TIP3    H244597   1.631   5.287   4.754  1.7919 -0.6447  0.8160
 7728TIP3   OH244598   0.884   2.920   1.844  0.4955  0.0456  0.0868
 7728TIP3    H144599   0.791   2.898   1.847 -0.3366  2.2231 -3.1598
 7728TIP3    H244600   0.926   2.842   1.809 -0.4547 -0.3113 -0.2946
 7729TIP3   OH244601   2.530   2.262  15.560 -0.3725 -0.5438  0.3475
 7729TIP3    H144602   2.494   2.227  15.479  0.9276  2.7910 -1.8966
 7729TIP3    H244603   2.458   2.313  15.598 -0.0717  0.5832 -0.5377
 7730TIP3   OH244604   2.167   1.678  14.820  0.1647  0.2561 -0.2481
 7730TIP3    H144605   2.243   1.714  14.867 -0.3178  1.2977 -0.2298
 7730TIP3    H244606   2.170   1.584  14.837  2.0358  0.1176 -1.0823
 7731TIP3   OH244607   4.546   4.741  14.312 -0.0651 -0.2620 -0.1054
 7731TIP3    H144608   4.522   4.657  14.352 -0.2657 -0.4511 -0.6238
 7731TIP3    H244609   4.612   4.718  14.246  0.3141  0.0582  0.1569
 7732TIP3   OH244610   4.391   5.127   4.417  0.2524 -0.3271  0.3691
 7732TIP3    H144611   4.376   5.084   4.501  1.4364  0.3872  0.9712
 7732TIP3    H244612   4.364   5.062   4.352  0.3966 -1.3299  1.2810
 7733TIP3   OH244613   2.338   0.821  11.970 -0.2053 -0.2141 -0.5763
 7733TIP3    H144614   2.341   0.726  11.970 -1.9213 -0.2918 -1.1583
 7733TIP3    H244615   2.412   0.847  11.915  0.6923 -1.1584  0.1337
 7734TIP3   OH244616   4.711   0.230  14.091  0.5772 -0.1567 -0.0062
 7734TIP3    H144617   4.664   0.202  14.012 -0.5158  0.6579  0.3404
 7734TIP3    H244618   4.804   0.224  14.066  0.2897 -1.0338 -0.9549
 7735TIP3   OH244619   1.599   0.172  12.527 -0.0700 -0.1418 -0.2390
 7735TIP3    H144620   1.694   0.179  12.515 -0.1369  0.4667 -0.4306
 7735TIP3    H244621   1.575   0.091  12.480  0.8730 -2.5082  2.9972
 7736TIP3   OH244622   0.640   5.970   4.934 -0.3950  0.4428  0.0992
 7736TIP3    H144623   0.587   5.983   4.855  0.8782  0.5233 -0.7691
 7736TIP3    H244624   0.647   5.875   4.942 -2.0120  0.3724  1.1745
 7737TIP3   OH244625   1.018   0.469   2.617  0.1709  0.3357  0.2704
 7737TIP3    H144626   1.008   0.489   2.710 -3.2641 -0.0926  0.1255
 7737TIP3    H244627   1.097   0.516   2.591  0.0677  2.2244  2.9372
 7738TIP3   OH244628   5.249   4.573  11.813 -0.0422  0.2159  0.6752
 7738TIP3    H144629   5.338   4.603  11.832  0.3064 -0.7446  0.5833
 7738TIP3    H244630   5.249   4.553  11.720 -0.3431  0.1608  0.6845
 7739TIP3   OH244631   3.099   2.222  12.209 -0.2024  0.3398 -0.4738
 7739TIP3    H144632   3.134   2.260  12.290  2.3157 -0.5353 -1.0514
 7739TIP3    H244633   3.033   2.159  12.239 -0.9030  1.5968  0.7400
 7740TIP3   OH244634   4.192   1.383   4.804 -0.6018 -0.0840 -0.3151
 7740TIP3    H144635   4.143   1.412   4.728  0.9966 -1.5068 -1.9923
 7740TIP3    H244636   4.245   1.459   4.829 -1.4458  0.5208 -0.3398
 7741TIP3   OH244637   4.944   6.741   2.239  0.7050  0.4381 -0.0448
 7741TIP3    H144638   4.979   6.661   2.199  0.7632  0.1853  0.5029
 7741TIP3    H244639   4.871   6.711   2.292  0.8363  0.7277  0.3001
 7742TIP3   OH244640   6.638   1.287  14.277  0.3074 -0.0475 -0.0536
 7742TIP3    H144641   6.598   1.373  14.284 -4.0200 -1.7531 -0.9493
 7742TIP3    H244642   6.667   1.281  14.186  1.6429  0.7770  0.2931
 7743TIP3   OH244643   1.074   0.021  15.869 -1.0219  0.0900 -0.3350
 7743TIP3    H144644   1.164  -0.006  15.853 -0.4547  0.7148  1.5628
 7743TIP3    H244645   1.023  -0.059  15.856  0.3975 -1.6124  3.2399
 7744TIP3   OH244646   4.616   4.697  17.232 -0.0420 -0.8053 -0.0059
 7744TIP3    H144647   4.529   4.665  17.210  0.0325 -1.8938  1.1160
 7744TIP3    H244648   4.608   4.728  17.323  0.6708 -0.7008  0.0274
 7745TIP3   OH244649   5.368   1.306   0.659  0.0609  0.4493  0.0907
 7745TIP3    H144650   5.388   1.394   0.690 -0.2864  0.9602 -1.1181
 7745TIP3    H244651   5.274   1.296   0.672  0.2417 -0.1278  1.1333
 7746TIP3   OH244652   5.945   6.173   4.218 -0.0427  0.9867 -0.5215
 7746TIP3    H144653   5.870   6.187   4.159  0.0919 -0.2229 -1.0110
 7746TIP3    H244654   6.019   6.214   4.172  0.0128  0.2673 -1.0797
 7747TIP3   OH244655   6.672   6.578   0.123  0.1057 -0.0484 -0.4781
 7747TIP3    H144656   6.728   6.504   0.098  0.5154  0.5231 -1.3169
 7747TIP3    H244657   6.704   6.650   0.069 -0.9991  0.4673 -0.4558
 7748TIP3   OH244658   2.275   5.007  11.791 -0.4162 -0.7199 -0.4431
 7748TIP3    H144659   2.360   5.004  11.747  0.6276  1.7521  1.1864
 7748TIP3    H244660   2.280   4.937  11.857  0.7441 -0.0410  0.2169
 7749TIP3   OH244661   2.229   6.183   2.860 -0.5634 -0.3095  0.4157
 7749TIP3    H144662   2.299   6.216   2.916 -1.8426  1.4246  1.1143
 7749TIP3    H244663   2.250   6.217   2.773  0.5286 -1.5608  0.1717
 7750TIP3   OH244664   3.613   3.129  16.293 -0.0776 -0.0332  0.2344
 7750TIP3    H144665   3.617   3.130  16.389 -0.0210 -0.0954  0.2328
 7750TIP3    H244666   3.619   3.036  16.270  0.0744 -0.0065  0.1639
 7751TIP3   OH244667   5.139   2.537  14.894  0.3261 -0.1781  0.1312
 7751TIP3    H144668   5.061   2.586  14.866  0.5146 -0.6425 -1.2909
 7751TIP3    H244669   5.145   2.465  14.831  1.6634 -0.4038  0.4990
 7752TIP3   OH244670   2.994   3.000   2.677 -0.5620  0.5473  0.5867
 7752TIP3    H144671   3.049   2.965   2.607 -0.1917  1.2633  0.5061
 7752TIP3    H244672   3.040   2.975   2.758 -0.1517  1.0721  0.5212
 7753TIP3   OH244673   1.080   3.219  11.431 -0.1810  1.2248 -0.1607
 7753TIP3    H144674   1.033   3.199  11.351 -0.3244  0.7169  0.0447
 7753TIP3    H244675   1.018   3.268  11.484 -0.6689  0.1227  0.3164
 7754TIP3   OH244676   5.251   0.551  13.285 -0.6722 -0.2804  0.1694
 7754TIP3    H144677   5.238   0.599  13.367 -2.3069  0.2724 -0.3679
 7754TIP3    H244678   5.274   0.618  13.222 -0.6250 -0.5293 -0.0772
 7755TIP3   OH244679   0.846   5.571   1.443  0.3052 -0.3482  0.0381
 7755TIP3    H144680   0.832   5.564   1.538  0.3977 -0.1443  0.0674
 7755TIP3    H244681   0.766   5.611   1.410  0.4649  0.0141  0.0915
 7756TIP3   OH244682   1.215   6.545  12.511  0.2713  0.1750  1.0901
 7756TIP3    H144683   1.208   6.460  12.554  1.8157 -0.0930  0.8955
 7756TIP3    H244684   1.135   6.553  12.460  0.3511 -1.4376  0.6414
 7757TIP3   OH244685   1.679   6.096   1.167 -0.0853 -0.2978 -0.1173
 7757TIP3    H144686   1.664   6.181   1.208 -0.6136  0.2078 -1.2932
 7757TIP3    H244687   1.641   6.033   1.229 -1.7458  0.5115 -0.2401
 7758TIP3   OH244688   6.426   2.860  15.828 -0.5482  0.1187  0.7885
 7758TIP3    H144689   6.424   2.956  15.828 -0.1345  0.1302  0.1797
 7758TIP3    H244690   6.361   2.835  15.763  2.9638  0.1195 -3.1384
 7759TIP3   OH244691   0.536   4.144  12.197 -0.3596 -0.2923 -0.4346
 7759TIP3    H144692   0.588   4.150  12.117 -0.8180 -0.4385 -0.7433
 7759TIP3    H244693   0.446   4.149  12.168 -0.5353 -0.4687  0.0651
 7760TIP3   OH244694   0.962   1.481   0.030  0.1329 -0.4792 -0.1267
 7760TIP3    H144695   0.972   1.454   0.122 -0.1116 -0.4255 -0.0839
 7760TIP3    H244696   1.051   1.484  -0.004  0.1592 -1.5240 -0.1859
 7761TIP3   OH244697   4.837   6.572   5.400 -0.0423 -0.4446 -0.5197
 7761TIP3    H144698   4.777   6.502   5.428  1.1367 -1.1181  0.4009
 7761TIP3    H244699   4.781   6.632   5.350 -1.5675 -0.8514  0.6168
 7762TIP3   OH244700   3.875   1.682   0.988  0.1552 -0.7427 -0.4132
 7762TIP3    H144701   3.908   1.718   0.905 -1.1150 -1.4620 -1.2575
 7762TIP3    H244702   3.945   1.625   1.018  0.0549 -1.6213 -1.7613
 7763TIP3   OH244703   4.552   4.315  10.442 -0.4016  0.0174  0.1778
 7763TIP3    H144704   4.536   4.236  10.492 -1.9528 -0.9899 -1.7534
 7763TIP3    H244705   4.465   4.342  10.411 -0.0054  2.8012  1.1722
 7764TIP3   OH244706   3.521   2.862   1.757  0.2140  0.4306  0.4199
 7764TIP3    H144707   3.442   2.832   1.711  0.4963  1.0831 -0.5208
 7764TIP3    H244708   3.545   2.788   1.813  0.3472 -0.7738 -1.1321
 7765TIP3   OH244709   2.811   0.213  15.694 -0.2316  0.0034 -0.1530
 7765TIP3    H144710   2.771   0.299  15.706 -1.2311  0.0248 -2.9843
 7765TIP3    H244711   2.905   0.232  15.684 -0.1141  0.4739  1.5512
 7766TIP3   OH244712   4.049   5.755  16.902 -0.0551  0.5588 -0.2591
 7766TIP3    H144713   3.993   5.695  16.851  0.7550 -1.2697  0.8877
 7766TIP3    H244714   4.109   5.792  16.837  1.0010 -1.7700 -0.7112
 7767TIP3   OH244715   3.765   6.297   5.961 -0.1074 -0.5027 -0.5692
 7767TIP3    H144716   3.807   6.380   5.982  1.5938 -1.5725  0.5643
 7767TIP3    H244717   3.810   6.233   6.016 -0.2228 -2.4290 -2.5638
 7768TIP3   OH244718   0.473   0.040   6.787 -0.0475 -0.4070  0.8794
 7768TIP3    H144719   0.551   0.083   6.753 -0.1898 -0.6981  0.1578
 7768TIP3    H244720   0.502  -0.047   6.813  0.3830  0.3132  2.9726
 7769TIP3   OH244721   6.169   5.685  13.273 -0.0317  0.2660  0.3069
 7769TIP3    H144722   6.140   5.623  13.207 -0.5006  0.4372  0.3490
 7769TIP3    H244723   6.092   5.701  13.327 -0.0055  1.1238  0.1037
 7770TIP3   OH244724   4.868   3.811   1.346 -0.1770  0.9933 -0.1065
 7770TIP3    H144725   4.819   3.891   1.363 -0.1788  1.4708 -2.0933
 7770TIP3    H244726   4.923   3.833   1.270  0.6020 -0.5639 -0.0239
 7771TIP3   OH244727   2.361   1.802   0.957  0.2221  0.0038 -0.1986
 7771TIP3    H144728   2.322   1.724   0.997 -1.7763  0.8905 -0.2971
 7771TIP3    H244729   2.439   1.820   1.009  0.3409 -1.6495  0.2503
 7772TIP3   OH244730   4.855   1.646   6.452  0.0321 -0.1106 -0.3820
 7772TIP3    H144731   4.930   1.680   6.500  0.6483 -0.0123 -1.3896
 7772TIP3    H244732   4.779   1.673   6.503  0.7064 -1.3045  1.3360
 7773TIP3   OH244733   0.862   5.829   3.782  0.6030  0.4590 -0.5177
 7773TIP3    H144734   0.841   5.872   3.700 -0.9874 -0.5948 -0.7186
 7773TIP3    H244735   0.915   5.753   3.757  0.3888  0.3182 -0.5512
 7774TIP3   OH244736   4.486   0.073   0.110  0.7661 -0.1894 -0.3942
 7774TIP3    H144737   4.501   0.142   0.046 -2.2665  1.0684  0.0687
 7774TIP3    H244738   4.476  -0.007   0.058 -0.4899  0.6127 -1.4464
 7775TIP3   OH244739   0.152   3.572  11.330 -0.2448 -0.1618  0.3060
 7775TIP3    H144740   0.163   3.665  11.310  0.7124 -0.0361  1.3399
 7775TIP3    H244741   0.146   3.529  11.244 -0.4868  0.8277 -0.1791
 7776TIP3   OH244742   4.723   5.943   0.247  0.2273 -0.1741  0.3894
 7776TIP3    H144743   4.628   5.946   0.233  0.3699  3.1673 -0.8843
 7776TIP3    H244744   4.756   5.889   0.175 -0.4443  2.8787 -2.4753
 7777TIP3   OH244745   6.147   5.746   5.842  0.1060 -0.2787  0.0272
 7777TIP3    H144746   6.095   5.706   5.773  0.6247 -0.6574 -0.1490
 7777TIP3    H244747   6.170   5.673   5.900 -1.1968  0.1711  1.1962
 7778TIP3   OH244748   4.167   1.333  16.371  0.5601  0.1653 -0.0497
 7778TIP3    H144749   4.175   1.370  16.283  1.8550  0.6285  0.2339
 7778TIP3    H244750   4.093   1.274  16.366 -0.8042  1.8582 -0.8615
 7779TIP3   OH244751   6.615   0.935  10.851 -0.0750 -0.1779 -0.2733
 7779TIP3    H144752   6.696   0.889  10.874 -1.5287 -1.5396  2.6537
 7779TIP3    H244753   6.558   0.866  10.816 -0.9320  0.1287  0.4640
 7780TIP3   OH244754   2.226   3.463   3.944 -0.6236  0.4864 -0.3681
 7780TIP3    H144755   2.260   3.378   3.915  0.9936  1.4909 -1.5329
 7780TIP3    H244756   2.209   3.511   3.864 -0.7123  1.5796  0.2864
 7781TIP3   OH244757   5.876   0.961  12.884 -0.1836  0.1322  0.0450
 7781TIP3    H144758   5.875   0.982  12.977  0.6690  1.5475 -0.2436
 7781TIP3    H244759   5.918   0.875  12.879 -0.7249 -0.2076  0.9910
 7782TIP3   OH244760   4.942   1.216   5.124 -0.2642 -0.2796 -0.3101
 7782TIP3    H144761   4.963   1.283   5.190 -0.7042  1.1896 -1.5897
 7782TIP3    H244762   4.996   1.239   5.049 -0.8164 -1.0547 -0.9607
 7783TIP3   OH244763   6.769   4.481  15.675  0.1296 -0.2727 -0.1447
 7783TIP3    H144764   6.759   4.404  15.619 -3.5344  0.4228 -0.6774
 7783TIP3    H244765   6.753   4.448  15.764 -3.2513  0.0012 -0.5373
 7784TIP3   OH244766   2.378   3.160  12.084  0.4356 -0.5158  0.0999
 7784TIP3    H144767   2.300   3.155  12.139  0.5227  0.0666  0.2888
 7784TIP3    H244768   2.351   3.124  12.000 -1.2350  3.1564 -1.1526
 7785TIP3   OH244769   2.819   0.616   2.713  1.0345  0.2197  0.3675
 7785TIP3    H144770   2.781   0.530   2.698 -0.8414  1.0877 -0.2087
 7785TIP3    H244771   2.912   0.606   2.692  0.7688 -1.5407 -0.1113
 7786TIP3   OH244772   1.071   6.574   0.831 -0.7033 -0.1073  0.5111
 7786TIP3    H144773   0.989   6.610   0.799  0.2057 -0.1656 -2.1343
 7786TIP3    H244774   1.122   6.650   0.858 -1.3811 -0.0333  1.6509
 7787TIP3   OH244775   3.431   5.501   3.546 -0.0997  0.1913 -0.4580
 7787TIP3    H144776   3.479   5.419   3.543  1.4513  1.0859 -3.2402
 7787TIP3    H244777   3.401   5.508   3.636  0.7464 -2.8159  0.1503
 7788TIP3   OH244778   2.576   2.547   3.603  0.0626 -0.5255 -0.3951
 7788TIP3    H144779   2.520   2.614   3.641 -0.6581 -1.6033  0.5003
 7788TIP3    H244780   2.605   2.584   3.520 -3.1405 -0.4367 -1.6197
 7789TIP3   OH244781   2.269   6.431  13.024  0.0794 -0.2918 -0.2622
 7789TIP3    H144782   2.242   6.401  13.110  2.2614  0.3456  0.7274
 7789TIP3    H244783   2.197   6.487  12.994 -0.5561 -0.2242  1.3129
 7790TIP3   OH244784   5.208   1.387  16.979 -0.2743 -0.3015 -0.3433
 7790TIP3    H144785   5.206   1.318  16.913  0.6235 -0.4101 -0.2717
 7790TIP3    H244786   5.288   1.435  16.960 -1.5295  1.5555 -1.2268
 7791TIP3   OH244787   2.123   0.312  12.404  0.9907  0.4948  0.1814
 7791TIP3    H144788   2.120   0.230  12.453 -0.2272  1.4600  1.7844
 7791TIP3    H244789   2.204   0.305  12.352  0.5638 -1.9902 -0.2759
 7792TIP3   OH244790   6.046   1.404   3.713  0.3303  0.3019 -0.2201
 7792TIP3    H144791   5.981   1.365   3.654 -0.5644  0.7721  0.4347
 7792TIP3    H244792   6.109   1.334   3.729  0.9295  0.3275 -2.1942
 7793TIP3   OH244793   6.562   6.053  14.997  0.1019 -0.1694 -0.7265
 7793TIP3    H144794   6.640   6.106  15.010  0.2598  0.0108 -2.2212
 7793TIP3    H244795   6.489   6.115  15.004  0.1963 -0.0274 -1.0057
 7794TIP3   OH244796   3.924   4.370  11.344  0.4747 -0.1796  0.1466
 7794TIP3    H144797   3.947   4.310  11.415  0.2954  1.5968  1.7819
 7794TIP3    H244798   3.828   4.370  11.342  0.4335 -2.1222 -1.8607
 7795TIP3   OH244799   4.811   2.182   6.037 -0.3677  0.5989 -0.2061
 7795TIP3    H144800   4.832   2.093   6.065  0.4805 -0.2362 -3.1670
 7795TIP3    H244801   4.823   2.235   6.116  3.0761 -1.3132  0.7512
 7796TIP3   OH244802   6.078   6.390  16.520 -0.3879 -0.2594  0.0846
 7796TIP3    H144803   5.999   6.336  16.518  0.0283 -0.8950  0.5793
 7796TIP3    H244804   6.108   6.392  16.429  0.2079 -1.7949  0.2190
 7797TIP3   OH244805   1.025   5.831   1.449  0.6599 -0.0256  0.4528
 7797TIP3    H144806   0.986   5.835   1.536  1.3632 -0.7696  0.8132
 7797TIP3    H244807   0.970   5.770   1.401 -1.0940  2.0644 -0.3738
 7798TIP3   OH244808   4.217   3.418  16.932  0.6292  0.2922 -0.3167
 7798TIP3    H144809   4.179   3.372  16.857 -0.3441 -0.6717  0.7364
 7798TIP3    H244810   4.147   3.475  16.963  0.3553 -0.6928  0.9670
 7799TIP3   OH244811   6.593   5.326  13.532 -0.8122 -0.6334 -0.4615
 7799TIP3    H144812   6.572   5.403  13.586  0.0406  0.1855 -1.2618
 7799TIP3    H244813   6.512   5.308  13.484 -0.5051  0.9850 -1.7013
 7800TIP3   OH244814   5.147   4.849  15.550 -0.3172 -0.5969  0.5311
 7800TIP3    H144815   5.138   4.788  15.477  1.4563 -0.9125  0.5279
 7800TIP3    H244816   5.176   4.931  15.510 -1.6652 -0.0332  0.6516
 7801TIP3   OH244817   0.943   3.073   4.990  0.3156 -0.0304  0.4455
 7801TIP3    H144818   0.901   3.147   4.945  0.2678  0.9724  2.0196
 7801TIP3    H244819   0.870   3.016   5.014  0.1688  0.2115  0.5866
 7802TIP3   OH244820   2.828   4.972  11.022  0.0911 -0.4105  0.1262
 7802TIP3    H144821   2.818   4.881  11.050 -0.2760 -0.4683 -0.1934
 7802TIP3    H244822   2.881   4.966  10.942  0.1405 -0.3364  0.1534
 7803TIP3   OH244823   4.015   5.468  15.396 -0.1492  1.0158  0.1263
 7803TIP3    H144824   3.924   5.489  15.417 -0.3843  0.5781 -0.4094
 7803TIP3    H244825   4.020   5.373  15.406 -0.2266  0.8007 -1.5338
 7804TIP3   OH244826   4.273   5.211   3.391  0.2863  0.2170 -0.2784
 7804TIP3    H144827   4.315   5.209   3.305 -0.9102  1.4337 -0.9344
 7804TIP3    H244828   4.179   5.214   3.372 -0.0473 -0.3697  1.0998
 7805TIP3   OH244829   5.493   3.923   5.026  0.3597 -0.0872  0.4521
 7805TIP3    H144830   5.494   3.882   4.940 -0.4911  0.0172  0.3799
 7805TIP3    H244831   5.411   3.892   5.066  0.7127 -0.0886  1.1965
 7806TIP3   OH244832   5.665   4.047  11.967 -0.0985 -0.1806 -0.5562
 7806TIP3    H144833   5.661   3.959  12.005 -0.5250 -0.0748 -0.3480
 7806TIP3    H244834   5.698   4.033  11.878 -1.5280 -0.7220 -1.0261
 7807TIP3   OH244835   2.728   0.809  14.675  0.5471 -0.8806 -0.1371
 7807TIP3    H144836   2.702   0.769  14.758  0.4946 -1.2671 -0.3378
 7807TIP3    H244837   2.707   0.743  14.609  0.8544 -0.6896 -0.4300
 7808TIP3   OH244838   6.106   5.135  14.502 -0.0447 -0.3368  0.3309
 7808TIP3    H144839   6.059   5.072  14.556  1.3184 -0.8319  0.9795
 7808TIP3    H244840   6.074   5.118  14.413 -0.5237 -1.1624  0.6494
 7809TIP3   OH244841   6.356   3.814   0.229 -0.5506  0.3317  0.6217
 7809TIP3    H144842   6.377   3.735   0.278 -0.2196 -0.8227 -1.3025
 7809TIP3    H244843   6.265   3.802   0.202 -0.1539  0.0610 -0.6308
 7810TIP3   OH244844   1.422   1.683  14.992 -0.4347  0.0584 -0.4428
 7810TIP3    H144845   1.434   1.601  14.945  0.5249  0.1049 -0.3120
 7810TIP3    H244846   1.384   1.743  14.928  1.0301  0.1727 -1.2407
 7811TIP3   OH244847   3.925   4.973  11.359 -0.3013 -0.1274  0.2878
 7811TIP3    H144848   3.932   4.911  11.287  1.6382 -1.1192  1.2637
 7811TIP3    H244849   3.917   5.059  11.317  0.3712 -0.7278 -1.1076
 7812TIP3   OH244850   1.319   3.095  13.123  0.3717 -0.4191 -0.5216
 7812TIP3    H144851   1.325   3.087  13.028 -1.5037  0.8723 -0.8162
 7812TIP3    H244852   1.367   3.020  13.157  2.2059 -0.2001 -2.4450
 7813TIP3   OH244853   1.211   3.846  14.935 -0.2704  0.0287  0.4398
 7813TIP3    H144854   1.140   3.795  14.896 -1.3739  0.7407  1.4424
 7813TIP3    H244855   1.284   3.785  14.943 -1.1047 -1.0025  0.3119
 7814TIP3   OH244856   3.381   2.479   0.435  0.4697  0.0576 -0.2378
 7814TIP3    H144857   3.418   2.537   0.368 -0.0486 -1.2598 -1.7103
 7814TIP3    H244858   3.311   2.432   0.389  0.6365 -1.4667  1.0282
 7815TIP3   OH244859   3.554   1.032  13.842  0.0125  0.4674  0.0553
 7815TIP3    H144860   3.528   0.952  13.797  0.2705 -0.3262  1.2532
 7815TIP3    H244861   3.572   1.095  13.772  0.0251 -0.5922 -0.9190
 7816TIP3   OH244862   6.561   1.041  16.024  0.0071 -0.7099  0.4807
 7816TIP3    H144863   6.642   0.990  16.018  0.5025  0.2546 -2.7255
 7816TIP3    H244864   6.585   1.117  16.077  1.7159  0.2810 -1.5511
 7817TIP3   OH244865   6.517   4.939  10.340 -0.5002  0.9460  0.2386
 7817TIP3    H144866   6.445   4.997  10.316  0.6349  2.9161  1.3661
 7817TIP3    H244867   6.559   4.981  10.415  1.5835 -0.3414 -0.1124
 7818TIP3   OH244868   4.889   4.136   4.148  0.8078 -0.2060 -0.5268
 7818TIP3    H144869   4.823   4.204   4.162  1.9230  0.9894 -0.8745
 7818TIP3    H244870   4.965   4.166   4.197  1.0463 -1.6730  0.0430
 7819TIP3   OH244871   2.830   5.622   3.013  0.3196  0.6490  0.3011
 7819TIP3    H144872   2.755   5.569   2.984  0.1601  0.5911  0.8013
 7819TIP3    H244873   2.814   5.635   3.106  0.0864  2.0134  0.0883
 7820TIP3   OH244874   1.296   5.728   5.927 -0.5733 -0.1942 -0.7234
 7820TIP3    H144875   1.278   5.722   6.021  2.7994  0.1923  0.1147
 7820TIP3    H244876   1.316   5.638   5.901 -0.1211 -0.1093 -0.6860
 7821TIP3   OH244877   2.877   3.521   2.989  0.1867  0.3246  0.1438
 7821TIP3    H144878   2.808   3.470   3.032  1.8776 -0.8645  1.5963
 7821TIP3    H244879   2.864   3.610   3.020 -1.6900  0.5081 -0.9700
 7822TIP3   OH244880   2.823   5.378   3.591 -0.0038  0.8830  0.1479
 7822TIP3    H144881   2.807   5.355   3.683  1.1366  0.5776  0.2906
 7822TIP3    H244882   2.774   5.314   3.541 -0.5993  1.0231  0.5420
 7823TIP3   OH244883   0.421   3.747   5.909 -0.1661  0.0089  0.4544
 7823TIP3    H144884   0.408   3.838   5.883 -1.1441 -0.5319 -1.0547
 7823TIP3    H244885   0.451   3.752   6.000 -0.9276  1.8019  0.6418
 7824TIP3   OH244886   2.647   6.272  13.264 -0.6427 -0.3566 -0.4936
 7824TIP3    H144887   2.714   6.279  13.332 -2.3070 -0.8026  1.2662
 7824TIP3    H244888   2.655   6.182  13.232  1.5995  0.4450 -2.5936
 7825TIP3   OH244889   2.704   1.697  16.288  0.1631  0.0750  0.2220
 7825TIP3    H144890   2.763   1.670  16.217  0.9503  1.1215  0.4422
 7825TIP3    H244891   2.617   1.668  16.260  0.9036 -2.5912  0.4293
 7826TIP3   OH244892   1.466   2.056  16.123 -0.4226  0.7335  0.1948
 7826TIP3    H144893   1.536   2.026  16.181  1.2206 -0.9203 -2.4150
 7826TIP3    H244894   1.387   2.013  16.156  0.9475 -2.4840 -0.2849
 7827TIP3   OH244895   4.747   6.692   4.763 -0.0430 -0.1214 -0.7939
 7827TIP3    H144896   4.767   6.677   4.855 -0.2793  3.1541 -0.0830
 7827TIP3    H244897   4.662   6.649   4.749  0.2393 -1.0735  0.3540
 7828TIP3   OH244898   4.413   2.949  14.113  0.0887  0.1509  0.3728
 7828TIP3    H144899   4.319   2.933  14.117 -0.2261  2.0933  3.6258
 7828TIP3    H244900   4.422   3.029  14.061 -0.1275  0.3220  0.5968
 7829TIP3   OH244901   2.402   2.209   5.946 -0.7005  0.1865 -0.1017
 7829TIP3    H144902   2.470   2.242   6.004 -0.0391 -1.3623  0.0612
 7829TIP3    H244903   2.422   2.249   5.861 -0.9340  1.4793  0.4339
 7830TIP3   OH244904   2.022   3.441  11.873 -0.1563 -0.3830  0.7600
 7830TIP3    H144905   2.050   3.424  11.783 -0.7311 -1.3038  0.7482
 7830TIP3    H244906   2.038   3.358  11.919  0.9131  0.3242  1.7111
 7831TIP3   OH244907   3.929   3.882  15.528 -0.0624 -0.0047  0.1048
 7831TIP3    H144908   3.848   3.848  15.492  0.0683 -0.0775 -0.1209
 7831TIP3    H244909   3.990   3.809  15.526  0.5612  0.5179 -1.4358
 7832TIP3   OH244910   5.916   0.855   5.306  0.1038  0.5382 -0.5650
 7832TIP3    H144911   5.923   0.771   5.350 -0.0797 -0.2657 -2.0272
 7832TIP3    H244912   5.829   0.887   5.328 -0.0730  0.0367 -0.5239
 7833TIP3   OH244913   0.529   0.060   1.896 -0.2999  0.0028 -0.4910
 7833TIP3    H144914   0.608   0.072   1.950 -0.4777 -0.4378 -0.1223
 7833TIP3    H244915   0.562   0.024   1.814 -0.2203 -1.3203  0.0998
 7834TIP3   OH244916   0.495   6.519   1.461 -0.3626 -0.1329  0.2418
 7834TIP3    H144917   0.413   6.543   1.503 -0.1165 -0.4915  0.9427
 7834TIP3    H244918   0.533   6.602   1.434 -0.2838  0.1586  1.2019
 7835TIP3   OH244919   0.090   5.831   4.777  0.1293  0.3454 -0.2602
 7835TIP3    H144920   0.008   5.841   4.825  0.0447 -0.9938 -0.0849
 7835TIP3    H244921   0.156   5.812   4.844  0.7052  1.8770 -0.3499
 7836TIP3   OH244922   0.268   2.704   6.215  0.1673 -0.1937 -0.5326
 7836TIP3    H144923   0.260   2.632   6.277  0.2980  0.8870  0.7876
 7836TIP3    H244924   0.362   2.716   6.203  0.1411 -0.5122 -1.0966
 7837TIP3   OH244925   0.756   6.727  14.943 -0.9612  0.5158 -0.2087
 7837TIP3    H144926   0.716   6.814  14.941 -1.0630  0.4596 -2.1573
 7837TIP3    H244927   0.720   6.687  15.022 -1.5685  1.9244  0.2766
 7838TIP3   OH244928   4.839   1.066  10.661  0.0806  0.3571  0.7850
 7838TIP3    H144929   4.749   1.040  10.641  0.2386 -1.6959  2.3520
 7838TIP3    H244930   4.889   1.037  10.585 -0.3740 -0.0227  0.6212
 7839TIP3   OH244931   0.048   4.543   0.406 -0.0489  0.3966  0.0903
 7839TIP3    H144932  -0.022   4.497   0.453 -0.3173 -1.4786 -1.9977
 7839TIP3    H244933   0.002   4.605   0.350  0.0641  0.2372 -0.1777
 7840TIP3   OH244934   5.517   1.912   3.834 -0.3685 -0.0184  0.2036
 7840TIP3    H144935   5.552   1.889   3.747  1.6187 -0.0234  0.9448
 7840TIP3    H244936   5.557   1.847   3.893 -0.4691  0.9085  1.3246
 7841TIP3   OH244937   2.319   0.893   4.622 -0.0666  0.2687  0.2808
 7841TIP3    H144938   2.228   0.912   4.643 -0.2250  2.7090 -2.0587
 7841TIP3    H244939   2.370   0.958   4.670  0.6364 -1.6417  2.3026
 7842TIP3   OH244940   0.572   3.029   4.267 -0.0512 -0.2626  0.1613
 7842TIP3    H144941   0.551   3.025   4.360 -0.1797  0.6412  0.1798
 7842TIP3    H244942   0.490   3.004   4.223 -0.4389  0.7827  0.2726
 7843TIP3   OH244943   1.487   2.021  16.888 -0.1978 -0.2456  0.3438
 7843TIP3    H144944   1.577   2.041  16.861 -0.5798 -0.8022 -1.4531
 7843TIP3    H244945   1.455   2.102  16.926  0.6902  0.3088 -0.0573
 7844TIP3   OH244946   4.201   1.940   6.160 -0.0913 -0.9470 -0.3341
 7844TIP3    H144947   4.144   1.890   6.101 -0.9847  0.1660 -0.4508
 7844TIP3    H244948   4.167   1.924   6.247 -0.8908  0.0561 -0.4399
 7845TIP3   OH244949   6.264   5.379   4.166 -0.2914  0.0482 -0.4259
 7845TIP3    H144950   6.199   5.444   4.195 -0.8455 -0.3251 -0.8205
 7845TIP3    H244951   6.274   5.321   4.241 -1.5193 -0.7548 -0.8551
 7846TIP3   OH244952   4.805   2.464   0.466 -0.0080 -0.0559  0.0552
 7846TIP3    H144953   4.741   2.535   0.471  1.4810  1.4710 -1.0850
 7846TIP3    H244954   4.876   2.493   0.524  1.5382  0.4809 -1.9681
 7847TIP3   OH244955   4.000   4.407   5.742 -0.2116  0.4720 -0.5920
 7847TIP3    H144956   3.976   4.423   5.651 -0.8402  0.0608 -0.5007
 7847TIP3    H244957   4.006   4.494   5.781 -0.6681  0.6169 -0.8438
 7848TIP3   OH244958   2.830   3.204  13.250 -0.1756  0.1585 -0.2834
 7848TIP3    H144959   2.764   3.255  13.297  0.2646  0.0594  0.4661
 7848TIP3    H244960   2.785   3.171  13.172 -0.6663  1.0736 -0.3912
 7849TIP3   OH244961   0.637   6.497   5.512 -0.2830 -0.5095 -0.3433
 7849TIP3    H144962   0.640   6.424   5.574 -1.3291 -0.3229 -0.0601
 7849TIP3    H244963   0.680   6.569   5.559 -1.4961 -0.2318  0.3706
 7850TIP3   OH244964   0.998   3.338  17.047  0.6454 -0.0410  0.0308
 7850TIP3    H144965   1.059   3.406  17.075  0.6238  1.1225 -2.5273
 7850TIP3    H244966   1.045   3.256  17.061  1.8451  0.6813  0.3613
 7851TIP3   OH244967   4.059   1.143   5.541 -0.2848 -0.2722 -0.0538
 7851TIP3    H144968   3.987   1.202   5.519 -0.9038 -1.1204 -0.3554
 7851TIP3    H244969   4.116   1.196   5.598 -2.1320 -0.1398  1.8240
 7852TIP3   OH244970   3.686   2.864  13.902 -0.1027 -0.0119 -0.4009
 7852TIP3    H144971   3.654   2.952  13.920  1.6247  0.4363  0.7102
 7852TIP3    H244972   3.640   2.837  13.823 -1.7120  1.3201  0.0283
 7853TIP3   OH244973   0.326   3.196   0.794 -0.3120 -0.1826 -0.5693
 7853TIP3    H144974   0.333   3.113   0.842  2.0870 -0.9590 -2.0815
 7853TIP3    H244975   0.393   3.252   0.834 -0.6273  0.3543 -0.7906
 7854TIP3   OH244976   2.743   0.125   2.905  0.3995 -0.5821 -0.5189
 7854TIP3    H144977   2.648   0.129   2.898  0.3998 -1.4528 -1.1576
 7854TIP3    H244978   2.771   0.217   2.907 -0.4738 -0.3178  0.1088
 7855TIP3   OH244979   2.374   4.118   2.296  0.0887 -0.2798  0.0916
 7855TIP3    H144980   2.453   4.087   2.251 -0.3942 -0.5694 -0.5671
 7855TIP3    H244981   2.401   4.128   2.388 -0.0175 -3.8351  0.6552
 7856TIP3   OH244982   2.947   4.785  11.609 -0.1349 -0.2646 -0.8402
 7856TIP3    H144983   3.003   4.779  11.687  1.4834  3.1097 -1.5439
 7856TIP3    H244984   2.982   4.718  11.550  0.9875 -0.4838  0.0321
 7857TIP3   OH244985   3.574   0.808  13.166  0.0179 -0.0251 -0.2398
 7857TIP3    H144986   3.533   0.842  13.246 -1.1684 -0.0321 -0.8253
 7857TIP3    H244987   3.606   0.721  13.191  0.6233  0.4051  0.5148
 7858TIP3   OH244988   2.925   4.402  14.592 -0.4257 -0.0450  0.2324
 7858TIP3    H144989   2.833   4.410  14.615 -1.7526 -2.1300 -3.6134
 7858TIP3    H244990   2.931   4.435  14.502  2.9123  1.2691  0.7694
 7859TIP3   OH244991   3.395   6.645  13.892 -0.3925  0.0146 -0.4321
 7859TIP3    H144992   3.395   6.578  13.824  1.1389 -2.2141  1.5998
 7859TIP3    H244993   3.369   6.599  13.971  2.4451  1.3426  1.4233
 7860TIP3   OH244994   0.588   4.884   3.332  0.8293  0.4876  0.4182
 7860TIP3    H144995   0.527   4.926   3.393 -1.3077 -0.0514 -1.2279
 7860TIP3    H244996   0.644   4.830   3.387 -0.6457  0.4660  1.9548
 7861TIP3   OH244997   4.364   0.300  14.977 -0.2560  0.1008  0.5000
 7861TIP3    H144998   4.396   0.332  14.893  0.9777 -0.8736  0.5682
 7861TIP3    H244999   4.384   0.371  15.039  0.8411 -0.0405  0.3389
 7862TIP3   OH245000   0.582   1.929   1.920 -0.2176 -0.2545 -0.1114
 7862TIP3    H145001   0.580   2.024   1.907 -1.6225 -0.4246 -1.4871
 7862TIP3    H245002   0.638   1.896   1.850 -0.4368 -0.4873 -0.1822
 7863TIP3   OH245003   4.641   5.872   3.245  0.1046 -0.0037  0.2545
 7863TIP3    H145004   4.688   5.840   3.322  1.3966 -2.2212 -1.3554
 7863TIP3    H245005   4.677   5.822   3.172 -2.0619  1.0089 -1.6300
 7864TIP3   OH245006   1.406   4.828  14.071 -0.3645  0.0222 -0.0140
 7864TIP3    H145007   1.386   4.809  13.979  0.0373 -0.5308  0.0076
 7864TIP3    H245008   1.375   4.917  14.084 -1.3485 -0.2413 -0.4095
 7865TIP3   OH245009   0.303   4.668   3.967 -0.0116  0.2623  0.3599
 7865TIP3    H145010   0.219   4.705   3.938  0.4791  0.2891 -1.0846
 7865TIP3    H245011   0.279   4.585   4.008 -0.6441 -0.5358 -1.5054
 7866TIP3   OH245012   6.254   4.176  16.644  0.2823 -0.3097 -0.0850
 7866TIP3    H145013   6.293   4.095  16.675  1.1750 -0.2457 -0.9763
 7866TIP3    H245014   6.252   4.166  16.548 -1.0640  0.0659 -0.1156
 7867TIP3   OH245015   0.276   3.978   2.319  0.2027 -0.0619 -0.3567
 7867TIP3    H145016   0.344   4.021   2.268 -0.3991 -0.3580 -1.4396
 7867TIP3    H245017   0.197   4.028   2.302 -0.1441 -0.5579 -0.2447
 7868TIP3   OH245018   5.431   2.484  13.028  0.3823 -0.2313 -0.7814
 7868TIP3    H145019   5.431   2.393  13.001  2.3499 -0.6369  0.3482
 7868TIP3    H245020   5.339   2.508  13.036 -0.1820 -2.4743  0.0052
 7869TIP3   OH245021   0.101   2.643   6.000 -0.3894  0.0069  0.2230
 7869TIP3    H145022   0.044   2.618   6.072  1.9644 -1.9067  1.5719
 7869TIP3    H245023   0.184   2.667   6.042  0.3546  1.0871 -1.7320
 7870TIP3   OH245024   4.018   1.415   2.102 -0.0271  0.5468 -0.6650
 7870TIP3    H145025   4.023   1.322   2.125 -0.7456  0.6661  0.0365
 7870TIP3    H245026   3.937   1.422   2.051 -0.3472  0.9004 -0.1143
 7871TIP3   OH245027   3.626   3.812   6.004  0.0578  0.0323 -0.3922
 7871TIP3    H145028   3.650   3.737   6.057  1.5527 -0.1971 -1.3392
 7871TIP3    H245029   3.530   3.818   6.012  0.1232 -0.6848  1.3451
 7872TIP3   OH245030   0.202   4.127  11.434  0.1324  0.0207  0.1359
 7872TIP3    H145031   0.273   4.168  11.385  1.7402  0.5120  2.6740
 7872TIP3    H245032   0.214   4.033  11.421  0.1523  0.1532 -0.8507
 7873TIP3   OH245033   5.916   4.280  12.993  0.4369 -0.0002  0.4547
 7873TIP3    H145034   5.862   4.209  12.957  1.0206 -0.8223  1.1729
 7873TIP3    H245035   5.965   4.313  12.917 -1.1535  0.8695 -0.2458
 7874TIP3   OH245036   0.619   0.894   5.795 -0.3226  0.4947  0.0896
 7874TIP3    H145037   0.669   0.849   5.863 -0.1187  2.8380  1.6375
 7874TIP3    H245038   0.606   0.829   5.726  0.8165 -1.5335  1.6953
 7875TIP3   OH245039   1.817   0.258   4.682 -0.0254 -0.2620 -0.6302
 7875TIP3    H145040   1.747   0.303   4.729 -0.4543 -2.0936  0.6265
 7875TIP3    H245041   1.779   0.174   4.658  1.6841 -1.2739 -0.0047
 7876TIP3   OH245042   5.925   3.102   1.767 -0.2447 -0.4325 -0.0403
 7876TIP3    H145043   5.998   3.071   1.819 -0.0958  1.5835  1.0307
 7876TIP3    H245044   5.930   3.197   1.771  0.0852 -0.0605 -4.1937
 7877TIP3   OH245045   6.565   1.681  13.996  0.0386  0.2102  0.0705
 7877TIP3    H145046   6.508   1.616  14.037 -0.1474  0.2929 -0.0542
 7877TIP3    H245047   6.651   1.640  13.994  0.2678  0.5958  1.4568
 7878TIP3   OH245048   2.235   4.361  12.352  0.1703  0.0563  0.2089
 7878TIP3    H145049   2.243   4.432  12.416  0.6703  0.0148  0.1996
 7878TIP3    H245050   2.186   4.293  12.398  1.7676 -0.5572  1.0800
 7879TIP3   OH245051   1.230   1.776   0.947 -0.1922 -0.4553 -0.1329
 7879TIP3    H145052   1.204   1.861   0.980 -0.8212 -0.4659 -0.5797
 7879TIP3    H245053   1.266   1.730   1.023  0.4526  0.3180  0.0373
 7880TIP3   OH245054   0.341   4.043   6.563 -0.7495 -0.0079 -0.1050
 7880TIP3    H145055   0.247   4.025   6.566 -0.4998 -1.7994 -1.6364
 7880TIP3    H245056   0.382   3.959   6.543  1.3950  0.2857  2.4155
 7881TIP3   OH245057   6.071   6.333  14.385  0.1269 -0.1379  0.0146
 7881TIP3    H145058   6.141   6.309  14.324 -1.0059 -2.0849 -0.6111
 7881TIP3    H245059   6.052   6.252  14.433 -2.3683  0.0022 -0.5784
 7882TIP3   OH245060   4.176   0.214  15.326 -0.3618 -0.2762  0.3946
 7882TIP3    H145061   4.196   0.170  15.409  1.6898  0.4727  0.3626
 7882TIP3    H245062   4.135   0.147  15.272  3.1132 -2.4368  0.1408
 7883TIP3   OH245063   5.704   5.382   5.072 -0.5639  0.4921 -0.2919
 7883TIP3    H145064   5.791   5.408   5.040  0.0943 -1.3059 -0.0519
 7883TIP3    H245065   5.653   5.369   4.992  0.7490 -2.8516 -0.7567
 7884TIP3   OH245066   6.372   1.166   4.915  0.5739  0.0692  0.3402
 7884TIP3    H145067   6.384   1.253   4.875 -0.9518 -0.0756 -0.5116
 7884TIP3    H245068   6.367   1.106   4.841 -1.6436 -0.2957  0.7391
 7885TIP3   OH245069   5.929   1.825  13.312  0.0618 -0.0073 -0.4001
 7885TIP3    H145070   5.981   1.779  13.246  0.8568 -0.3147  0.4181
 7885TIP3    H245071   5.907   1.757  13.376  0.2826  0.5193  0.2404
 7886TIP3   OH245072   5.635   2.667  14.887 -0.2027  0.4482  0.7470
 7886TIP3    H145073   5.718   2.665  14.936  0.3966  0.4732 -0.2403
 7886TIP3    H245074   5.617   2.575  14.867  0.9520  0.5834 -1.2230
 7887TIP3   OH245075   4.327   5.349  15.243 -0.3036  0.0022  0.2520
 7887TIP3    H145076   4.273   5.427  15.228  0.2640  0.6244  1.3588
 7887TIP3    H245077   4.339   5.312  15.155 -0.5628  1.1677 -0.3001
 7888TIP3   OH245078   3.726   6.625   3.485  0.5440 -0.4100  0.2377
 7888TIP3    H145079   3.701   6.706   3.530 -2.3588 -1.4511  0.7025
 7888TIP3    H245080   3.742   6.652   3.395  0.4818  0.8135  0.5752
 7889TIP3   OH245081   2.200   6.551  15.257 -0.2042  0.1726  0.0353
 7889TIP3    H145082   2.197   6.531  15.163  2.1482 -0.1204 -0.0549
 7889TIP3    H245083   2.146   6.630  15.266  0.0717  0.6214 -1.7087
 7890TIP3   OH245084   5.626   2.530   1.683 -0.6722  0.1283 -0.3757
 7890TIP3    H145085   5.549   2.516   1.628 -0.2108  0.4505 -1.1286
 7890TIP3    H245086   5.699   2.497   1.630 -0.2381  0.2732  0.1272
 7891TIP3   OH245087   0.279   1.360   2.274 -0.3512 -0.5670  0.5118
 7891TIP3    H145088   0.340   1.423   2.235  0.2384 -1.4482 -0.0436
 7891TIP3    H245089   0.236   1.319   2.198 -2.0809  0.4388  0.8985
 7892TIP3   OH245090   0.322   3.014  11.714 -0.3113  0.2110 -0.1098
 7892TIP3    H145091   0.351   2.996  11.624 -0.9146  0.7038 -0.4149
 7892TIP3    H245092   0.231   3.043  11.704 -0.4090  0.1935  0.6733
 7893TIP3   OH245093   0.164   2.402  17.138 -0.2172 -0.1895  0.1276
 7893TIP3    H145094   0.205   2.350  17.207 -0.7176  0.0843  0.6395
 7893TIP3    H245095   0.183   2.493  17.162 -1.3118 -0.0510  0.4903
 7894TIP3   OH245096   2.262   1.521  14.085  0.5341  0.7283  0.1087
 7894TIP3    H145097   2.343   1.472  14.096 -0.4087 -0.9682 -0.1603
 7894TIP3    H245098   2.284   1.610  14.112  1.8794 -0.1909  2.3338
 7895TIP3   OH245099   6.552   6.756   0.517 -0.2587 -0.0819 -0.8284
 7895TIP3    H145100   6.516   6.813   0.586 -2.3150 -1.3721 -0.7622
 7895TIP3    H245101   6.487   6.686   0.507  1.8461 -2.0751 -1.3847
 7896TIP3   OH245102   4.452   5.291   3.180  0.2233 -0.0327  0.2310
 7896TIP3    H145103   4.497   5.300   3.264  1.8692 -2.0431 -0.3537
 7896TIP3    H245104   4.520   5.307   3.114 -1.1068  1.8240 -0.7916
 7897TIP3   OH245105   4.129   2.051  13.718 -0.0057  0.3804 -0.0740
 7897TIP3    H145106   4.172   2.063  13.634  1.5169  0.2680  0.6456
 7897TIP3    H245107   4.066   1.981  13.703  0.2347  0.3726 -1.1140
 7898TIP3   OH245108   4.284   4.496   6.558  0.0262 -0.3681  0.5212
 7898TIP3    H145109   4.294   4.569   6.497  1.9238 -0.4459  0.6643
 7898TIP3    H245110   4.249   4.425   6.505  2.1196 -0.5867 -0.6722
 7899TIP3   OH245111   0.674   5.946   4.115 -0.0924 -0.8508  0.2706
 7899TIP3    H145112   0.728   5.999   4.057  0.6465 -0.8353  0.9635
 7899TIP3    H245113   0.723   5.942   4.197 -0.3378 -2.2368  0.3742
 7900TIP3   OH245114   6.621   4.151  16.190  0.2574  0.0695  0.0944
 7900TIP3    H145115   6.564   4.103  16.130 -0.0673  2.2849 -1.5275
 7900TIP3    H245116   6.647   4.229  16.141  1.8587  0.8776  2.0598
 7901TIP3   OH245117   4.076   2.194   1.424  0.5687  0.2754  0.4417
 7901TIP3    H145118   4.083   2.143   1.504  1.6048  0.4371  0.4666
 7901TIP3    H245119   4.118   2.140   1.357  0.1503  0.3552  0.1101
 7902TIP3   OH245120   0.446   1.723  16.830 -0.0867 -0.0630 -0.5776
 7902TIP3    H145121   0.457   1.642  16.879  0.8967  1.5898  2.1950
 7902TIP3    H245122   0.364   1.759  16.864 -1.9811 -1.0241 -3.7267
 7903TIP3   OH245123   2.920   4.756   5.103  0.2915 -0.2198  0.1929
 7903TIP3    H145124   2.912   4.736   5.196  1.1395 -2.8545 -0.2026
 7903TIP3    H245125   2.943   4.672   5.063  3.3467  1.4107 -1.9297
 7904TIP3   OH245126   4.441   5.038   1.539 -0.3899 -0.1088  0.2641
 7904TIP3    H145127   4.459   4.947   1.515  0.8530  0.6637 -2.0237
 7904TIP3    H245128   4.371   5.065   1.479  0.4647  0.9296 -0.2865
 7905TIP3   OH245129   4.823   3.990  10.699  0.3797  0.6039 -0.3155
 7905TIP3    H145130   4.917   3.973  10.695  0.6899  2.3018 -1.8366
 7905TIP3    H245131   4.805   4.007  10.791  0.6600 -3.8821  0.7854
 7906TIP3   OH245132   0.299   6.253  16.805  0.8463 -0.0346  0.6087
 7906TIP3    H145133   0.316   6.340  16.769  0.8865  0.9938  2.9297
 7906TIP3    H245134   0.382   6.206  16.793  0.9718  0.3783 -0.2510
 7907TIP3   OH245135   5.858   2.216  13.769  0.4628  0.0020  0.1274
 7907TIP3    H145136   5.806   2.224  13.849  0.3959  1.7030 -0.0577
 7907TIP3    H245137   5.897   2.128  13.774  1.7663  0.6383  2.8230
 7908TIP3   OH245138   4.317   2.241  11.914 -0.0902  0.7517 -0.6693
 7908TIP3    H145139   4.297   2.163  11.966 -1.9910  0.8226 -1.2444
 7908TIP3    H245140   4.332   2.309  11.980 -0.4463  0.3763 -0.1915
 7909TIP3   OH245141   0.102   3.455  16.042  0.1480 -0.6340 -0.0569
 7909TIP3    H145142   0.141   3.540  16.021 -1.7776  0.1842 -0.5457
 7909TIP3    H245143   0.176   3.394  16.043  1.5987  1.0364  0.3635
 7910TIP3   OH245144   4.734   1.390   0.408  0.1168 -0.4931  0.0361
 7910TIP3    H145145   4.761   1.469   0.455  1.1402 -1.1281  0.5630
 7910TIP3    H245146   4.648   1.411   0.372  0.3279  0.8175  0.2527
 7911TIP3   OH245147   6.505   1.920   2.331  0.2166  0.2184 -0.3378
 7911TIP3    H145148   6.466   2.004   2.354 -0.8287  0.2026 -1.9168
 7911TIP3    H245149   6.576   1.908   2.394  1.3237  2.9231 -0.9738
 7912TIP3   OH245150   0.092   3.478  11.060 -0.2493  0.4327  0.4380
 7912TIP3    H145151   0.024   3.545  11.062  0.7044  1.4078  1.5614
 7912TIP3    H245152   0.047   3.396  11.082 -1.2980  0.7977 -0.2722
 7913TIP3   OH245153   0.117   0.289   1.673 -0.1278 -0.4598 -0.3889
 7913TIP3    H145154   0.095   0.212   1.725 -1.6086 -0.8064 -1.4552
 7913TIP3    H245155   0.136   0.254   1.586 -2.3706  0.4184 -1.3314
 7914TIP3   OH245156   2.592   4.156  13.416 -0.1547  0.2364 -0.5256
 7914TIP3    H145157   2.539   4.076  13.405 -0.6010  0.4970 -0.3187
 7914TIP3    H245158   2.570   4.186  13.504 -0.1962  0.7342 -0.7046
 7915TIP3   OH245159   5.692   2.560   1.949  0.3998 -0.4251 -0.0804
 7915TIP3    H145160   5.677   2.568   1.855  3.7538  0.7279 -0.6311
 7915TIP3    H245161   5.652   2.476   1.972  0.5179 -1.3134 -2.7734
 7916TIP3   OH245162   2.467   5.871   4.338 -0.3642 -0.4829 -0.5704
 7916TIP3    H145163   2.471   5.791   4.286 -1.2388  1.4352 -3.9058
 7916TIP3    H245164   2.377   5.902   4.329  0.3064  1.6276 -0.7023
 7917TIP3   OH245165   1.338   1.736   5.537  0.0825  0.3037 -0.0448
 7917TIP3    H145166   1.331   1.829   5.556 -0.2706  0.1165  0.7924
 7917TIP3    H245167   1.294   1.725   5.453 -0.0898  0.8536 -0.0280
 7918TIP3   OH245168   3.267   3.056  17.021 -0.0971 -0.4398  0.5103
 7918TIP3    H145169   3.214   3.125  17.061  0.3241  0.7904 -0.9308
 7918TIP3    H245170   3.328   3.103  16.964  0.8662 -1.9650  0.2136
 7919TIP3   OH245171   6.516   5.615   3.359 -0.3694 -0.3251  0.2098
 7919TIP3    H145172   6.573   5.538   3.358 -0.3493 -0.3232 -1.2988
 7919TIP3    H245173   6.446   5.594   3.297 -0.7937  0.5557  0.3673
 7920TIP3   OH245174   5.408   2.470  11.870  0.0717  0.5025  0.3301
 7920TIP3    H145175   5.355   2.390  11.876 -0.5207  0.7354 -1.4036
 7920TIP3    H245176   5.492   2.445  11.910  1.5770 -2.5366 -4.0059
 7921TIP3   OH245177   6.134   1.493   2.113 -0.4788  0.3677 -0.4503
 7921TIP3    H145178   6.041   1.469   2.106 -0.6718  1.0373 -0.2935
 7921TIP3    H245179   6.134   1.573   2.166  0.0603  1.1975 -1.6634
 7922TIP3   OH245180   5.679   0.001  14.871  0.5257  0.1111 -0.1363
 7922TIP3    H145181   5.694   0.086  14.829 -0.4000  0.1825 -0.3470
 7922TIP3    H245182   5.592  -0.024  14.842  0.6656 -0.7651  0.1900
 7923TIP3   OH245183   2.289   5.823  16.942 -0.1346 -0.5208 -0.2574
 7923TIP3    H145184   2.282   5.894  17.006  2.0039 -1.0131  0.5763
 7923TIP3    H245185   2.295   5.743  16.994  3.1907 -0.8213 -0.9074
 7924TIP3   OH245186   0.434   3.945   1.236 -0.3165  0.1515  0.0952
 7924TIP3    H145187   0.407   4.033   1.209  1.8055  0.4397 -1.2865
 7924TIP3    H245188   0.352   3.894   1.234 -1.2393  1.5827 -1.2049
 7925TIP3   OH245189   0.131   2.418  12.829  0.0536 -0.3605  0.6213
 7925TIP3    H145190   0.043   2.454  12.841  2.1064  5.6100  1.4773
 7925TIP3    H245191   0.158   2.453  12.744  1.8371 -1.4120  0.7207
 7926TIP3   OH245192   6.500   3.428  15.198 -0.1216 -0.0612  0.2981
 7926TIP3    H145193   6.524   3.358  15.138  0.3494  0.3356  0.0177
 7926TIP3    H245194   6.438   3.481  15.148  0.7311  0.6119 -0.0683
 7927TIP3   OH245195   2.964   5.969   5.022 -0.1267 -0.0650  0.7444
 7927TIP3    H145196   3.004   6.030   4.961 -1.8880 -0.2905 -0.7243
 7927TIP3    H245197   3.025   5.895   5.026  0.7101  0.5981  0.4017
 7928TIP3   OH245198   4.680   0.394  13.369  0.4264  0.0218  0.1196
 7928TIP3    H145199   4.689   0.415  13.276 -1.1159  0.8819  0.1268
 7928TIP3    H245200   4.770   0.390  13.401  0.9571  1.1009 -1.1145
 7929TIP3   OH245201   0.310   3.293  16.139 -0.1534  0.1136  0.0597
 7929TIP3    H145202   0.378   3.343  16.094 -0.3490  1.0985  0.8125
 7929TIP3    H245203   0.355   3.215  16.172  1.4358  2.0981  3.0991
 7930TIP3   OH245204   2.969   3.947  14.552  0.2558  0.1943 -0.0711
 7930TIP3    H145205   2.965   4.021  14.612  0.3729 -0.8763  1.2935
 7930TIP3    H245206   3.042   3.967  14.494 -0.0109  1.3607 -0.0190
 7931TIP3   OH245207   3.999   4.999  16.615 -0.6095  0.2059 -0.3263
 7931TIP3    H145208   3.923   5.049  16.584  0.3529  2.9311  1.3353
 7931TIP3    H245209   4.071   5.027  16.559 -0.5576 -1.4753 -1.1404
 7932TIP3   OH245210   4.009   0.795   5.902 -0.1069  0.3519 -0.0831
 7932TIP3    H145211   4.079   0.849   5.939  1.1126 -0.8570 -0.5597
 7932TIP3    H245212   3.935   0.810   5.960  0.6957  1.2390  0.7608
 7933TIP3   OH245213   6.698   1.895  16.624 -0.3775  0.4098 -0.1045
 7933TIP3    H145214   6.684   1.965  16.560 -0.7688 -1.1793 -1.8360
 7933TIP3    H245215   6.781   1.918  16.667  0.4811  0.9945 -1.9612
 7934TIP3   OH245216   1.963   5.257  16.713  0.1697  0.3532  0.0150
 7934TIP3    H145217   2.045   5.283  16.754  0.8602 -0.6903 -0.6392
 7934TIP3    H245218   1.950   5.166  16.741  0.1497 -0.0518 -1.2511
 7935TIP3   OH245219   3.566   2.255   1.717  0.3471 -0.1590  0.5225
 7935TIP3    H145220   3.498   2.288   1.657 -0.2285 -1.2001  0.5835
 7935TIP3    H245221   3.611   2.188   1.667  0.4836 -0.3711  0.9301
 7936TIP3   OH245222   2.732   6.082  13.859  0.3476 -0.1398 -0.0413
 7936TIP3    H145223   2.637   6.081  13.869  0.4105  1.6527  1.1127
 7936TIP3    H245224   2.761   6.162  13.903  2.3318 -0.2416 -1.0190
 7937TIP3   OH245225   0.597   1.607  14.890 -0.1372 -0.5084 -0.5335
 7937TIP3    H145226   0.545   1.685  14.909  1.2985  0.4365 -0.3136
 7937TIP3    H245227   0.553   1.536  14.938 -1.4448  0.1504 -0.7111
 7938TIP3   OH245228   6.655   1.854   3.005 -0.3184  0.1249  0.4169
 7938TIP3    H145229   6.639   1.785   2.940  0.6015 -1.7144  2.0642
 7938TIP3    H245230   6.569   1.895   3.016 -0.9639 -0.9359 -0.3906
 7939TIP3   OH245231   0.913   0.504   4.675  0.3556 -0.5082  0.2523
 7939TIP3    H145232   0.923   0.561   4.598  2.1005 -0.4916  0.4449
 7939TIP3    H245233   0.834   0.453   4.657 -1.0003  1.6415 -0.1300
 7940TIP3   OH245234   0.576   6.021  14.512  0.2673  0.0022  0.6050
 7940TIP3    H145235   0.606   6.029  14.422  0.1334 -0.1828  0.5432
 7940TIP3    H245236   0.577   5.927  14.530  0.8121  0.0718  0.9752
 7941TIP3   OH245237   6.752   0.354   5.097  0.4717 -0.0955  0.5970
 7941TIP3    H145238   6.739   0.371   5.004 -3.0731  1.1988  1.1545
 7941TIP3    H245239   6.789   0.436   5.131  0.2824  0.0070  0.5580
 7942TIP3   OH245240   0.131   3.491   2.148 -0.0079  0.0724 -0.1857
 7942TIP3    H145241   0.180   3.571   2.166  0.4993 -0.1957 -0.3643
 7942TIP3    H245242   0.167   3.426   2.209 -0.7664  0.1057  0.3121
 7943TIP3   OH245243   4.742   2.238   3.400  0.2672  0.1018 -0.0244
 7943TIP3    H145244   4.748   2.312   3.340  0.9782  0.4933  0.5111
 7943TIP3    H245245   4.820   2.186   3.381  0.5202  0.2521  0.5693
 7944TIP3   OH245246   4.445   0.316   2.902  0.4038 -0.2808 -0.1229
 7944TIP3    H145247   4.532   0.322   2.940  0.7254  0.4615 -0.9351
 7944TIP3    H245248   4.428   0.222   2.894  0.6972 -0.4365  0.9708
 7945TIP3   OH245249   4.027   5.886  12.488 -0.0751  0.8972  0.0327
 7945TIP3    H145250   3.998   5.795  12.481  0.6466  0.7105 -0.6803
 7945TIP3    H245251   4.018   5.921  12.400 -3.4606  2.5406  0.8652
 7946TIP3   OH245252   2.404   6.067   1.808 -0.1444  0.2964  0.4272
 7946TIP3    H145253   2.402   6.111   1.723  1.2891 -2.1381 -1.0043
 7946TIP3    H245254   2.481   6.101   1.851 -0.6867  1.2946  0.6310
 7947TIP3   OH245255   0.247   5.029   2.708  0.4702  0.5790  0.1804
 7947TIP3    H145256   0.156   5.021   2.736  0.8826 -0.5050  1.2886
 7947TIP3    H245257   0.256   5.120   2.681 -1.1495  0.5117 -0.7293
 7948TIP3   OH245258   1.375   2.261  12.331  0.4219  0.3028  0.0135
 7948TIP3    H145259   1.350   2.226  12.246  0.8301 -2.1532  0.8359
 7948TIP3    H245260   1.314   2.221  12.392  0.2777  1.8583  0.9429
 7949TIP3   OH245261   5.586   5.137  15.088  0.1641  0.1702 -0.1824
 7949TIP3    H145262   5.561   5.049  15.118 -1.8766  0.8998  0.4601
 7949TIP3    H245263   5.669   5.154  15.132 -0.1695 -0.8611  0.9275
 7950TIP3   OH245264   4.642   4.925  15.593  0.9927  0.1078 -0.0972
 7950TIP3    H145265   4.687   5.006  15.570  0.1982  0.3745 -0.7562
 7950TIP3    H245266   4.710   4.857  15.586  1.2111  0.4410 -1.4424
 7951TIP3   OH245267   6.435   0.297  10.908 -0.7591  0.5500  0.2436
 7951TIP3    H145268   6.493   0.372  10.907  0.9606 -0.7248 -0.1248
 7951TIP3    H245269   6.361   0.322  10.852  0.6154  1.3288 -1.2815
 7952TIP3   OH245270   2.472   2.874  15.912 -0.6653  0.8548 -0.1176
 7952TIP3    H145271   2.398   2.932  15.931 -0.9663  1.0855 -1.8705
 7952TIP3    H245272   2.528   2.881  15.989 -2.5583  0.4966  1.3890
 7953TIP3   OH245273   1.845   5.853  13.408 -0.1789 -1.4244 -1.2275
 7953TIP3    H145274   1.803   5.939  13.417 -0.5520 -1.7005 -0.2848
 7953TIP3    H245275   1.918   5.869  13.348  0.2812 -0.2483 -0.3896
 7954TIP3   OH245276   0.854   2.763  11.851  0.7981 -0.9081 -0.1126
 7954TIP3    H145277   0.856   2.854  11.881 -0.8766 -0.7690 -0.3126
 7954TIP3    H245278   0.943   2.731  11.864  1.1635  0.4499  0.9143
 7955TIP3   OH245279   2.565   0.003  11.433  0.1344  0.0584 -0.2679
 7955TIP3    H145280   2.650  -0.032  11.405  0.0335  1.0390 -1.9654
 7955TIP3    H245281   2.542   0.066  11.365 -1.5743  0.4314  0.6017
 7956TIP3   OH245282   1.880   3.538  14.060  0.5405  0.4555  0.5902
 7956TIP3    H145283   1.901   3.462  14.114  1.0719  0.8232  0.9106
 7956TIP3    H245284   1.863   3.502  13.973  0.7629 -0.0306  0.7468
 7957TIP3   OH245285   3.105   3.071   4.717  0.3184  0.0482 -0.1874
 7957TIP3    H145286   3.023   3.023   4.726  0.3395 -0.2423 -1.3975
 7957TIP3    H245287   3.080   3.158   4.689  0.3864  0.2056  0.2301
 7958TIP3   OH245288   4.440   5.374   1.347  0.0171  0.2201 -0.4064
 7958TIP3    H145289   4.494   5.324   1.287  1.7522  0.3137  1.0003
 7958TIP3    H245290   4.352   5.339   1.335  0.7939 -1.6316 -1.0610
 7959TIP3   OH245291   5.710   2.733   1.280  0.2971  0.3263 -0.2917
 7959TIP3    H145292   5.670   2.795   1.340  0.2594 -0.2902  0.3324
 7959TIP3    H245293   5.799   2.764   1.268  0.8455 -0.4881  1.4504
 7960TIP3   OH245294   1.693   2.371   2.508  0.1786 -0.0489  0.8838
 7960TIP3    H145295   1.641   2.295   2.534 -1.6389  1.2098  1.1134
 7960TIP3    H245296   1.721   2.409   2.591  1.8516 -0.8998  0.7634
 7961TIP3   OH245297   3.932   2.317  10.567 -0.2296  0.6556 -0.2172
 7961TIP3    H145298   3.872   2.244  10.577 -0.8689  1.2663  0.5122
 7961TIP3    H245299   3.897   2.368  10.495  0.3047  0.1734 -0.8309
 7962TIP3   OH245300   5.505   5.063   2.218 -0.3161 -0.3937  0.1810
 7962TIP3    H145301   5.457   5.039   2.297 -0.8294  1.1475  0.3684
 7962TIP3    H245302   5.454   5.135   2.180  0.9353  0.1317 -0.5505
 7963TIP3   OH245303   5.221   0.877  12.145  0.0003  0.3375  0.1014
 7963TIP3    H145304   5.201   0.819  12.218  2.2455 -0.0402  0.5083
 7963TIP3    H245305   5.152   0.860  12.081 -0.7047 -1.0539  1.1734
 7964TIP3   OH245306   1.392   3.155  16.005  0.1559 -0.0849  0.2946
 7964TIP3    H145307   1.347   3.240  15.999 -0.6209 -0.5297 -0.4271
 7964TIP3    H245308   1.477   3.176  16.042 -0.4772  0.8502  1.2782
 7965TIP3   OH245309   2.546   3.024   4.416 -0.2611  0.2612 -0.0640
 7965TIP3    H145310   2.597   3.065   4.347 -0.1623 -0.4681 -0.4364
 7965TIP3    H245311   2.458   3.060   4.405 -0.9371 -1.7699 -2.3039
 7966TIP3   OH245312   6.058   2.836   5.544 -0.2342  0.5307  0.8335
 7966TIP3    H145313   6.016   2.750   5.541  0.9390 -0.1004  1.6372
 7966TIP3    H245314   5.986   2.898   5.534 -0.9342 -0.5337 -1.2625
 7967TIP3   OH245315   4.150   3.488  12.811 -1.2559  0.5027  0.1361
 7967TIP3    H145316   4.122   3.467  12.722  1.8708 -1.8484 -0.4892
 7967TIP3    H245317   4.201   3.412  12.838  0.5372  2.4607  2.7257
 7968TIP3   OH245318   6.467   3.908   1.880 -0.1782  0.1049 -0.1235
 7968TIP3    H145319   6.531   3.932   1.814 -0.7820 -1.0484 -1.1639
 7968TIP3    H245320   6.453   3.815   1.868 -0.4262 -0.1163  1.5507
 7969TIP3   OH245321   5.131   4.081   4.530  0.8272 -0.0627  0.0280
 7969TIP3    H145322   5.126   4.151   4.465  1.2458 -0.6399 -0.6386
 7969TIP3    H245323   5.145   4.127   4.613 -1.3428  0.7994 -0.0001
 7970TIP3   OH245324   6.234   0.654  14.870  0.3235 -0.4661 -0.1316
 7970TIP3    H145325   6.262   0.687  14.956  0.2323 -0.3584 -0.1424
 7970TIP3    H245326   6.172   0.584  14.890  0.3295 -0.4644 -0.1079
 7971TIP3   OH245327   6.259   3.452   3.574 -0.3504  0.1010  0.0012
 7971TIP3    H145328   6.206   3.503   3.637  1.7857 -0.9565  2.8825
 7971TIP3    H245329   6.287   3.516   3.509 -1.9817  1.4681  0.5641
 7972TIP3   OH245330   6.098   5.819   5.410  0.1334  0.2445  0.0090
 7972TIP3    H145331   6.012   5.790   5.381 -0.7538  1.1348  1.5936
 7972TIP3    H245332   6.126   5.881   5.342 -0.1086 -0.6415 -0.9154
 7973TIP3   OH245333   3.169   1.409  14.717 -0.7285  0.1196 -0.2253
 7973TIP3    H145334   3.109   1.346  14.756  0.3358 -1.6896 -1.4160
 7973TIP3    H245335   3.140   1.417  14.626  1.0444 -1.1293 -0.9411
 7974TIP3   OH245336   0.723   2.916  15.774 -0.0503  0.6784 -0.2216
 7974TIP3    H145337   0.661   2.950  15.837  0.4248  1.5761 -0.2252
 7974TIP3    H245338   0.743   2.990  15.716  0.0794  0.0756 -0.9759
 7975TIP3   OH245339   4.339   3.658  16.110  0.1255 -0.1805 -0.1652
 7975TIP3    H145340   4.369   3.677  16.198 -0.9057 -0.6693  0.3019
 7975TIP3    H245341   4.417   3.671  16.055  0.9300 -0.4668  0.8763
 7976TIP3   OH245342   1.568   4.348  13.853  0.0856  0.0243  0.3629
 7976TIP3    H145343   1.638   4.374  13.912 -0.4618  1.3743  0.4471
 7976TIP3    H245344   1.488   4.378  13.895 -0.3163  1.1656 -1.1246
 7977TIP3   OH245345   2.641   5.849  17.067  0.2890 -0.2614  0.0773
 7977TIP3    H145346   2.646   5.773  17.009 -0.8580 -1.3885  1.3683
 7977TIP3    H245347   2.606   5.814  17.149  2.3694  1.1715  1.6715
 7978TIP3   OH245348   2.107   3.504  15.736  0.0541  0.0802 -0.0009
 7978TIP3    H145349   2.020   3.527  15.768  0.4153  2.0624 -0.3505
 7978TIP3    H245350   2.095   3.489  15.642 -0.1655 -1.2426  0.2116
 7979TIP3   OH245351   1.241   1.517  13.389 -0.1997  0.1351 -0.2560
 7979TIP3    H145352   1.184   1.536  13.464  1.0984 -0.4221  0.9097
 7979TIP3    H245353   1.208   1.435  13.353 -0.7981  0.3791 -0.2679
 7980TIP3   OH245354   4.931   0.500   6.025  0.1294 -0.4599 -0.0899
 7980TIP3    H145355   4.977   0.549   6.093 -0.1023 -0.6875  0.2375
 7980TIP3    H245356   4.892   0.566   5.970  1.8486 -0.2205 -1.0991
 7981TIP3   OH245357   4.589   6.408  13.885  0.3815  0.4317  0.3656
 7981TIP3    H145358   4.629   6.333  13.841  0.5903  1.7918 -1.9155
 7981TIP3    H245359   4.495   6.397  13.871  0.4972  1.4524 -1.6036
 7982TIP3   OH245360   1.153   1.636  17.113 -0.2416  0.1546  0.0858
 7982TIP3    H145361   1.206   1.607  17.187 -1.1538  0.9849  1.1008
 7982TIP3    H245362   1.184   1.724  17.094  1.6559 -0.8979 -2.1614
 7983TIP3   OH245363   3.426   2.060   0.787 -0.1302  0.2480  0.2959
 7983TIP3    H145364   3.488   2.134   0.788 -0.7679  0.7992 -0.0501
 7983TIP3    H245365   3.479   1.984   0.813  0.7567  0.6549 -0.2757
 7984TIP3   OH245366   6.275   6.610   5.991  0.1179  0.3563 -0.3320
 7984TIP3    H145367   6.220   6.577   5.920  0.6747 -0.8552 -0.2216
 7984TIP3    H245368   6.232   6.690   6.019 -0.5150  0.4672 -1.5473
 7985TIP3   OH245369   2.823   2.206   2.518 -0.5448 -0.1324  0.3414
 7985TIP3    H145370   2.814   2.173   2.428 -0.6949 -1.9826  0.9865
 7985TIP3    H245371   2.733   2.225   2.546 -0.5634 -0.1713  0.3088
 7986TIP3   OH245372   0.011   2.775  11.624 -0.2176  0.1402 -0.1098
 7986TIP3    H145373   0.045   2.845  11.569  1.1286  0.1360  0.6643
 7986TIP3    H245374  -0.046   2.819  11.687  0.0318  0.4522 -0.0995
 7987TIP3   OH245375   5.766   0.141   5.438 -0.0129 -0.3326  0.3123
 7987TIP3    H145376   5.786   0.224   5.483  1.2009  0.9461 -2.3724
 7987TIP3    H245377   5.718   0.167   5.360 -1.8644 -2.4633  0.6342
 7988TIP3   OH245378   5.442   4.760   4.441  0.0067  0.3207 -0.1932
 7988TIP3    H145379   5.516   4.719   4.486  0.5887  2.4619  0.9503
 7988TIP3    H245380   5.364   4.724   4.485  0.2607 -2.2149 -1.6365
 7989TIP3   OH245381   4.253   5.652  16.282 -0.0968  0.4159 -0.4410
 7989TIP3    H145382   4.168   5.621  16.313  0.0730  0.8699  0.5167
 7989TIP3    H245383   4.284   5.583  16.223 -1.2071  0.3398 -0.9622
 7990TIP3   OH245384   1.994   2.030  14.674 -0.2076 -0.7198 -0.8043
 7990TIP3    H145385   1.938   1.997  14.745  0.1376 -2.2159 -1.1740
 7990TIP3    H245386   2.013   1.952  14.622  2.4398 -0.3497 -0.5356
 7991TIP3   OH245387   2.273   0.985  12.197  0.3640  0.2255  0.1397
 7991TIP3    H145388   2.292   0.920  12.129 -0.1622 -0.2102  0.3942
 7991TIP3    H245389   2.203   0.945  12.248  1.1681  0.2717  1.3216
 7992TIP3   OH245390   4.108   3.955   2.060 -0.2770  0.2033 -0.2658
 7992TIP3    H145391   4.106   4.010   1.982  0.8957  0.1157 -0.3761
 7992TIP3    H245392   4.201   3.935   2.073 -0.4009  0.5500  1.3916
 7993TIP3   OH245393   6.746   2.866   5.280 -0.5983 -0.2210 -0.1518
 7993TIP3    H145394   6.724   2.868   5.187  0.1534  1.4676 -0.3310
 7993TIP3    H245395   6.663   2.848   5.324 -1.1496 -0.0731 -1.1003
 7994TIP3   OH245396   2.054   0.478   5.007 -0.0443  0.2574  0.1815
 7994TIP3    H145397   2.003   0.530   4.945 -0.5999 -0.6147 -0.1083
 7994TIP3    H245398   2.040   0.521   5.092 -0.5902  0.5050 -0.0319
 7995TIP3   OH245399   5.378   5.368  16.527 -0.6074  0.5783  0.0887
 7995TIP3    H145400   5.327   5.344  16.605 -1.8948 -1.4725 -1.2882
 7995TIP3    H245401   5.353   5.459  16.509 -0.5875  0.9553  1.8048
 7996TIP3   OH245402   5.668   4.496  11.222  0.4143  0.5638 -0.2504
 7996TIP3    H145403   5.762   4.484  11.233  0.1332  0.3171  2.4243
 7996TIP3    H245404   5.628   4.434  11.282 -1.5017  0.6817 -1.3166
 7997TIP3   OH245405   0.214   5.896   0.137 -0.1085  0.0023 -0.0668
 7997TIP3    H145406   0.301   5.932   0.156  0.2269 -0.3763 -0.8658
 7997TIP3    H245407   0.222   5.803   0.157 -0.3345 -0.0324 -0.1417
 7998TIP3   OH245408   0.960   2.470  13.103 -0.1181  0.0780  0.0017
 7998TIP3    H145409   1.033   2.410  13.118  0.1768 -0.0391 -1.7849
 7998TIP3    H245410   0.998   2.557  13.119  0.3555 -0.0003 -0.6373
 7999TIP3   OH245411   2.110   5.941  10.546 -0.3058 -0.2112  0.0535
 7999TIP3    H145412   2.016   5.952  10.529  0.1108  2.0285 -1.2381
 7999TIP3    H245413   2.114   5.883  10.622 -2.7054 -0.6274 -0.0385
 8000TIP3   OH245414   5.847   0.137   6.019 -0.9382  0.5334 -0.0517
 8000TIP3    H145415   5.779   0.132   6.087 -0.8753 -0.9905 -0.0874
 8000TIP3    H245416   5.852   0.049   5.983 -1.1955  1.3568 -2.2869
 8001TIP3   OH245417   0.100   3.922   3.963  0.2740 -0.0982  0.2488
 8001TIP3    H145418   0.185   3.964   3.953  0.4392 -0.0721  1.6311
 8001TIP3    H245419   0.041   3.992   3.990  0.4693 -0.6180  2.1833
 8002TIP3   OH245420   3.913   4.329  13.927 -0.3478  0.0036 -0.2353
 8002TIP3    H145421   3.996   4.289  13.900 -0.7702 -0.2778 -1.1839
 8002TIP3    H245422   3.853   4.309  13.855 -1.2822  0.0679  0.5128
 8003TIP3   OH245423   1.978   2.631  16.104 -0.3626  0.3043 -0.5701
 8003TIP3    H145424   2.034   2.691  16.054  0.2350  0.9510  0.8196
 8003TIP3    H245425   1.904   2.685  16.132  0.1241  0.4111  0.5946
 8004TIP3   OH245426   6.681   6.145  12.307  0.5111  0.4488 -0.0746
 8004TIP3    H145427   6.611   6.179  12.362  1.4580  2.6522 -0.1197
 8004TIP3    H245428   6.636   6.092  12.241 -0.9153  0.3221  0.9464
 8005TIP3   OH245429   5.315   1.331   2.917  0.4724  0.1473  0.2238
 8005TIP3    H145430   5.344   1.270   2.849  0.9895  0.6125  0.0100
 8005TIP3    H245431   5.221   1.340   2.903  0.8809  2.1222 -2.0596
 8006TIP3   OH245432   3.040   5.456   4.662 -0.3308 -0.5781 -0.1249
 8006TIP3    H145433   3.049   5.462   4.567  0.1304 -1.1563 -0.1230
 8006TIP3    H245434   2.964   5.510   4.682  1.8124  2.8305 -0.3985
 8007TIP3   OH245435   1.342   2.752  14.656 -0.3998 -0.1091 -1.1375
 8007TIP3    H145436   1.422   2.717  14.617  0.5336 -1.0278  1.3544
 8007TIP3    H245437   1.360   2.845  14.670  0.5999 -0.4530  0.0859
 8008TIP3   OH245438   0.079   5.708   0.453 -0.5896  0.2223 -0.3482
 8008TIP3    H145439   0.173   5.723   0.464 -0.3261 -1.0257 -0.7108
 8008TIP3    H245440   0.039   5.742   0.533  0.1085  1.1953 -0.3957
 8009TIP3   OH245441   2.455   1.639   1.920  0.6404  0.1591 -0.0417
 8009TIP3    H145442   2.491   1.584   1.850 -0.4724 -0.2668 -0.2990
 8009TIP3    H245443   2.466   1.728   1.888  0.8050  0.0028 -0.4333
 8010TIP3   OH245444   1.169   5.819  17.152 -0.5003  0.0306  0.0065
 8010TIP3    H145445   1.213   5.904  17.144 -0.1502 -0.2898 -2.0697
 8010TIP3    H245446   1.239   5.754  17.143 -1.0717 -0.4713 -0.9854
 8011TIP3   OH245447   4.612   1.984  11.979  0.5711 -0.0689  0.2357
 8011TIP3    H145448   4.617   2.079  11.966 -1.9392 -0.0318 -1.0856
 8011TIP3    H245449   4.700   1.959  12.007  1.9470  2.3120 -1.6050
 8012TIP3   OH245450   3.086   5.007   3.139  0.4059 -0.2222 -0.7073
 8012TIP3    H145451   3.139   4.937   3.101  0.1404 -1.6422  1.3293
 8012TIP3    H245452   3.148   5.077   3.157  1.2453 -1.0579 -0.2184
 8013TIP3   OH245453   4.052   1.775   5.107 -0.1879 -0.1506  0.3209
 8013TIP3    H145454   3.993   1.803   5.177  0.5454 -0.8657  1.2486
 8013TIP3    H245455   4.027   1.684   5.089 -0.2620 -0.0250 -0.2318
 8014TIP3   OH245456   2.072   1.100  15.948  0.7235  0.0159  0.1846
 8014TIP3    H145457   2.071   1.040  16.023  3.9176  0.2518  0.5783
 8014TIP3    H245458   2.048   1.185  15.985 -0.8429 -0.4084  0.2270
 8015TIP3   OH245459   5.361   3.858  11.666  0.0164 -0.1578  0.2020
 8015TIP3    H145460   5.373   3.829  11.756 -2.9634 -0.6564  0.5479
 8015TIP3    H245461   5.274   3.826  11.642 -0.4306  2.3200 -1.9273
 8016TIP3   OH245462   2.942   3.070   3.946 -0.0530 -0.8618  0.6269
 8016TIP3    H145463   2.878   3.040   3.881  0.3978  1.7112 -1.1623
 8016TIP3    H245464   3.023   3.026   3.923 -0.0339 -0.3905 -0.2346
 8017TIP3   OH245465   1.254   4.298   3.438  0.6738  0.1472  0.3931
 8017TIP3    H145466   1.219   4.298   3.348 -1.7175 -0.1051  1.2496
 8017TIP3    H245467   1.274   4.206   3.456  0.9886  0.1740  0.1872
 8018TIP3   OH245468   3.891   2.544  13.954 -0.9141 -0.3189 -0.1694
 8018TIP3    H145469   3.966   2.529  13.896  0.6766  0.7828  1.5161
 8018TIP3    H245470   3.887   2.465  14.008 -0.8095 -0.2570 -0.0730
 8019TIP3   OH245471   3.394   6.142  13.280  0.4304  0.1616 -0.2982
 8019TIP3    H145472   3.479   6.132  13.236  0.3982  0.5835 -0.4674
 8019TIP3    H245473   3.342   6.194  13.219 -0.9031 -2.3830 -1.4501
 8020TIP3   OH245474   2.932   2.539  12.652 -0.3777  0.6181  0.4988
 8020TIP3    H145475   3.008   2.594  12.631  0.0600  0.2167  0.9961
 8020TIP3    H245476   2.888   2.525  12.569  0.5637  0.1657  0.0686
 8021TIP3   OH245477   0.655   3.042   0.850 -0.2346  0.2557 -0.1237
 8021TIP3    H145478   0.591   3.061   0.781 -1.3769  1.8300  1.2848
 8021TIP3    H245479   0.738   3.035   0.804 -1.0091  0.8580 -1.7048
 8022TIP3   OH245480   1.222   4.668  16.226  0.0293 -0.4844  0.6481
 8022TIP3    H145481   1.155   4.691  16.163  0.2577 -0.4961  0.4010
 8022TIP3    H245482   1.288   4.621  16.176  0.3226 -0.2917  0.8466
 8023TIP3   OH245483   4.326   2.810   6.475  0.0540 -0.7983  0.5219
 8023TIP3    H145484   4.258   2.877   6.465  0.8973  0.0534  0.3184
 8023TIP3    H245485   4.300   2.761   6.553  0.5510  1.1587  2.0096
 8024TIP3   OH245486   1.013   6.083   2.140 -0.4872 -0.3295  0.2585
 8024TIP3    H145487   1.074   6.143   2.098 -0.4869 -0.2661  0.3494
 8024TIP3    H245488   0.994   6.123   2.225 -0.0909 -0.7133  0.5340
 8025TIP3   OH245489   5.089   5.163  16.326 -0.3396  0.2302  0.7503
 8025TIP3    H145490   5.136   5.091  16.285  1.5447  1.3048  0.9096
 8025TIP3    H245491   5.068   5.222  16.253 -0.3331  0.3386  0.8346
 8026TIP3   OH245492   4.392   2.295  16.860 -0.4497  0.5367  0.5297
 8026TIP3    H145493   4.420   2.236  16.930 -0.5778 -0.3510 -0.1531
 8026TIP3    H245494   4.297   2.304  16.874 -0.2924  1.2983  1.1619
 8027TIP3   OH245495   1.487   3.462  13.590 -0.9374  0.5115 -0.5790
 8027TIP3    H145496   1.471   3.380  13.637  0.5427 -0.2797 -1.3658
 8027TIP3    H245497   1.514   3.524  13.658 -2.2647  0.4343  0.0545
 8028TIP3   OH245498   2.886   6.630   6.345  0.0797 -0.4825  0.1834
 8028TIP3    H145499   2.906   6.665   6.258  1.3254 -4.1279 -1.1985
 8028TIP3    H245500   2.971   6.630   6.390 -0.2949  0.0518  0.9184
 8029TIP3   OH245501   0.781   6.493   4.722 -0.1314  0.7009  0.4709
 8029TIP3    H145502   0.831   6.476   4.801 -0.4415 -0.6565  0.4119
 8029TIP3    H245503   0.730   6.413   4.709 -0.5739  1.1573 -0.7334
 8030TIP3   OH245504   3.358   2.875  13.949 -0.4033 -0.3088 -0.0248
 8030TIP3    H145505   3.425   2.900  14.013  0.8836 -2.0184 -0.6307
 8030TIP3    H245506   3.337   2.956  13.903  1.8072  0.1716 -0.2971
 8031TIP3   OH245507   3.542   0.028   4.614  0.8233  0.7063  0.0783
 8031TIP3    H145508   3.586   0.024   4.529  0.6603  0.2806  0.0087
 8031TIP3    H245509   3.608  -0.003   4.676  0.3413 -0.8866 -0.1494
 8032TIP3   OH245510   3.584   4.050  14.791 -0.2594  0.1083 -0.2026
 8032TIP3    H145511   3.597   4.133  14.837 -0.2506 -1.2486  2.4492
 8032TIP3    H245512   3.672   4.024  14.764  0.1133 -0.1805  1.1932
 8033TIP3   OH245513   2.605   4.469  13.380  0.4229 -0.1425  0.7729
 8033TIP3    H145514   2.689   4.491  13.422  1.6975 -2.3716 -0.3777
 8033TIP3    H245515   2.605   4.373  13.379 -2.2291 -0.1984  0.8003
 8034TIP3   OH245516   3.543   4.550   4.514  0.5906  0.2898  0.8357
 8034TIP3    H145517   3.555   4.492   4.590  0.2673 -2.6382 -1.1493
 8034TIP3    H245518   3.460   4.594   4.530 -0.5267 -1.8363  1.3520
 8035TIP3   OH245519   2.634   6.274   4.765  0.0132 -0.3729  0.2928
 8035TIP3    H145520   2.567   6.339   4.787 -0.1747 -0.7306  0.7733
 8035TIP3    H245521   2.698   6.280   4.836 -0.3553 -1.1950  0.6976
 8036TIP3   OH245522   4.904   3.234   5.674 -0.2273  0.5917  0.5119
 8036TIP3    H145523   4.857   3.155   5.702  1.6359 -0.3787  1.0862
 8036TIP3    H245524   4.996   3.215   5.693  0.2490  3.0924  1.1008
 8037TIP3   OH245525   4.807   6.275  14.952 -0.5182  0.0494 -0.1457
 8037TIP3    H145526   4.727   6.314  14.988  0.8367  0.9027  2.1953
 8037TIP3    H245527   4.818   6.194  15.001 -0.5997 -0.7362 -1.3841
 8038TIP3   OH245528   1.381   3.031   2.006 -0.1726 -0.2064  0.1427
 8038TIP3    H145529   1.474   3.031   1.982 -0.0094 -1.8531  0.6649
 8038TIP3    H245530   1.335   3.024   1.922  0.1530  0.6887 -0.1247
 8039TIP3   OH245531   1.136   6.156  15.783  0.1760 -0.1207 -0.2659
 8039TIP3    H145532   1.071   6.188  15.845  0.2590  2.4481 -1.3785
 8039TIP3    H245533   1.087   6.141  15.702  0.6651  0.1680 -0.6236
 8040TIP3   OH245534   3.628   0.532   2.867 -1.0173 -0.4102  0.0334
 8040TIP3    H145535   3.687   0.484   2.925  1.8928  1.8627 -0.7959
 8040TIP3    H245536   3.644   0.495   2.780 -0.3649  0.5442 -0.2732
 8041TIP3   OH245537   6.207   2.380  16.540 -0.2898 -0.0091  0.2994
 8041TIP3    H145538   6.257   2.322  16.598  0.2353  0.4627  0.3187
 8041TIP3    H245539   6.165   2.320  16.478  1.7744 -0.3072 -0.8899
 8042TIP3   OH245540   3.368   1.516   3.277  0.1234  0.3270 -0.4324
 8042TIP3    H145541   3.348   1.591   3.221 -0.2816  0.3611 -0.2480
 8042TIP3    H245542   3.290   1.460   3.270  0.1081  0.2916  0.0277
 8043TIP3   OH245543   0.780   2.734   2.299 -0.3603 -0.5126  0.4073
 8043TIP3    H145544   0.758   2.814   2.250  0.2466 -1.6888 -1.9412
 8043TIP3    H245545   0.695   2.694   2.317 -0.5933 -0.3847 -0.3327
 8044TIP3   OH245546   6.701   5.391   2.968  0.3835 -0.2370 -0.0880
 8044TIP3    H145547   6.734   5.432   2.887 -1.4068 -0.0681 -0.7761
 8044TIP3    H245548   6.645   5.458   3.007 -0.7449 -1.1889 -0.0239
 8045TIP3   OH245549   4.425   4.932  14.460  0.2389  0.0845  0.3869
 8045TIP3    H145550   4.414   4.838  14.466  0.2321  0.1686  2.1934
 8045TIP3    H245551   4.513   4.944  14.424 -0.5406 -0.5602 -1.9309
 8046TIP3   OH245552   1.330   1.808  14.592 -0.3226  0.2431 -0.1126
 8046TIP3    H145553   1.250   1.769  14.556 -0.2055  0.0284 -0.1464
 8046TIP3    H245554   1.392   1.807  14.519 -0.5486  1.1921 -0.3304
 8047TIP3   OH245555   3.422   2.842  14.764 -0.3117 -0.6503 -0.0553
 8047TIP3    H145556   3.329   2.845  14.741 -0.0345  0.3328 -1.1405
 8047TIP3    H245557   3.462   2.907  14.707  0.6824  0.7163  2.0971
 8048TIP3   OH245558   0.174   3.274  13.098 -0.1717  0.2618  0.0406
 8048TIP3    H145559   0.171   3.319  13.183  2.9652  0.6874  0.0486
 8048TIP3    H245560   0.166   3.344  13.033 -0.9453  0.1212 -0.0268
 8049TIP3   OH245561   0.242   2.368  16.457 -0.0604 -0.2663  0.4013
 8049TIP3    H145562   0.229   2.319  16.376 -1.3151  1.1708 -0.3059
 8049TIP3    H245563   0.221   2.458  16.435 -0.3589  0.1805  2.3151
 8050TIP3   OH245564   1.706   1.695   1.518 -0.2804  0.5233  0.1722
 8050TIP3    H145565   1.797   1.723   1.510 -1.0655  2.6905 -2.9350
 8050TIP3    H245566   1.664   1.762   1.572 -1.0781  2.8821 -3.0818
 8051TIP3   OH245567   4.601   4.826  11.461 -0.4136 -0.2100 -0.6659
 8051TIP3    H145568   4.589   4.905  11.408  2.7711 -0.0590 -1.3537
 8051TIP3    H245569   4.606   4.858  11.551  0.4156  0.3604 -0.9019
 8052TIP3   OH245570   5.737   6.166  13.060  0.6286  0.8000  0.0429
 8052TIP3    H145571   5.743   6.098  13.127  1.0085  0.7778 -0.0123
 8052TIP3    H245572   5.703   6.242  13.107  0.6482  0.7085  0.2067
 8053TIP3   OH245573   3.661   5.143   1.500  0.0481 -0.1462 -0.0513
 8053TIP3    H145574   3.683   5.103   1.416  0.3893  0.5179 -0.2815
 8053TIP3    H245575   3.616   5.224   1.477 -1.1989 -0.6741  0.4091
 8054TIP3   OH245576   3.692   0.425   1.642  0.0513 -0.0112  0.3196
 8054TIP3    H145577   3.694   0.339   1.684  0.9342 -0.1348  0.0400
 8054TIP3    H245578   3.628   0.475   1.694  0.5100 -0.4186  1.3069
 8055TIP3   OH245579   5.415   2.515   0.974  0.1103  0.1791  0.6788
 8055TIP3    H145580   5.509   2.501   0.984 -0.1692 -1.0390  2.0199
 8055TIP3    H245581   5.393   2.581   1.040 -0.3579 -1.5338  2.3400
 8056TIP3   OH245582   2.628   3.101  15.860  0.4831 -0.0501 -0.0179
 8056TIP3    H145583   2.583   3.017  15.869 -0.8250  0.5485 -0.6974
 8056TIP3    H245584   2.617   3.124  15.767  1.3280  0.5964  0.0310
 8057TIP3   OH245585   2.689   0.384   2.683 -0.0043 -0.0041 -0.0082
 8057TIP3    H145586   2.637   0.388   2.603  0.3195 -1.3682 -0.3105
 8057TIP3    H245587   2.637   0.332   2.743  0.6567 -0.7302 -0.0499
 8058TIP3   OH245588   0.230   5.893  12.366  1.2893 -0.8300  0.4834
 8058TIP3    H145589   0.325   5.890  12.358  1.3213 -0.4120  0.6797
 8058TIP3    H245590   0.212   5.856  12.453  1.2374 -1.3504  0.2553
 8059TIP3   OH245591   3.875   3.626  12.429 -0.3854  0.3385  0.3608
 8059TIP3    H145592   3.907   3.634  12.519 -2.7088 -1.1297  1.4112
 8059TIP3    H245593   3.824   3.706  12.415 -0.2985  0.4131  0.4665
 8060TIP3   OH245594   2.438   0.619   5.328 -0.7457  0.8917  0.5722
 8060TIP3    H145595   2.419   0.669   5.249  1.2603 -1.5429 -1.6374
 8060TIP3    H245596   2.423   0.528   5.304 -1.4698  0.1177  3.5215
 8061TIP3   OH245597   3.567   0.526   6.026  0.0246 -0.3083  0.0265
 8061TIP3    H145598   3.535   0.588   5.960  1.1683 -0.0249 -0.2805
 8061TIP3    H245599   3.491   0.470   6.044 -1.2708  1.6072  0.8631
 8062TIP3   OH245600   0.496   2.995  17.083  0.1612  0.2650 -0.0999
 8062TIP3    H145601   0.505   2.901  17.067 -1.4945 -0.0759  0.7143
 8062TIP3    H245602   0.489   3.002  17.178  0.1861  1.2147 -0.1658
 8063TIP3   OH245603   3.385   5.721   3.408 -0.1551  0.5445 -0.5826
 8063TIP3    H145604   3.400   5.628   3.428  0.6159  0.5554 -1.0421
 8063TIP3    H245605   3.406   5.728   3.315  3.2606  1.8357  0.1450
 8064TIP3   OH245606   2.335   6.285  15.341 -0.1849  0.1401  0.1715
 8064TIP3    H145607   2.358   6.237  15.420  1.2988  0.7589  0.1433
 8064TIP3    H245608   2.386   6.366  15.346 -0.1176  0.2192 -1.3703
 8065TIP3   OH245609   1.920   2.926  16.996  0.3649 -0.8698 -0.6299
 8065TIP3    H145610   1.999   2.967  17.030 -0.9928 -0.0468  1.7657
 8065TIP3    H245611   1.875   2.997  16.949 -1.5704  0.4385  2.8015
 8066TIP3   OH245612   6.721   4.742  14.861  0.4231  0.0678 -0.0997
 8066TIP3    H145613   6.675   4.796  14.797  0.6375  0.0945 -0.2330
 8066TIP3    H245614   6.662   4.669  14.879 -0.0183  0.5335  0.3492
 8067TIP3   OH245615   5.837   3.364  12.838  0.4426  0.0591 -0.3025
 8067TIP3    H145616   5.836   3.283  12.889 -3.7640 -1.1055 -1.7781
 8067TIP3    H245617   5.780   3.424  12.888  0.8574  0.9422 -0.8633
 8068TIP3   OH245618   1.092   0.225  16.580 -0.1170  0.3163  0.1879
 8068TIP3    H145619   1.119   0.137  16.553 -1.0772 -0.1416  0.6564
 8068TIP3    H245620   1.173   0.266  16.612  0.2098 -0.6721  0.6759
 8069TIP3   OH245621   6.596   6.138   3.260  0.0565  0.4519  0.1883
 8069TIP3    H145622   6.511   6.141   3.216  0.0268  0.6988  0.2596
 8069TIP3    H245623   6.654   6.187   3.203  0.1739  0.2057  0.0939
 8070TIP3   OH245624   2.337   3.129   4.991 -0.2603 -0.1495 -0.3634
 8070TIP3    H145625   2.404   3.062   5.006  0.1528  0.2109 -0.5734
 8070TIP3    H245626   2.264   3.103   5.047 -0.0199 -0.6544 -0.2782
 8071TIP3   OH245627   5.207   4.583  15.672 -0.4421  0.6078 -0.6094
 8071TIP3    H145628   5.195   4.674  15.643  1.8392  1.5873  1.1823
 8071TIP3    H245629   5.272   4.547  15.612 -1.2145  0.1789 -1.2088
 8072TIP3   OH245630   2.929   6.066   2.035  0.8005 -0.1997 -0.2307
 8072TIP3    H145631   2.929   6.127   1.962 -1.3167 -0.2459 -0.3320
 8072TIP3    H245632   2.908   5.981   1.995  1.4172 -0.5619  0.2011
 8073TIP3   OH245633   6.419   1.550  12.326  0.5346  0.3995 -0.2619
 8073TIP3    H145634   6.457   1.638  12.331  0.0130  0.7684 -2.1495
 8073TIP3    H245635   6.415   1.521  12.417  3.8198  0.9728  0.1787
 8074TIP3   OH245636   1.856   6.367  13.175  0.0046 -0.7667 -0.5853
 8074TIP3    H145637   1.926   6.366  13.240 -2.2499  0.9352  2.1024
 8074TIP3    H245638   1.836   6.275  13.160  1.4216 -1.2278  0.1472
 8075TIP3   OH245639   1.028   5.926  13.779 -0.2738 -0.2617  0.7298
 8075TIP3    H145640   1.083   5.976  13.718 -0.7899 -1.3397 -0.6799
 8075TIP3    H245641   1.087   5.862  13.818 -0.3511 -1.0307 -0.3458
 8076TIP3   OH245642   5.921   5.901  16.529  0.5620  0.0677  0.2791
 8076TIP3    H145643   5.896   5.976  16.584  0.5336  0.0463  0.2961
 8076TIP3    H245644   5.876   5.826  16.570  0.8614 -0.0130  0.4600
 8077TIP3   OH245645   3.943   3.367   4.378  0.1228 -0.3554  0.8046
 8077TIP3    H145646   3.892   3.419   4.316 -0.3450 -0.2179  1.3085
 8077TIP3    H245647   3.928   3.408   4.463  0.0041 -1.1180  1.1610
 8078TIP3   OH245648   5.419   5.110  12.977  0.0032 -0.0828  0.4021
 8078TIP3    H145649   5.502   5.153  12.956 -1.5181  3.1755  0.4211
 8078TIP3    H245650   5.380   5.090  12.892 -0.1944  0.5690  0.3328
 8079TIP3   OH245651   6.141   0.960   2.686  0.4910 -0.2669  1.0503
 8079TIP3    H145652   6.229   0.985   2.714  0.2558  0.2851  1.2962
 8079TIP3    H245653   6.156   0.899   2.613  1.0686  0.1095  0.8464
 8080TIP3   OH245654   2.276   2.683  16.537  0.1217 -0.2289 -0.2215
 8080TIP3    H145655   2.235   2.600  16.562 -0.3289  0.2656  0.7390
 8080TIP3    H245656   2.258   2.692  16.443 -0.0359 -1.0890 -0.2804
 8081TIP3   OH245657   1.388   4.963  15.324  0.1748  0.4659  0.2636
 8081TIP3    H145658   1.429   4.894  15.272  0.6486  0.8565  0.1140
 8081TIP3    H245659   1.355   4.919  15.402  0.3345  0.0455  0.0933
 8082TIP3   OH245660   1.114   6.472   3.199  0.0917 -0.0314  0.2156
 8082TIP3    H145661   1.209   6.461   3.192  0.0417  0.2849 -1.1512
 8082TIP3    H245662   1.102   6.522   3.280  1.1910  1.0387 -0.2506
 8083TIP3   OH245663   1.671   6.566   1.640 -0.4631  0.2411  0.1960
 8083TIP3    H145664   1.697   6.650   1.677 -0.2169  0.6198 -0.7965
 8083TIP3    H245665   1.728   6.502   1.684 -0.3682  0.6412  0.6629
 8084TIP3   OH245666   0.785   1.047  17.203 -0.2165  0.2014  0.9759
 8084TIP3    H145667   0.790   1.042  17.299  0.4294  1.5888  1.0361
 8084TIP3    H245668   0.813   1.136  17.182  0.8738 -0.4716 -0.6032
 8085TIP3   OH245669   6.293   0.545   6.298 -0.7594  0.2633  0.1173
 8085TIP3    H145670   6.351   0.616   6.270  0.9482 -1.9922 -2.6701
 8085TIP3    H245671   6.206   0.586   6.304  0.1986  2.6586 -1.0448
 8086TIP3   OH245672   6.595   0.888  13.183  0.5741  0.4267  0.4975
 8086TIP3    H145673   6.515   0.869  13.134  0.1838 -0.5662  1.4728
 8086TIP3    H245674   6.565   0.900  13.273  1.6917 -1.8430  1.2428
 8087TIP3   OH245675   0.303   4.280  11.988 -0.2521 -0.2105  0.1927
 8087TIP3    H145676   0.340   4.240  11.910 -1.4753  0.2387 -0.6369
 8087TIP3    H245677   0.210   4.256  11.987 -0.2443 -0.4148  1.6479
 8088TIP3   OH245678   5.158   0.616   0.018 -0.0244  0.4991 -0.2895
 8088TIP3    H145679   5.137   0.637  -0.073  2.5197  3.0658 -0.4317
 8088TIP3    H245680   5.198   0.529   0.014 -1.5816 -0.2270 -1.2885
 8089TIP3   OH245681   3.067   0.874   2.871  0.1738  0.0105 -0.0165
 8089TIP3    H145682   3.077   0.801   2.811  2.1324 -0.1228  0.4250
 8089TIP3    H245683   3.133   0.937   2.844 -0.5566  1.0277  0.4928
 8090TIP3   OH245684   3.431   4.271  17.082  0.2062 -0.2564  0.4766
 8090TIP3    H145685   3.448   4.364  17.066 -0.6620 -0.3294 -1.0353
 8090TIP3    H245686   3.515   4.236  17.109  0.5982  0.9255  0.8656
 8091TIP3   OH245687   5.804   1.977  14.249  0.0203 -0.0782  0.3818
 8091TIP3    H145688   5.853   1.907  14.205  0.6774 -0.4336  1.6222
 8091TIP3    H245689   5.851   1.991  14.331  0.4890  2.5547 -0.2614
 8092TIP3   OH245690   4.807   4.231   5.977  0.6979 -0.8545 -0.2139
 8092TIP3    H145691   4.718   4.232   5.944 -0.2627 -1.3472  2.1250
 8092TIP3    H245692   4.838   4.142   5.960 -0.4707 -1.6997  1.7511
 8093TIP3   OH245693   6.650   3.233   1.265  0.2793 -0.0882  0.0888
 8093TIP3    H145694   6.604   3.282   1.197 -1.4433 -1.4542  0.1993
 8093TIP3    H245695   6.633   3.283   1.345 -0.7718 -0.4018  0.0762
 8094TIP3   OH245696   2.026   2.557  15.056 -0.2633 -0.3080 -0.2792
 8094TIP3    H145697   2.018   2.576  15.149 -0.8338  3.7742 -0.9848
 8094TIP3    H245698   2.115   2.523  15.046  0.5720  1.1707  1.5412
 8095TIP3   OH245699   1.914   6.611   1.045 -0.2921 -0.2734 -0.2896
 8095TIP3    H145700   1.998   6.583   1.007 -0.3232 -1.5965  0.5555
 8095TIP3    H245701   1.911   6.568   1.130 -0.5661  2.0404  0.9387
 8096TIP3   OH245702   4.069   1.088   0.725  0.0629  0.6437  0.8996
 8096TIP3    H145703   4.058   1.073   0.631 -0.7781 -0.2638  1.1299
 8096TIP3    H245704   3.981   1.101   0.759  0.3873  1.3147  1.5177
 8097TIP3   OH245705   2.493   5.478  13.256 -0.3352 -0.4220  0.3833
 8097TIP3    H145706   2.481   5.412  13.324 -1.7857  0.1638  0.7368
 8097TIP3    H245707   2.588   5.488  13.249 -0.1422 -0.7876  2.0415
 8098TIP3   OH245708   6.511   5.094  12.657  0.2373 -0.6156 -0.1887
 8098TIP3    H145709   6.452   5.164  12.630  0.9243 -0.0954 -0.3741
 8098TIP3    H245710   6.542   5.120  12.744 -0.1029 -1.0790  0.0737
 8099TIP3   OH245711   6.379   6.484   3.091  0.2742 -0.1261  0.4259
 8099TIP3    H145712   6.337   6.466   3.175 -1.0401  0.8062 -0.0006
 8099TIP3    H245713   6.396   6.398   3.054 -0.3863 -0.5356  1.0409
 8100TIP3   OH245714   5.274   3.111   3.512  0.0064  0.3984  0.0547
 8100TIP3    H145715   5.299   3.203   3.503 -0.1033  0.3398 -1.0032
 8100TIP3    H245716   5.357   3.064   3.521  0.1665  0.4550 -0.9803
 8101TIP3   OH245717   4.326   5.816  12.847 -0.3133 -0.1936  0.4633
 8101TIP3    H145718   4.255   5.816  12.782 -0.0876  1.5203  0.1849
 8101TIP3    H245719   4.299   5.749  12.910 -2.1309  0.3007  0.2921
 8102TIP3   OH245720   2.280   5.698   2.255  0.4551  0.4608 -0.7487
 8102TIP3    H145721   2.230   5.619   2.275  0.2026  0.7111 -0.3791
 8102TIP3    H245722   2.257   5.759   2.325 -0.6142  1.4485 -1.9348
 8103TIP3   OH245723   3.025   6.055  12.711 -0.3641  0.1475 -0.5957
 8103TIP3    H145724   3.112   6.074  12.676 -0.0023  0.2581  0.3277
 8103TIP3    H245725   3.031   5.964  12.740 -0.0805  0.5690  0.7710
 8104TIP3   OH245726   1.066   0.511  13.400  0.1752 -0.1049 -0.1798
 8104TIP3    H145727   1.000   0.570  13.363  2.7197  2.3852 -1.0859
 8104TIP3    H245728   1.056   0.430  13.349 -2.8857 -0.2998  0.5401
 8105TIP3   OH245729   4.135   2.457   1.877  0.1139 -0.6928  0.0214
 8105TIP3    H145730   4.186   2.383   1.845  0.6723 -0.5620  0.5903
 8105TIP3    H245731   4.156   2.461   1.971 -1.3760 -1.0020  0.3982
 8106TIP3   OH245732   5.081   2.469   6.227 -0.6827  0.2135  0.0676
 8106TIP3    H145733   5.013   2.535   6.210 -0.2282  0.5401 -0.5427
 8106TIP3    H245734   5.145   2.514   6.282 -0.6390  0.1089  0.1022
 8107TIP3   OH245735   2.983   1.306  16.509 -0.4208  0.0814  0.4596
 8107TIP3    H145736   2.957   1.398  16.509 -1.5582 -0.2198 -0.5808
 8107TIP3    H245737   2.900   1.258  16.511  0.1590 -0.9569  2.6334
 8108TIP3   OH245738   2.621   0.378  11.773 -0.4986  0.0465  0.0125
 8108TIP3    H145739   2.652   0.463  11.804 -1.0933  0.2205  0.1455
 8108TIP3    H245740   2.536   0.396  11.732 -0.9672 -0.5729  0.6727
 8109TIP3   OH245741   3.939   6.200   5.754  0.8507 -0.1290 -0.2222
 8109TIP3    H145742   3.850   6.227   5.778  1.4911  0.2633  1.9940
 8109TIP3    H245743   3.933   6.105   5.744  0.6268 -0.5128  2.6422
 8110TIP3   OH245744   2.073   5.282   4.085 -0.2205  0.1893 -0.2493
 8110TIP3    H145745   2.039   5.211   4.141 -0.1592  0.6776  0.4274
 8110TIP3    H245746   1.996   5.313   4.037  0.0735 -1.5575 -1.9858
 8111TIP3   OH245747   3.871   3.709   2.459  0.5381 -0.1775 -0.0811
 8111TIP3    H145748   3.859   3.619   2.489 -0.0513  0.4675  1.7695
 8111TIP3    H245749   3.788   3.731   2.418  0.8844 -0.6422 -1.0600
 8112TIP3   OH245750   4.424   1.517   0.961  0.5826 -0.0298  0.2084
 8112TIP3    H145751   4.424   1.423   0.941 -0.4103  0.1250 -0.6314
 8112TIP3    H245752   4.382   1.524   1.046  1.6488 -0.4193  0.7873
 8113TIP3   OH245753   6.332   3.076  14.632  0.2763  0.6329  0.0666
 8113TIP3    H145754   6.419   3.106  14.659  1.0207  0.1860 -1.6724
 8113TIP3    H245755   6.347   3.036  14.546 -1.6089  0.2529 -0.1136
 8114TIP3   OH245756   1.122   0.951  11.365  0.7776  0.5496  0.5083
 8114TIP3    H145757   1.028   0.949  11.382  0.8353  0.0046  0.7793
 8114TIP3    H245758   1.137   1.036  11.325 -0.1268 -0.0953 -1.2947
 8115TIP3   OH245759   4.223   6.201   2.328  0.0210 -0.1493 -0.2979
 8115TIP3    H145760   4.253   6.175   2.415  0.1971 -1.7236 -0.7936
 8115TIP3    H245761   4.291   6.168   2.269 -0.3089  0.5172 -1.0623
 8116TIP3   OH245762   4.082   5.309   4.122 -0.2156  0.4940 -0.0793
 8116TIP3    H145763   4.043   5.386   4.081 -0.8059  1.3454  1.9733
 8116TIP3    H245764   4.009   5.249   4.135  0.2877 -0.5914 -1.9242
 8117TIP3   OH245765   4.006   1.608  17.043  0.5938 -0.2347 -0.6283
 8117TIP3    H145766   3.913   1.592  17.025  0.1375 -0.7561  1.8363
 8117TIP3    H245767   4.046   1.615  16.957 -1.6246 -0.6603 -1.7646
 8118TIP3   OH245768   4.526   6.513   4.738  0.2553  0.0011  0.1727
 8118TIP3    H145769   4.448   6.566   4.723 -0.8644 -1.4507  0.7022
 8118TIP3    H245770   4.527   6.449   4.667  0.5241 -0.4723  0.5903
 8119TIP3   OH245771   4.705   4.109  14.128 -0.7603 -0.7433 -0.3369
 8119TIP3    H145772   4.673   4.034  14.079 -0.1322 -1.1459 -0.1391
 8119TIP3    H245773   4.775   4.074  14.183 -1.7141 -0.4011  1.1572
 8120TIP3   OH245774   2.645   4.483   5.337 -0.8094 -0.7956  0.2848
 8120TIP3    H145775   2.685   4.524   5.414  0.8785  0.0803 -1.0086
 8120TIP3    H245776   2.640   4.390   5.360  1.5745 -0.8685  0.7180
 8121TIP3   OH245777   1.369   0.868  16.351 -0.0950  0.1542 -0.2010
 8121TIP3    H145778   1.301   0.844  16.414 -0.5113  0.3691 -0.5593
 8121TIP3    H245779   1.430   0.795  16.353 -1.0209 -0.6783 -0.8256
 8122TIP3   OH245780   4.215   2.499  10.405  0.8378 -0.6147 -0.3704
 8122TIP3    H145781   4.188   2.408  10.391  0.7915 -0.5782 -0.5204
 8122TIP3    H245782   4.134   2.546  10.425  1.0172 -0.8426  0.9812
 8123TIP3   OH245783   6.542   4.468   4.333 -0.1937 -0.4753  0.1216
 8123TIP3    H145784   6.488   4.460   4.411  0.3809  2.3543  0.9234
 8123TIP3    H245785   6.623   4.421   4.354 -0.7366 -1.2414  0.5130
 8124TIP3   OH245786   5.513   2.103   5.380  0.4132 -0.0822  0.0141
 8124TIP3    H145787   5.586   2.066   5.429  0.0466 -0.8440 -0.0065
 8124TIP3    H245788   5.534   2.196   5.373  1.7131 -0.3950 -0.5603
 8125TIP3   OH245789   0.912   6.686  12.210  0.0804  0.2228  0.0712
 8125TIP3    H145790   0.944   6.635  12.136 -1.4158 -0.2118 -0.3106
 8125TIP3    H245791   0.880   6.621  12.272  1.6204  0.5692  1.2911
 8126TIP3   OH245792   6.096   0.920   1.474  0.2067  1.0330  0.2636
 8126TIP3    H145793   6.132   0.937   1.387 -0.4715  2.5835  0.2469
 8126TIP3    H245794   6.018   0.975   1.479  0.4538  1.2994  1.9998
 8127TIP3   OH245795   3.232   1.056  14.602 -0.2118 -0.2847 -1.0308
 8127TIP3    H145796   3.288   0.978  14.597 -1.8990 -1.5215 -1.4272
 8127TIP3    H245797   3.284   1.125  14.560  0.2295 -1.9034 -3.3451
 8128TIP3   OH245798   2.999   0.682  15.452 -0.0012 -0.3260 -0.1356
 8128TIP3    H145799   3.010   0.668  15.546 -1.1892 -3.7596 -0.3885
 8128TIP3    H245800   2.913   0.646  15.432  0.9936 -1.4408 -2.8196
 8129TIP3   OH245801   5.384   4.735  13.407  0.1905  0.0760  0.8594
 8129TIP3    H145802   5.419   4.785  13.481  0.1760  1.0692  0.2204
 8129TIP3    H245803   5.462   4.707  13.359  0.1821 -0.1280  0.9616
 8130TIP3   OH245804   1.753   5.171   0.474  0.3950  0.0557  0.4181
 8130TIP3    H145805   1.687   5.107   0.447  0.1121  1.2283 -1.9152
 8130TIP3    H245806   1.816   5.121   0.525 -1.0392 -1.5758  0.6819
 8131TIP3   OH245807   1.898   1.892   2.736  0.4995 -1.1219  0.2984
 8131TIP3    H145808   1.848   1.824   2.692  0.2826 -0.6981 -0.1256
 8131TIP3    H245809   1.867   1.974   2.697  3.4774 -0.9611 -2.1077
 8132TIP3   OH245810   4.829   4.489   3.864  0.3947  0.2329 -0.2267
 8132TIP3    H145811   4.908   4.536   3.838  1.1794 -0.9005  0.0627
 8132TIP3    H245812   4.801   4.443   3.785  0.3571  0.1629 -0.1733
 8133TIP3   OH245813   1.501   5.454   5.136 -0.3691  0.1991 -0.0882
 8133TIP3    H145814   1.486   5.548   5.149 -2.2249  0.0334 -0.6613
 8133TIP3    H245815   1.448   5.412   5.203  0.3730 -0.4582  0.1017
 8134TIP3   OH245816   5.850   4.146   2.899 -0.0427  0.6864 -0.4550
 8134TIP3    H145817   5.840   4.051   2.909 -2.3695  0.8273 -0.8690
 8134TIP3    H245818   5.830   4.181   2.986  2.1226  0.7947  0.0639
 8135TIP3   OH245819   4.217   1.990   3.059  0.1200  0.0456 -0.0307
 8135TIP3    H145820   4.153   1.923   3.081 -0.3039  0.5861  0.3972
 8135TIP3    H245821   4.235   2.035   3.141  0.3946  0.4632 -0.3129
 8136TIP3   OH245822   1.241   3.598  14.697 -0.6241  0.4131  0.4238
 8136TIP3    H145823   1.173   3.615  14.761  0.3155  0.1522  1.5348
 8136TIP3    H245824   1.308   3.549  14.746 -0.0565 -0.1328 -0.8563
 8137TIP3   OH245825   1.121   0.957  16.868 -0.4773 -0.0090 -0.2090
 8137TIP3    H145826   1.179   1.014  16.919  0.9901 -0.0987 -1.7032
 8137TIP3    H245827   1.051   0.933  16.929  0.9312  0.2918  1.5887
 8138TIP3   OH245828   0.289   5.627   0.947  0.1864 -0.3919  0.3329
 8138TIP3    H145829   0.318   5.552   0.999  0.6677 -0.2626  0.2575
 8138TIP3    H245830   0.242   5.683   1.009 -0.3249 -0.8360  0.3511
 8139TIP3   OH245831   1.906   4.103  16.469 -0.0223  0.1458  0.1811
 8139TIP3    H145832   1.938   4.024  16.426 -1.0529  0.2848 -0.9049
 8139TIP3    H245833   1.975   4.127  16.531  1.1524 -0.5422 -0.8097
 8140TIP3   OH245834   0.773   3.629   1.115 -0.0913 -0.2371  0.0512
 8140TIP3    H145835   0.756   3.669   1.201 -1.4820 -0.2169 -0.2077
 8140TIP3    H245836   0.731   3.544   1.119  0.0470 -0.3365 -0.5239
 8141TIP3   OH245837   0.371   0.467  12.283 -0.1517 -0.0723 -0.1852
 8141TIP3    H145838   0.406   0.498  12.199  0.1214 -0.9974 -0.4259
 8141TIP3    H245839   0.297   0.411  12.259  0.7063 -1.3573  0.1237
 8142TIP3   OH245840   6.665   0.174   6.335 -0.3321  0.3693  0.0584
 8142TIP3    H145841   6.704   0.154   6.250 -0.1655 -1.1390  0.4680
 8142TIP3    H245842   6.599   0.107   6.348 -0.2896  0.5171  1.1643
 8143TIP3   OH245843   3.587   2.554  16.463  0.5858 -0.2417  0.5874
 8143TIP3    H145844   3.671   2.599  16.459  0.0221  0.8463  0.6874
 8143TIP3    H245845   3.526   2.619  16.498 -0.3753 -0.9077  0.1984
 8144TIP3   OH245846   6.172   3.278   0.718 -0.3805 -0.3946 -0.1106
 8144TIP3    H145847   6.210   3.366   0.723  0.0914 -0.4963 -1.4664
 8144TIP3    H245848   6.244   3.223   0.687 -0.6061 -1.3229  0.9395
 8145TIP3   OH245849   3.181   3.864   4.226  0.1142  0.1093 -0.5162
 8145TIP3    H145850   3.173   3.813   4.145 -0.6019 -1.1711  0.3154
 8145TIP3    H245851   3.272   3.853   4.253  0.3208  0.4338 -1.0773
 8146TIP3   OH245852   2.210   0.330   1.470 -0.0445  0.0769 -0.5987
 8146TIP3    H145853   2.274   0.265   1.500 -0.4669  0.0547  0.3062
 8146TIP3    H245854   2.199   0.389   1.545 -0.5795  0.4702 -0.9782
 8147TIP3   OH245855   2.736   0.794   5.003  0.3539  1.0237 -0.1246
 8147TIP3    H145856   2.815   0.845   5.020  2.3440 -2.5775  2.7454
 8147TIP3    H245857   2.671   0.830   5.063  1.8439  0.1118  2.1514
 8148TIP3   OH245858   2.142   4.120  16.580  0.1430 -0.6004 -0.3944
 8148TIP3    H145859   2.179   4.054  16.522  0.8832 -0.7377  0.2202
 8148TIP3    H245860   2.125   4.074  16.662  0.0237 -0.1921 -0.1864
 8149TIP3   OH245861   0.732   1.496   2.259 -0.3094 -0.0952  0.2557
 8149TIP3    H145862   0.799   1.545   2.211 -1.6520  1.4793 -0.1433
 8149TIP3    H245863   0.780   1.435   2.314  1.3894  0.1830 -0.8529
 8150TIP3   OH245864   5.625   1.903  11.412  0.5730 -0.1685  0.3046
 8150TIP3    H145865   5.655   1.842  11.343 -0.2801 -1.2081  0.8224
 8150TIP3    H245866   5.592   1.978  11.364  0.5450 -0.6217 -0.4075
 8151TIP3   OH245867   2.169   0.312   6.324  0.0245 -0.7859  0.0509
 8151TIP3    H145868   2.227   0.242   6.296 -1.1296 -1.4651 -0.7576
 8151TIP3    H245869   2.116   0.274   6.393 -1.1106 -0.9871 -0.8925
 8152TIP3   OH245870   2.635   3.167   0.261 -0.0187  0.3134  0.1024
 8152TIP3    H145871   2.611   3.117   0.182 -1.1521 -0.1562  0.7210
 8152TIP3    H245872   2.714   3.214   0.236  0.6731 -1.2225 -0.7548
 8153TIP3   OH245873   3.678   4.641   3.424 -0.1106 -0.0168 -0.2287
 8153TIP3    H145874   3.713   4.559   3.389  1.8687  0.9332 -0.6405
 8153TIP3    H245875   3.755   4.688   3.456 -1.0523  2.1272 -0.9406
 8154TIP3   OH245876   0.547   2.107   5.787 -0.1358 -0.4661  0.1453
 8154TIP3    H145877   0.462   2.138   5.818  0.1105  0.5026 -0.1155
 8154TIP3    H245878   0.530   2.020   5.750 -0.9481 -0.3976  0.3535
 8155TIP3   OH245879   2.284   5.976   3.105 -0.2782  0.6170 -0.1713
 8155TIP3    H145880   2.292   5.914   3.033 -0.0986  0.1847  0.2095
 8155TIP3    H245881   2.320   6.058   3.071  0.9968  0.0784 -0.1686
 8156TIP3   OH245882   4.881   1.375   6.516  0.1104 -0.0035 -0.4341
 8156TIP3    H145883   4.976   1.373   6.506  0.1180 -0.1782 -0.3184
 8156TIP3    H245884   4.857   1.465   6.492  0.4900  0.5819  1.2391
 8157TIP3   OH245885   1.786   2.329   5.141 -0.4817  0.0363  0.5555
 8157TIP3    H145886   1.824   2.410   5.109 -0.0976 -0.3691 -0.0284
 8157TIP3    H245887   1.740   2.354   5.221 -0.0876  0.7651  0.5589
 8158TIP3   OH245888   5.509   3.822  12.420  0.2079 -0.2133  0.2060
 8158TIP3    H145889   5.512   3.816  12.325 -0.0425 -0.5418  0.2177
 8158TIP3    H245890   5.421   3.855  12.439  0.3795  0.1952  0.3071
 8159TIP3   OH245891   1.330   6.676   0.237  0.4690 -0.0084 -0.1702
 8159TIP3    H145892   1.392   6.748   0.226  1.7817 -0.9356  0.8396
 8159TIP3    H245893   1.356   6.634   0.319 -1.8854 -0.0964  0.6031
 8160TIP3   OH245894   5.008   5.340   2.634 -0.3306  0.5319 -0.1012
 8160TIP3    H145895   5.027   5.254   2.596  0.4649  1.0309 -0.8861
 8160TIP3    H245896   5.082   5.395   2.606 -1.5827  1.8601 -0.9221
 8161TIP3   OH245897   3.537   1.532   1.597  0.0885 -0.2853 -0.3708
 8161TIP3    H145898   3.498   1.591   1.534  1.3663  1.2416  0.1992
 8161TIP3    H245899   3.490   1.549   1.679  0.4973 -0.0061 -0.1912
 8162TIP3   OH245900   3.353   2.938  15.762  0.0637 -0.2577 -0.2318
 8162TIP3    H145901   3.401   2.875  15.816 -0.3637 -1.0067 -0.7047
 8162TIP3    H245902   3.268   2.898  15.748 -0.1213  0.3053 -0.7714
 8163TIP3   OH245903   3.946   3.021  16.212  0.7041 -0.6308  0.7803
 8163TIP3    H145904   3.983   3.010  16.124  0.4544 -1.5409  0.7800
 8163TIP3    H245905   3.913   2.934  16.235  0.9391 -0.4465  1.8568
 8164TIP3   OH245906   5.147   5.349  12.068  0.1814  0.1474  0.2462
 8164TIP3    H145907   5.106   5.394  11.994  2.7478 -1.3056 -2.3170
 8164TIP3    H245908   5.130   5.256  12.051  1.0126 -0.2252  1.3600
 8165TIP3   OH245909   5.371   2.819  12.036 -0.1735 -0.1709 -0.1060
 8165TIP3    H145910   5.414   2.753  12.090 -2.4313 -2.0565 -0.4407
 8165TIP3    H245911   5.280   2.820  12.067 -0.5168  1.8541 -1.0050
 8166TIP3   OH245912   3.738   2.233   4.507 -0.1141  0.0403  0.1455
 8166TIP3    H145913   3.672   2.284   4.554 -1.4056 -0.5879 -0.9042
 8166TIP3    H245914   3.808   2.296   4.488 -0.5115  0.7830  1.0879
 8167TIP3   OH245915   4.600   5.555   3.224  0.1414 -0.1223  0.5100
 8167TIP3    H145916   4.523   5.596   3.185  0.4067 -0.9023 -0.9252
 8167TIP3    H245917   4.584   5.558   3.318 -0.9648  1.0233  0.3069
 8168TIP3   OH245918   2.810   1.105   0.286 -0.1592 -0.3829 -0.3604
 8168TIP3    H145919   2.893   1.133   0.323 -0.5402  0.0642  0.1714
 8168TIP3    H245920   2.767   1.055   0.355  0.2521 -1.8258 -1.0976
 8169TIP3   OH245921   1.919   1.359  15.955  0.1456  0.3051  0.0047
 8169TIP3    H145922   1.868   1.377  16.034 -0.1064 -0.0124 -0.0821
 8169TIP3    H245923   1.855   1.364  15.884 -0.0818 -1.5204  0.0341
 8170TIP3   OH245924   2.439   0.833   4.395  0.0172 -0.3369 -0.3543
 8170TIP3    H145925   2.389   0.864   4.470  0.4768 -0.1575 -0.1160
 8170TIP3    H245926   2.373   0.806   4.331 -0.4292  1.6870 -0.8094
 8171TIP3   OH245927   2.120   5.618  16.741  0.5134 -0.5590  0.2300
 8171TIP3    H145928   2.212   5.642  16.750  0.2137  0.0832  1.8490
 8171TIP3    H245929   2.102   5.561  16.816 -0.1445 -1.6293 -0.6939
 8172TIP3   OH245930   0.457   5.015   3.130  0.1488  0.1036 -0.2422
 8172TIP3    H145931   0.516   4.955   3.175  1.7063  0.3009 -1.9106
 8172TIP3    H245932   0.374   4.968   3.124  0.7904 -1.1103  0.1599
 8173TIP3   OH245933   0.584   3.954   5.194  0.6278  0.0818  0.5835
 8173TIP3    H145934   0.554   3.877   5.242 -1.8938 -1.1952 -2.6994
 8173TIP3    H245935   0.669   3.928   5.157  0.6633 -0.3940  0.9870
 8174TIP3   OH245936   2.454   0.363  13.473 -0.4199  0.2264  0.1157
 8174TIP3    H145937   2.359   0.362  13.488 -0.6973  0.1088 -1.4642
 8174TIP3    H245938   2.464   0.338  13.381  1.1890 -0.3036  0.4040
 8175TIP3   OH245939   6.317   2.107  11.353  0.0862  0.0265  0.1948
 8175TIP3    H145940   6.408   2.125  11.329 -0.6024  1.2009 -1.7649
 8175TIP3    H245941   6.286   2.189  11.392 -0.3946 -0.0289 -0.0628
 8176TIP3   OH245942   0.017   2.719   0.722 -0.4459  0.1426  0.3939
 8176TIP3    H145943   0.023   2.778   0.798  1.4935  0.1630  0.2537
 8176TIP3    H245944  -0.076   2.723   0.698 -0.7172  1.7545  1.4791
 8177TIP3   OH245945   0.203   1.646  12.815 -0.2910  0.2896  0.5527
 8177TIP3    H145946   0.182   1.726  12.767  2.5486 -0.3321 -2.0383
 8177TIP3    H245947   0.186   1.576  12.752  1.8434 -0.7152  0.9986
 8178TIP3   OH245948   3.457   6.549   3.845  0.4640 -0.2137 -0.2468
 8178TIP3    H145949   3.514   6.494   3.898  0.5961 -0.3582 -0.5374
 8178TIP3    H245950   3.428   6.492   3.774  0.1175 -0.0829 -0.2122
 8179TIP3   OH245951   6.070   1.023   3.613 -0.2327 -0.0361  0.2193
 8179TIP3    H145952   6.001   1.089   3.605  0.0535  0.1380 -1.1712
 8179TIP3    H245953   6.147   1.066   3.575  0.0826 -0.9857 -0.2372
 8180TIP3   OH245954   1.418   2.160   6.466 -0.6084 -0.0948  0.3466
 8180TIP3    H145955   1.464   2.126   6.389 -0.9086  1.8416 -0.7294
 8180TIP3    H245956   1.325   2.161   6.441 -0.6523  1.0851  0.5043
 8181TIP3   OH245957   2.635   4.646   5.015  0.2297 -0.3452  0.1317
 8181TIP3    H145958   2.714   4.599   4.988  0.0101 -0.3850 -0.4598
 8181TIP3    H245959   2.604   4.689   4.935 -0.0690  0.0765  0.4707
 8182TIP3   OH245960   0.912   4.623   3.908  0.1383  0.4937  0.2148
 8182TIP3    H145961   0.828   4.665   3.892 -0.0603  0.3265  0.7977
 8182TIP3    H245962   0.946   4.666   3.986 -0.2110 -0.6113  1.0080
 8183TIP3   OH245963   2.476   5.373  12.992 -0.4037  0.0653 -0.2258
 8183TIP3    H145964   2.528   5.350  13.069  2.7425  1.5496 -1.7307
 8183TIP3    H245965   2.387   5.385  13.026  0.1167 -2.6370  2.5067
 8184TIP3   OH245966   1.689   4.767   4.963 -0.2240 -0.1556  0.0227
 8184TIP3    H145967   1.728   4.786   5.049 -0.8572 -1.2641  0.5801
 8184TIP3    H245968   1.744   4.698   4.926 -0.0601  0.1952 -0.3889
 8185TIP3   OH245969   0.498   1.798   2.142 -0.1267  0.0865  0.4090
 8185TIP3    H145970   0.523   1.859   2.073 -0.6014 -1.0413 -0.8079
 8185TIP3    H245971   0.440   1.848   2.199 -1.0139  0.6288 -0.9140
 8186TIP3   OH245972   0.478   1.129   0.249  0.7000 -0.3544 -0.4902
 8186TIP3    H145973   0.545   1.183   0.206  0.7015 -0.5560 -0.7464
 8186TIP3    H245974   0.502   1.039   0.227 -1.2678 -0.3882 -3.1085
 8187TIP3   OH245975   3.288   6.046   5.687  0.6239 -0.1396 -0.1246
 8187TIP3    H145976   3.346   6.108   5.643  1.7681 -1.4866 -0.6316
 8187TIP3    H245977   3.285   6.075   5.778  1.1011  0.6718 -0.3570
 8188TIP3   OH245978   0.450   2.816   5.913 -0.4728 -0.5096 -0.1934
 8188TIP3    H145979   0.460   2.828   6.008 -2.4290 -1.7553  0.2398
 8188TIP3    H245980   0.481   2.726   5.897  0.6622 -0.0094 -0.9127
 8189TIP3   OH245981   0.969   2.077  15.897 -0.1074  0.2020 -0.4878
 8189TIP3    H145982   0.879   2.051  15.875 -0.1813  1.4484 -1.8011
 8189TIP3    H245983   0.962   2.171  15.915  0.6943  0.0180  0.9512
 8190TIP3   OH245984   1.369   5.148   4.536 -0.3405  0.0054 -0.1854
 8190TIP3    H145985   1.310   5.146   4.461 -0.6073 -1.8884  0.0313
 8190TIP3    H245986   1.456   5.164   4.499 -0.4451 -1.0846 -0.9353
 8191TIP3   OH245987   1.519   2.807   2.876 -0.2968 -0.4359 -0.3536
 8191TIP3    H145988   1.575   2.744   2.920  1.6494  1.6723  0.3765
 8191TIP3    H245989   1.452   2.829   2.941  1.5106  1.3242  1.0127
 8192TIP3   OH245990   1.404   2.525   2.642 -0.2875  0.6659 -0.1178
 8192TIP3    H145991   1.375   2.617   2.643 -0.3057  0.7291  2.9269
 8192TIP3    H245992   1.324   2.475   2.627 -1.7035  0.9966  4.7262
 8193TIP3   OH245993   0.698   4.538  10.501 -0.6067 -0.1270 -0.3586
 8193TIP3    H145994   0.721   4.610  10.442  0.7450 -0.0189  0.2575
 8193TIP3    H245995   0.668   4.582  10.581  0.6633 -0.2173  0.1869
 8194TIP3   OH245996   1.602   0.043  14.759  0.0496 -0.2139  0.1727
 8194TIP3    H145997   1.532  -0.022  14.747  0.6828 -1.2685  1.7913
 8194TIP3    H245998   1.663   0.026  14.687 -1.0797  0.3849 -0.9604
 8195TIP3   OH245999   4.728   1.814   5.741  0.2994  0.4024 -0.3611
 8195TIP3    H146000   4.636   1.835   5.753  0.1008 -0.1232 -0.8654
 8195TIP3    H246001   4.773   1.898   5.744 -0.0654  0.5681  0.9539
 8196TIP3   OH246002   1.350   2.177   3.255  0.7974 -0.1780  0.0218
 8196TIP3    H146003   1.410   2.249   3.274 -0.5989  0.9999  0.1716
 8196TIP3    H246004   1.286   2.215   3.194 -0.4312 -1.0351  0.7227
 8197TIP3   OH246005   3.170   1.379   4.522  0.2086 -0.3695 -0.2554
 8197TIP3    H146006   3.195   1.362   4.431 -0.5188  0.5545 -0.6430
 8197TIP3    H246007   3.083   1.342   4.530 -0.0628  0.2771 -0.1779
 8198TIP3   OH246008   6.332   5.920  13.287  0.2044 -0.5279 -0.4763
 8198TIP3    H146009   6.280   5.840  13.280 -1.5733  0.6453 -1.6013
 8198TIP3    H246010   6.353   5.943  13.197 -0.7279  1.1153 -0.3209
 8199TIP3   OH246011   5.492   4.578   4.745  0.2466 -0.0390 -1.0520
 8199TIP3    H146012   5.440   4.516   4.797  0.7547 -1.8638 -2.5948
 8199TIP3    H246013   5.428   4.619   4.687 -0.2965  1.8936  0.7900
 8200TIP3   OH246014   1.660   2.672   0.171  0.1619  0.5554 -0.5542
 8200TIP3    H146015   1.656   2.703   0.262 -0.4165  0.5812 -0.5793
 8200TIP3    H246016   1.742   2.706   0.137  0.5813  0.2084  0.0805
 8201TIP3   OH246017   2.959   2.576  15.714 -0.3123  0.0597 -0.3932
 8201TIP3    H146018   2.879   2.530  15.736 -0.9011  1.3570  0.2850
 8201TIP3    H246019   2.965   2.570  15.618 -1.0824 -0.2668 -0.4248
 8202TIP3   OH246020   2.740   4.597   5.583  0.2324  0.3461 -0.3904
 8202TIP3    H146021   2.691   4.525   5.623 -1.8081  0.8958 -1.7736
 8202TIP3    H246022   2.773   4.648   5.657 -0.7086 -0.4205  0.5873
 8203TIP3   OH246023   2.216   5.133   0.302  0.6087 -0.4294  0.1686
 8203TIP3    H146024   2.254   5.085   0.229 -0.8229 -0.5468 -0.5319
 8203TIP3    H246025   2.191   5.064   0.364 -0.7162 -0.5568 -0.4831
 8204TIP3   OH246026   5.177   4.517   6.463 -0.2640  0.5178  0.1680
 8204TIP3    H146027   5.223   4.601   6.473  0.9330  0.0102 -0.9040
 8204TIP3    H246028   5.201   4.468   6.542 -1.2352  1.2736  0.9665
 8205TIP3   OH246029   2.616   3.615   1.250  0.6797 -0.8561 -0.0925
 8205TIP3    H146030   2.588   3.581   1.335 -1.7370 -1.0360 -0.8799
 8205TIP3    H246031   2.632   3.708   1.266 -2.1933 -0.2994  0.1425
 8206TIP3   OH246032   2.459   1.728  16.580 -0.0350 -0.5333  0.3121
 8206TIP3    H146033   2.445   1.744  16.487  1.1047  4.4400  0.7147
 8206TIP3    H246034   2.554   1.724  16.589 -0.0860  0.0373  1.3042
 8207TIP3   OH246035   3.080   2.166  11.270 -0.0105  0.2233  0.4311
 8207TIP3    H146036   3.131   2.240  11.303 -0.5214  0.8374 -0.1190
 8207TIP3    H246037   3.111   2.091  11.320  3.1439  0.0902 -1.4683
 8208TIP3   OH246038   6.403   0.844  10.310  0.1895 -0.2774 -0.5404
 8208TIP3    H146039   6.464   0.844  10.237  1.4460 -1.5223  0.4514
 8208TIP3    H246040   6.455   0.876  10.384 -0.4457 -0.9995  0.2395
 8209TIP3   OH246041   4.616   1.669   3.146  0.1314  0.4350 -0.1529
 8209TIP3    H146042   4.600   1.656   3.052  2.7774  0.2337 -0.6529
 8209TIP3    H246043   4.651   1.585   3.176  1.8428  1.3045  0.3813
 8210TIP3   OH246044   4.814   3.264  11.247  0.1871 -0.5286 -0.3106
 8210TIP3    H146045   4.769   3.264  11.162  0.1712 -0.6404 -0.3014
 8210TIP3    H246046   4.905   3.282  11.225  0.2454 -0.9104 -0.3826
 8211TIP3   OH246047   5.755   3.950   4.102  0.0682 -0.3607  0.0863
 8211TIP3    H146048   5.789   3.922   4.017 -0.6455 -1.8222  0.2516
 8211TIP3    H246049   5.664   3.976   4.085  0.3093  0.5598  0.1818
 8212TIP3   OH246050   6.037   0.350  12.595  0.3520  0.2059  0.1858
 8212TIP3    H146051   6.002   0.438  12.585  2.0081  0.8839  0.0561
 8212TIP3    H246052   6.027   0.310  12.508 -0.2551  0.3112  0.2042
 8213TIP3   OH246053   3.371   0.932   5.041  0.0348  0.1302  0.1417
 8213TIP3    H146054   3.380   0.840   5.013 -0.1470 -0.0929  0.7990
 8213TIP3    H246055   3.456   0.953   5.080 -0.2691 -0.1003  0.9521
 8214TIP3   OH246056   1.621   0.942  16.796  0.6022 -0.2644 -0.5551
 8214TIP3    H146057   1.607   0.851  16.822  1.0297 -0.5801 -1.3824
 8214TIP3    H246058   1.545   0.964  16.743  0.1610  0.0880  0.2235
 8215TIP3   OH246059   5.404   4.569   5.947  0.4765  0.4036  0.2242
 8215TIP3    H146060   5.324   4.570   6.000  0.7731  0.3314  0.6761
 8215TIP3    H246061   5.462   4.632   5.990  0.2757  1.2546 -0.7159
 8216TIP3   OH246062   0.846   4.221  11.109  0.0914  0.0251 -0.1673
 8216TIP3    H146063   0.795   4.150  11.070 -0.9682 -0.6683  2.2983
 8216TIP3    H246064   0.784   4.266  11.166  1.3602  1.4495  0.1344
 8217TIP3   OH246065   3.523   1.649  14.738  0.4826  0.5132  0.3120
 8217TIP3    H146066   3.490   1.563  14.712  0.7942  0.4456  0.1310
 8217TIP3    H246067   3.484   1.710  14.674 -1.5844  0.8439  1.7696
 8218TIP3   OH246068   0.830   2.818   0.570 -0.0754  0.0816 -0.1581
 8218TIP3    H146069   0.781   2.754   0.622 -1.1780  0.9782 -0.0483
 8218TIP3    H246070   0.892   2.856   0.632 -0.3693  0.0895  0.1362
 8219TIP3   OH246071   3.600   1.211  15.475 -0.1898 -0.2345 -0.2095
 8219TIP3    H146072   3.693   1.190  15.480  0.2360  1.8021  1.8059
 8219TIP3    H246073   3.559   1.157  15.543 -0.1415  0.3931  0.3245
 8220TIP3   OH246074   3.453   2.793   0.314 -0.4599 -0.8854  0.1312
 8220TIP3    H146075   3.441   2.738   0.237 -0.6061  1.1253 -1.3507
 8220TIP3    H246076   3.473   2.880   0.279 -0.5743  0.1030  2.3566
 8221TIP3   OH246077   3.534   4.049   4.389  0.5131 -1.2098  0.4709
 8221TIP3    H146078   3.566   4.085   4.307 -0.4842 -0.1708  0.5012
 8221TIP3    H246079   3.449   4.010   4.367 -1.7661  2.5168  1.5479
 8222TIP3   OH246080   6.651   1.784  12.892  0.3480 -0.4695 -0.0269
 8222TIP3    H146081   6.718   1.724  12.926  1.4463  0.8565  0.2211
 8222TIP3    H246082   6.699   1.865  12.874 -0.7680 -0.1930 -1.9939
 8223TIP3   OH246083   0.667   6.512  11.624 -0.0172  0.0385  0.5720
 8223TIP3    H146084   0.628   6.558  11.549 -0.4590  1.4005  1.6062
 8223TIP3    H246085   0.596   6.459  11.659 -0.3945  0.9390  1.2096
 8224TIP3   OH246086   5.681   0.227  16.014  0.3417  0.5444  0.2612
 8224TIP3    H146087   5.666   0.290  15.943  1.2115  0.0579 -0.3721
 8224TIP3    H246088   5.631   0.262  16.088 -0.5985  1.0555 -0.5897
 8225TIP3   OH246089   1.393   6.298   0.371  0.1624 -0.6628 -0.3368
 8225TIP3    H146090   1.484   6.323   0.389 -0.1190  0.4169 -0.3625
 8225TIP3    H246091   1.397   6.251   0.287  0.7975 -1.3452  0.0627
 8226TIP3   OH246092   2.512   4.108  16.870 -0.1713 -0.3247 -0.0551
 8226TIP3    H146093   2.606   4.110  16.850 -0.6730 -0.1424 -2.8155
 8226TIP3    H246094   2.493   4.015  16.882 -0.0349 -0.6438 -2.0001
 8227TIP3   OH246095   2.163   6.565   0.907 -0.0973  0.2060  0.0663
 8227TIP3    H146096   2.202   6.553   0.820 -1.6474  2.3835 -1.0315
 8227TIP3    H246097   2.172   6.659   0.924 -3.1013  0.4933  0.5629
 8228TIP3   OH246098   1.406   2.912  16.186  0.0970 -0.3657  0.0553
 8228TIP3    H146099   1.349   2.838  16.162 -0.4112  0.4749 -1.4970
 8228TIP3    H246100   1.472   2.914  16.116  0.4454  0.2945  0.3993
 8229TIP3   OH246101   5.425   4.561   3.538  0.2381  0.2871  0.0253
 8229TIP3    H146102   5.402   4.498   3.606  0.9227 -0.0932 -0.0837
 8229TIP3    H246103   5.389   4.645   3.569  0.3105  0.0678  0.7172
 8230TIP3   OH246104   4.971   5.012   1.537  0.3216  0.6129  0.5482
 8230TIP3    H146105   4.968   5.107   1.532 -1.3146  0.5708  0.2681
 8230TIP3    H246106   4.894   4.987   1.589  0.6355 -0.5702  0.4937
 8231TIP3   OH246107   1.224   4.558   4.120  0.0874 -0.3543  0.5090
 8231TIP3    H146108   1.183   4.473   4.107  0.4734 -0.4269 -0.3357
 8231TIP3    H246109   1.318   4.539   4.125  0.5737  0.2649 -3.2061
 8232TIP3   OH246110   5.937   1.462  14.043  0.1900 -0.5415  0.1489
 8232TIP3    H146111   5.941   1.374  14.079  0.9111  0.1746  1.9442
 8232TIP3    H246112   5.986   1.457  13.961  0.1610 -1.8150  0.1913
 8233TIP3   OH246113   5.320   2.785   0.149  0.1984  0.0855  0.1957
 8233TIP3    H146114   5.236   2.753   0.180  0.6050  0.8199  2.2350
 8233TIP3    H246115   5.302   2.874   0.116  0.3172  0.6618  1.6254
 8234TIP3   OH246116   2.512   2.176   5.374  0.2063  0.5292  0.0635
 8234TIP3    H146117   2.594   2.131   5.353  0.1481  1.0244 -1.2985
 8234TIP3    H246118   2.472   2.194   5.289 -0.0321  2.6774  0.5765
 8235TIP3   OH246119   1.413   6.275  11.623  0.0890 -0.3094  0.0016
 8235TIP3    H146120   1.321   6.295  11.608  0.0829  0.6153  1.0633
 8235TIP3    H246121   1.416   6.242  11.713  0.8533  0.2725  0.2086
 8236TIP3   OH246122   2.460   1.835   1.254 -0.0239 -0.5599  0.3557
 8236TIP3    H146123   2.439   1.806   1.343  0.8573 -0.5114  0.5962
 8236TIP3    H246124   2.525   1.771   1.224 -0.9328 -1.0672 -0.5762
 8237TIP3   OH246125   2.893   1.091   1.368 -0.1821  0.6335 -0.0997
 8237TIP3    H146126   2.964   1.050   1.319  0.2119  0.1238  0.8518
 8237TIP3    H246127   2.844   1.141   1.304  1.1081  1.0861 -0.7586
 8238TIP3   OH246128   4.949   6.037   3.337  0.1566  0.5653  0.8929
 8238TIP3    H146129   4.923   5.946   3.325  0.1324  0.8498 -1.8158
 8238TIP3    H246130   4.991   6.039   3.423  1.0483 -2.1977  0.6115
 8239TIP3   OH246131   2.815   5.639  12.233  0.4738  0.4220  0.3541
 8239TIP3    H146132   2.724   5.622  12.259  0.1213 -1.1432 -1.6239
 8239TIP3    H246133   2.863   5.562  12.265  0.6577  0.1529 -0.5415
 8240TIP3   OH246134   4.546   5.429   2.506 -0.1154  0.9817 -0.2923
 8240TIP3    H146135   4.550   5.389   2.592  0.5063  0.6993 -0.4464
 8240TIP3    H246136   4.459   5.469   2.502 -0.2777  0.7008  0.3277
 8241TIP3   OH246137   2.606   1.184   0.954  0.0184 -0.0942 -0.0023
 8241TIP3    H146138   2.622   1.089   0.956 -1.4248 -0.4162 -1.8721
 8241TIP3    H246139   2.604   1.207   0.861 -1.9189  1.3493  0.3355
 8242TIP3   OH246140   2.614   5.767   5.720  0.3686  0.3355  0.3283
 8242TIP3    H146141   2.635   5.860   5.725  0.9834  0.3948 -2.2360
 8242TIP3    H246142   2.698   5.723   5.722  0.1097 -0.1479  0.9025
 8243TIP3   OH246143   5.832   2.030  15.279  0.1468 -0.1690 -0.4091
 8243TIP3    H146144   5.851   1.978  15.200  1.0012 -0.2824 -0.1333
 8243TIP3    H246145   5.900   2.005  15.341  0.2782  0.9225 -0.1008
 8244TIP3   OH246146   5.068   6.563  17.027  0.0667 -0.2395  0.9092
 8244TIP3    H146147   4.995   6.602  16.980  0.6106  0.7977  0.9104
 8244TIP3    H246148   5.078   6.616  17.106  1.3874  0.2257  0.4702
 8245TIP3   OH246149   2.111   5.716  17.260 -0.0085 -0.2206  0.5671
 8245TIP3    H146150   2.070   5.782  17.205 -2.1093 -1.5806  0.3885
 8245TIP3    H246151   2.038   5.673  17.305  1.1826 -2.6789  0.3404
 8246TIP3   OH246152   3.419   5.128   0.914 -0.8216 -0.0697 -0.0653
 8246TIP3    H146153   3.333   5.160   0.942 -0.5577 -1.2932  2.3973
 8246TIP3    H246154   3.412   5.033   0.920  0.7568 -0.1803  0.3878
 8247TIP3   OH246155   5.762   4.039  14.089 -0.4187 -0.8241  0.2090
 8247TIP3    H146156   5.696   4.074  14.030 -0.2101  0.0588  0.4754
 8247TIP3    H246157   5.838   4.096  14.076  0.1232 -1.5228  0.2624
 8248TIP3   OH246158   0.544   0.798   2.316  0.2927  0.4316  0.5985
 8248TIP3    H146159   0.498   0.878   2.340  2.4231  2.3322 -1.2216
 8248TIP3    H246160   0.615   0.791   2.380 -0.1053 -0.2660  0.9841
 8249TIP3   OH246161   1.197   4.299  16.711 -0.6967  0.1565 -0.2692
 8249TIP3    H146162   1.113   4.321  16.750 -1.9012 -2.0566 -1.3837
 8249TIP3    H246163   1.194   4.338  16.624  0.0831  1.2829  0.1834
 8250TIP3   OH246164   0.506   1.999   4.819 -0.7873 -0.0620 -0.2826
 8250TIP3    H146165   0.517   2.093   4.806  0.2902 -0.3062 -1.2800
 8250TIP3    H246166   0.595   1.964   4.814 -1.2257 -1.1880 -0.3904
 8251TIP3   OH246167   3.868   6.110   6.169 -0.3057  0.1826  0.9000
 8251TIP3    H146168   3.940   6.051   6.146 -1.5507 -0.0654 -2.9195
 8251TIP3    H246169   3.791   6.054   6.172 -1.3540  1.3294 -1.8181
 8252TIP3   OH246170   1.657   3.862  12.273 -0.1861  0.5493  0.4001
 8252TIP3    H146171   1.751   3.846  12.285 -0.3410 -0.3655  0.4692
 8252TIP3    H246172   1.630   3.907  12.353 -0.1964 -0.9787  1.2864
 8253TIP3   OH246173   4.718   2.092  11.526 -0.7451  0.5448  0.4388
 8253TIP3    H146174   4.693   2.118  11.615  0.0680 -1.4474  1.3219
 8253TIP3    H246175   4.751   2.172  11.486 -0.1122  1.2887  2.3149
 8254TIP3   OH246176   6.756   4.390  13.014 -0.2528  0.2501 -0.3107
 8254TIP3    H146177   6.844   4.422  13.032  0.5981 -1.3757 -1.3463
 8254TIP3    H246178   6.717   4.457  12.959  0.9865  0.2044 -1.2977
 8255TIP3   OH246179   0.975   2.097  16.335  0.1390 -0.1186  0.6712
 8255TIP3    H146180   0.991   2.005  16.357  1.9872  0.4951  2.2264
 8255TIP3    H246181   1.046   2.144  16.380 -1.7642  2.2352  1.3986
 8256TIP3   OH246182   0.201   2.495   5.758  0.1673 -0.5302  0.1294
 8256TIP3    H146183   0.146   2.475   5.682  0.5055 -2.4070  0.3342
 8256TIP3    H246184   0.145   2.548   5.815  0.0552  1.2991 -1.5867
 8257TIP3   OH246185   5.455   2.927  10.970 -0.3848  0.1626  0.3391
 8257TIP3    H146186   5.513   2.967  11.035 -1.3146  1.5236  0.3784
 8257TIP3    H246187   5.428   2.844  11.010  1.9480 -0.8014  0.0559
 8258TIP3   OH246188   5.913   0.306   0.603  0.3104  0.1812  0.0584
 8258TIP3    H146189   5.910   0.308   0.507 -0.6026 -2.7164 -0.0534
 8258TIP3    H246190   5.858   0.380   0.630  0.8414  1.2452 -1.5907
 8259TIP3   OH246191   0.476   5.348   4.784  0.2775 -0.4841  0.3653
 8259TIP3    H146192   0.429   5.375   4.863 -0.4725 -1.2028  0.1814
 8259TIP3    H246193   0.426   5.387   4.712  0.8968  0.0805  0.2368
 8260TIP3   OH246194   4.478   6.721   3.876  0.2265  0.0871  0.4094
 8260TIP3    H146195   4.467   6.779   3.800  1.2834  0.2282  0.3456
 8260TIP3    H246196   4.572   6.702   3.878  0.2302  0.1743  1.7512
 8261TIP3   OH246197   5.498   2.140  11.245  0.0378 -0.4503 -0.0444
 8261TIP3    H146198   5.567   2.177  11.190  0.8027  0.6113  1.5307
 8261TIP3    H246199   5.416   2.173  11.207  0.5783  0.6556 -0.2835
 8262TIP3   OH246200   1.383   2.625   4.123 -0.3352 -0.5193 -0.3145
 8262TIP3    H146201   1.461   2.656   4.168 -0.2512  0.1851 -0.9363
 8262TIP3    H246202   1.415   2.592   4.039 -0.4628 -2.0122  0.1805
 8263TIP3   OH246203   6.156   0.435   4.318 -0.1209  0.1631 -0.3328
 8263TIP3    H146204   6.247   0.439   4.348 -0.3756 -0.4910  0.5812
 8263TIP3    H246205   6.147   0.348   4.278 -0.4296  0.0885 -0.1074
 8264TIP3   OH246206   2.465   3.392  17.154  0.2070  0.2959  0.0605
 8264TIP3    H146207   2.378   3.409  17.116 -0.3631 -1.1643  0.6605
 8264TIP3    H246208   2.470   3.297  17.161  2.0066  0.3402 -0.2497
 8265TIP3   OH246209   1.037   5.342  13.339 -0.1956 -0.0354  0.4287
 8265TIP3    H146210   1.114   5.301  13.379 -1.0023 -1.4327  0.6249
 8265TIP3    H246211   0.981   5.365  13.414 -0.2096  0.4883  0.2606
 8266TIP3   OH246212   5.946   3.480   5.811 -0.4482 -0.1614  0.2201
 8266TIP3    H146213   5.970   3.477   5.904  1.9012  0.8605 -0.2928
 8266TIP3    H246214   5.903   3.396   5.795 -0.1908 -0.6940  2.0274
 8267TIP3   OH246215   4.318   2.259   3.868  0.3278 -0.2014  0.1437
 8267TIP3    H146216   4.275   2.313   3.934 -0.7612  0.5783 -1.1656
 8267TIP3    H246217   4.260   2.183   3.858  1.4937 -1.3303  1.4636
 8268TIP3   OH246218   5.061   6.158   2.649 -0.2105  0.5960  0.1779
 8268TIP3    H146219   5.117   6.197   2.717  0.7479 -0.0539 -0.2209
 8268TIP3    H246220   5.118   6.150   2.573 -0.8362 -0.1352 -0.2230
 8269TIP3   OH246221   2.634   4.166   0.433  0.4712 -0.3797  0.2460
 8269TIP3    H146222   2.676   4.142   0.350  0.3589 -0.8150  0.3113
 8269TIP3    H246223   2.582   4.244   0.412 -0.3895 -1.0943 -0.3495
 8270TIP3   OH246224   3.529   1.463   3.515  0.1250  0.0319 -0.3955
 8270TIP3    H146225   3.488   1.483   3.431 -0.9815 -2.1532 -0.4353
 8270TIP3    H246226   3.458   1.433   3.571  1.2746 -1.4761  0.3376
 8271TIP3   OH246227   4.772   3.306   4.208  0.5211 -0.0496  0.4913
 8271TIP3    H146228   4.801   3.289   4.118  0.1929 -0.7057  0.4992
 8271TIP3    H246229   4.712   3.380   4.200  1.5948  0.8386  0.3734
 8272TIP3   OH246230   5.205   0.826   5.319  0.3358  0.0817  0.9753
 8272TIP3    H146231   5.207   0.828   5.415 -0.0272  1.8194  0.9694
 8272TIP3    H246232   5.233   0.913   5.292  0.1188 -0.2784 -0.5052
 8273TIP3   OH246233   3.473   6.133  13.543  0.1881 -0.3133  0.4385
 8273TIP3    H146234   3.452   6.137  13.450  0.3057  1.6110  0.4640
 8273TIP3    H246235   3.567   6.114  13.546  0.2563 -0.0215  0.1490
 8274TIP3   OH246236   2.665   0.176  16.249  0.3469  0.5008  0.1840
 8274TIP3    H146237   2.644   0.199  16.158 -0.3410 -0.3132  0.1212
 8274TIP3    H246238   2.743   0.228  16.270 -0.4594  1.9594 -0.3064
 8275TIP3   OH246239   2.862   1.260   1.714  0.1250  0.5455 -0.1669
 8275TIP3    H146240   2.926   1.201   1.752 -0.3889  1.2956  2.0010
 8275TIP3    H246241   2.910   1.341   1.697  0.2116  0.4163 -0.5519
 8276TIP3   OH246242   2.954   4.577  14.996  0.5004 -0.0045  0.3065
 8276TIP3    H146243   2.870   4.580  14.950  0.0229  1.4373  1.2304
 8276TIP3    H246244   2.946   4.501  15.053  0.0484 -0.2103 -0.0181
 8277TIP3   OH246245   1.964   2.963  15.245 -0.3803 -0.2421 -0.1620
 8277TIP3    H146246   2.020   2.994  15.317 -0.5578  0.1361 -0.1805
 8277TIP3    H246247   1.877   2.958  15.284 -0.1205 -2.1692  0.2503
 8278TIP3   OH246248   3.774   3.260  16.086  0.1934 -0.8697  0.3327
 8278TIP3    H146249   3.853   3.305  16.116 -0.8613  1.1206  0.2990
 8278TIP3    H246250   3.723   3.244  16.166 -1.0005  1.2273  0.0709
 8279TIP3   OH246251   2.088   1.644   4.171 -0.3366  0.3202  0.1653
 8279TIP3    H146252   2.177   1.678   4.177 -0.4793  1.0538 -1.4346
 8279TIP3    H246253   2.092   1.558   4.214  0.9319  0.6929  0.8341
 8280TIP3   OH246254   1.152   3.024   3.480 -0.2137  0.4890 -0.1222
 8280TIP3    H146255   1.102   3.105   3.487 -3.1377 -1.3065  1.9703
 8280TIP3    H246256   1.115   2.980   3.404  2.0170  1.3800 -1.8406
 8281TIP3   OH246257   5.150   5.033  14.920 -0.1799 -0.3414 -0.2705
 8281TIP3    H146258   5.088   4.966  14.889  2.3783 -2.9030 -0.2487
 8281TIP3    H246259   5.194   5.063  14.840  1.0855 -1.3302  0.0125
 8282TIP3   OH246260   3.835   5.426   3.445 -0.3545  0.0384 -0.0943
 8282TIP3    H146261   3.760   5.385   3.487 -0.5336 -0.7763 -1.1471
 8282TIP3    H246262   3.801   5.509   3.411 -0.9381 -0.5526 -1.0082
 8283TIP3   OH246263   3.203   5.057  14.075 -0.0287 -0.0458  0.1953
 8283TIP3    H146264   3.271   5.100  14.024 -0.4796  0.9575  0.4263
 8283TIP3    H246265   3.215   5.089  14.164 -0.7129  0.0285  0.2675
 8284TIP3   OH246266   0.836   0.496  14.514 -0.1541 -0.3326 -0.3712
 8284TIP3    H146267   0.874   0.546  14.586 -1.8661 -0.2566  0.5243
 8284TIP3    H246268   0.876   0.409  14.521 -0.4136 -0.3695  0.7711
 8285TIP3   OH246269   2.645   1.713   2.138  0.0558 -0.2838  0.0794
 8285TIP3    H146270   2.564   1.715   2.086 -0.3517  2.1353  0.7065
 8285TIP3    H246271   2.702   1.652   2.091 -1.3565 -0.3974 -1.5728
 8286TIP3   OH246272   5.450   2.785   3.422 -0.4536  0.1233  0.2523
 8286TIP3    H146273   5.510   2.770   3.495  1.3065 -0.8402 -1.3141
 8286TIP3    H246274   5.405   2.702   3.410 -0.9623  0.3702  0.4085
 8287TIP3   OH246275   3.265   1.258  12.660  0.4246 -0.0374 -0.0742
 8287TIP3    H146276   3.282   1.201  12.585  0.4047  0.2119 -0.2706
 8287TIP3    H246277   3.301   1.343  12.634 -0.8320  0.4286 -0.3737
 8288TIP3   OH246278   1.904   5.335   2.880  0.1897 -0.1686  0.3839
 8288TIP3    H146279   1.872   5.419   2.849 -0.5923 -0.9967 -1.1565
 8288TIP3    H246280   1.825   5.282   2.891  0.5909 -0.4250  2.2807
 8289TIP3   OH246281   5.100   2.086   4.653 -0.0519  0.1183  0.2612
 8289TIP3    H146282   5.017   2.071   4.697 -0.4021  2.6260  0.5541
 8289TIP3    H246283   5.087   2.167   4.604  1.9924  0.1498 -0.3063
 8290TIP3   OH246284   1.958   0.826  15.929  0.3890  0.3480 -0.1045
 8290TIP3    H146285   1.903   0.861  15.858  1.9233  1.2291 -0.9025
 8290TIP3    H246286   2.014   0.761  15.886 -1.7954 -2.6548  1.1851
 8291TIP3   OH246287   0.309   1.493  13.075  0.2184  0.1095 -0.0445
 8291TIP3    H146288   0.270   1.515  12.991  1.0281 -0.3214 -0.5468
 8291TIP3    H246289   0.285   1.566  13.133 -0.9531  0.0565 -0.4358
 8292TIP3   OH246290   5.971   5.663   0.784 -0.0110  0.1509 -0.4522
 8292TIP3    H146291   5.929   5.742   0.751  2.1048  0.9008 -1.5489
 8292TIP3    H246292   6.060   5.690   0.805  0.8703 -1.9796 -1.1190
 8293TIP3   OH246293   1.939   2.132  15.377  0.0682  0.0917 -0.1679
 8293TIP3    H146294   1.860   2.097  15.334 -1.0997 -0.7061  2.4207
 8293TIP3    H246295   1.995   2.055  15.389  0.3428  0.2943 -0.1418
 8294TIP3   OH246296   3.326   3.277   5.403 -0.0099  0.2707 -0.4953
 8294TIP3    H146297   3.420   3.292   5.412 -0.3481  1.9006  0.7714
 8294TIP3    H246298   3.316   3.234   5.318  1.8304  0.4429 -0.8214
 8295TIP3   OH246299   1.280   1.893  13.191  0.3657  0.2494  0.1378
 8295TIP3    H146300   1.277   1.832  13.118  0.6074  0.7621 -0.3070
 8295TIP3    H246301   1.188   1.913  13.210  0.1353 -1.9900  1.7924
 8296TIP3   OH246302   3.826   3.823   6.271  0.3834  0.0835 -0.6121
 8296TIP3    H146303   3.816   3.745   6.217  1.9888  0.1487 -1.0633
 8296TIP3    H246304   3.775   3.804   6.350  1.5434 -1.8548 -0.2638
 8297TIP3   OH246305   1.892   0.855  11.538 -0.1150  0.2330  0.3127
 8297TIP3    H146306   1.822   0.915  11.566 -1.7102 -1.2803 -0.2618
 8297TIP3    H246307   1.935   0.900  11.466  0.5569  1.8547  1.6548
 8298TIP3   OH246308   2.747   0.703   5.462 -0.1794  0.8102  0.7582
 8298TIP3    H146309   2.757   0.610   5.481  0.2177  0.2929 -1.6368
 8298TIP3    H246310   2.742   0.745   5.548  0.2123 -1.3417  1.8976
 8299TIP3   OH246311   5.763   5.666   0.975 -0.3106  0.8566  0.2010
 8299TIP3    H146312   5.720   5.610   0.910 -1.8750  0.5050  1.4877
 8299TIP3    H246313   5.856   5.662   0.951 -0.8461  1.1394 -2.2921
 8300TIP3   OH246314   3.305   4.749   1.106  0.3850 -0.7371  0.2139
 8300TIP3    H146315   3.393   4.750   1.068  0.0826 -0.5182 -0.4886
 8300TIP3    H246316   3.281   4.656   1.108  0.5854 -0.7884  0.3059
 8301TIP3   OH246317   0.632   2.481   1.738  0.2658 -0.7408  0.2150
 8301TIP3    H146318   0.649   2.412   1.673  2.3862  0.1193 -0.2561
 8301TIP3    H246319   0.719   2.504   1.771 -0.6331 -0.0791  2.2764
 8302TIP3   OH246320   1.253   2.999   6.137 -0.5780  0.1518  0.0159
 8302TIP3    H146321   1.310   2.973   6.210 -0.7954  0.1092  0.1727
 8302TIP3    H246322   1.303   2.979   6.059  0.9453  3.0106  0.1473
 8303TIP3   OH246323   6.413   0.022   2.630 -0.6509 -0.9733  0.2296
 8303TIP3    H146324   6.336  -0.021   2.593 -0.3845 -1.3989  0.1718
 8303TIP3    H246325   6.471  -0.049   2.655 -0.0944 -0.6488 -0.1103
 8304TIP3   OH246326   2.281   5.979   3.669  0.6909 -0.4265 -0.3739
 8304TIP3    H146327   2.249   5.910   3.727  2.7154 -1.4343 -0.3771
 8304TIP3    H246328   2.331   5.933   3.602  1.3653  0.9934 -0.8942
 8305TIP3   OH246329   4.678   1.752   3.471 -1.2720 -0.3959  0.5767
 8305TIP3    H146330   4.637   1.757   3.385 -2.9677 -0.9604  1.3178
 8305TIP3    H246331   4.673   1.660   3.495  0.0339 -0.3989  0.9047
 8306TIP3   OH246332   4.856   5.405  10.962  0.0611  0.4401  0.3526
 8306TIP3    H146333   4.848   5.493  10.925 -0.0716  1.1210  1.9126
 8306TIP3    H246334   4.770   5.385  10.997 -0.3760 -1.0384 -1.4357
 8307TIP3   OH246335   0.143   0.031  14.530  0.1169 -0.5605 -0.0334
 8307TIP3    H146336   0.224   0.055  14.486  1.0944  1.0957  2.4625
 8307TIP3    H246337   0.091   0.111  14.532  0.1032 -0.5698  1.7135
 8308TIP3   OH246338   4.731   2.391   2.493  0.1825  0.2670  0.4215
 8308TIP3    H146339   4.740   2.390   2.398  1.6917 -2.6129  0.4788
 8308TIP3    H246340   4.638   2.371   2.508 -0.2081  1.3718 -0.4079
 8309TIP3   OH246341   2.402   5.458   0.177  0.2767 -0.1594  0.1897
 8309TIP3    H146342   2.433   5.370   0.157  1.4603  0.1312  0.6665
 8309TIP3    H246343   2.326   5.445   0.233 -0.1159 -0.8783 -0.4881
 8310TIP3   OH246344   1.372   1.701   1.157  0.0772 -0.0488 -0.5398
 8310TIP3    H146345   1.461   1.702   1.192  0.3116 -0.3419 -1.1223
 8310TIP3    H246346   1.317   1.676   1.232  0.2327  2.0587  0.3477
 8311TIP3   OH246347   4.808   5.638   1.057 -0.0836  0.1861 -0.5810
 8311TIP3    H146348   4.783   5.584   0.982  2.5625 -1.8193 -0.1472
 8311TIP3    H246349   4.894   5.605   1.084 -0.6392  1.1958  2.9925
 8312TIP3   OH246350   3.958   2.319  11.261 -0.1633  0.4194 -0.1418
 8312TIP3    H146351   3.890   2.252  11.260  0.6456 -0.4769  1.4663
 8312TIP3    H246352   3.923   2.389  11.206 -2.2407 -0.1384  0.3886
 8313TIP3   OH246353   1.098   1.869  14.273 -0.5149  0.4861 -0.2048
 8313TIP3    H146354   1.037   1.875  14.199 -0.2421 -2.1242 -0.7308
 8313TIP3    H246355   1.184   1.876  14.232 -0.3911  0.6002  0.0744
 8314TIP3   OH246356   5.212   3.551   4.689  0.5095  0.3057 -0.5070
 8314TIP3    H146357   5.165   3.499   4.623  1.2324  1.0057 -1.6068
 8314TIP3    H246358   5.179   3.640   4.677 -0.1058  0.2664  0.7936
 8315TIP3   OH246359   2.012   2.105   1.665 -0.1133  0.4172 -0.0832
 8315TIP3    H146360   2.097   2.068   1.687 -0.3498 -0.6958 -0.9628
 8315TIP3    H246361   2.032   2.185   1.616  0.4453 -0.3186 -1.0838
 8316TIP3   OH246362   6.338   5.020  12.975 -0.0150 -0.4964  0.2655
 8316TIP3    H146363   6.392   5.073  13.033 -0.5129  0.5215 -0.1730
 8316TIP3    H246364   6.299   5.083  12.914  0.8759 -1.5815 -1.5001
 8317TIP3   OH246365   1.636   3.730   0.194  0.4320  0.2285 -0.1284
 8317TIP3    H146366   1.725   3.763   0.182  1.7931 -2.7395  0.9123
 8317TIP3    H246367   1.604   3.776   0.271  1.1042  1.1920 -0.3979
 8318TIP3   OH246368   0.881   1.665  15.888  0.1977  0.1305 -0.1542
 8318TIP3    H146369   0.805   1.661  15.947  0.9872  0.7229  0.9288
 8318TIP3    H246370   0.843   1.678  15.802 -0.9390  0.5071  0.3836
 8319TIP3   OH246371   5.717   4.298   5.320 -0.2558  0.6353 -0.5109
 8319TIP3    H146372   5.662   4.321   5.245  2.3504 -0.7840 -3.0527
 8319TIP3    H246373   5.735   4.205   5.308  1.4466  0.7155  1.0859
 8320TIP3   OH246374   6.040   3.677  11.674 -0.0912  0.3474  0.6713
 8320TIP3    H146375   6.066   3.591  11.639  1.3725  0.6417  0.9331
 8320TIP3    H246376   5.971   3.657  11.737  1.6030 -0.9441  2.2705
 8321TIP3   OH246377   0.619   6.556   0.849 -0.2432 -0.3706 -0.2018
 8321TIP3    H146378   0.690   6.617   0.829  0.2018 -0.4442  1.0420
 8321TIP3    H246379   0.663   6.473   0.864 -0.7532 -0.7758 -0.8847
 8322TIP3   OH246380   0.990   5.634   3.639 -1.0545  0.3777 -0.0721
 8322TIP3    H146381   1.007   5.543   3.662 -2.3292  0.1933  0.2319
 8322TIP3    H246382   1.062   5.659   3.581 -0.4839 -0.6975  0.1651
 8323TIP3   OH246383   2.892   1.301   0.101  0.5291 -0.7695  0.0816
 8323TIP3    H146384   2.829   1.372   0.113  1.0219 -0.0634 -1.3068
 8323TIP3    H246385   2.857   1.229   0.154 -1.7299 -0.6018 -1.0586
 8324TIP3   OH246386   6.542   2.019  15.688  0.0084 -0.2866  0.2002
 8324TIP3    H146387   6.473   1.961  15.718 -1.0928  0.7790 -0.1996
 8324TIP3    H246388   6.560   2.076  15.763 -0.1091 -0.0404  0.0415
 8325TIP3   OH246389   3.183   5.976  11.435  0.6201 -0.3811 -0.0774
 8325TIP3    H146390   3.089   5.989  11.443  0.9566  1.5669  1.5165
 8325TIP3    H246391   3.202   5.988  11.342 -0.7785 -1.6263 -0.5535
 8326TIP3   OH246392   3.426   1.657  12.429 -0.2758 -0.0433  0.4688
 8326TIP3    H146393   3.334   1.670  12.452 -0.3887 -0.8341  0.5158
 8326TIP3    H246394   3.440   1.712  12.352 -0.3351  1.3572  1.4231
 8327TIP3   OH246395   4.210   5.141  16.187  0.5716 -0.0599  0.3274
 8327TIP3    H146396   4.116   5.147  16.205  0.3829  0.6996 -0.8026
 8327TIP3    H246397   4.238   5.232  16.179  1.0712 -0.2983 -0.8967
 8328TIP3   OH246398   3.482   1.810  11.758  0.3174  0.5028  0.5498
 8328TIP3    H146399   3.440   1.883  11.803  1.4253  1.0323  0.7590
 8328TIP3    H246400   3.421   1.787  11.688 -0.1749  1.4598  0.6432
 8329TIP3   OH246401   2.188   2.465  16.670 -0.1667  0.4533 -0.9919
 8329TIP3    H146402   2.230   2.493  16.751  0.1175 -0.5713 -0.7712
 8329TIP3    H246403   2.095   2.466  16.689 -0.1091  0.3688 -0.7007
 8330TIP3   OH246404   5.911   2.627  16.212  0.3964 -0.0781 -0.0283
 8330TIP3    H146405   5.895   2.711  16.255 -0.0359 -0.5849  0.8440
 8330TIP3    H246406   5.846   2.623  16.142  0.0406  0.0749  0.2841
 8331TIP3   OH246407   5.501   5.012  15.707  0.4642 -0.5558  0.2514
 8331TIP3    H146408   5.458   4.960  15.639  4.6760 -1.6320 -1.9941
 8331TIP3    H246409   5.532   4.948  15.771  0.4039 -0.0759  0.7702
 8332TIP3   OH246410   3.418   2.607  12.367  0.3451  0.0982  0.1130
 8332TIP3    H146411   3.509   2.637  12.370  0.0659  0.8964  0.7461
 8332TIP3    H246412   3.423   2.513  12.384  1.0944  0.0396 -0.3862
 8333TIP3   OH246413   0.805   6.045  13.276  0.0725 -0.0215 -0.2275
 8333TIP3    H146414   0.869   6.010  13.214 -0.7953 -0.8089 -0.6945
 8333TIP3    H246415   0.721   6.012  13.246 -0.8436  2.5533 -0.7580
 8334TIP3   OH246416   2.364   1.129   1.248  0.1098  0.1384 -0.6396
 8334TIP3    H146417   2.336   1.087   1.329  1.1078 -1.7737 -1.2334
 8334TIP3    H246418   2.459   1.136   1.256  0.2522 -0.3312 -1.7482
 8335TIP3   OH246419   3.392   4.220   5.751 -0.2918 -0.5614 -0.0228
 8335TIP3    H146420   3.397   4.301   5.803  0.2305 -0.7177  0.1765
 8335TIP3    H246421   3.482   4.206   5.721 -0.6666 -0.1680 -1.4470
 8336TIP3   OH246422   5.423   4.395   4.945 -0.2190 -0.1417  0.8874
 8336TIP3    H146423   5.450   4.341   4.871 -1.3381 -0.5586  0.7633
 8336TIP3    H246424   5.458   4.351   5.022  1.6865  0.7485  0.5793
 8337TIP3   OH246425   6.246   1.303  16.992 -0.1478 -0.0634  0.1073
 8337TIP3    H146426   6.156   1.328  17.011  0.6524  1.6402  1.9714
 8337TIP3    H246427   6.296   1.384  16.999  1.8263 -1.2841  1.2496
 8338TIP3   OH246428   2.315   5.004  16.397  0.6095 -0.0652  0.3303
 8338TIP3    H146429   2.386   4.951  16.362  1.3002  1.1095 -0.1059
 8338TIP3    H246430   2.344   5.029  16.485  0.0172 -0.8899  0.7722
 8339TIP3   OH246431   1.865   0.364   5.339 -0.3577 -0.1626  0.0307
 8339TIP3    H146432   1.958   0.369   5.316 -0.8079 -0.6913 -2.0277
 8339TIP3    H246433   1.818   0.382   5.258 -2.0941  0.6383  1.1517
 8340TIP3   OH246434   1.249   0.506   5.645  0.2309  0.4715  0.2975
 8340TIP3    H146435   1.217   0.564   5.715 -0.3398  0.9533 -0.3507
 8340TIP3    H246436   1.255   0.420   5.687 -0.8647  0.5880  0.7416
 8341TIP3   OH246437   5.389   0.674  10.608 -0.4686  0.6328  0.1235
 8341TIP3    H146438   5.381   0.767  10.584 -0.3884  0.7276  0.4628
 8341TIP3    H246439   5.350   0.669  10.695  1.4571  0.7483  1.0424
 8342TIP3   OH246440   6.233   2.288  11.039  0.3018 -0.5813 -0.4038
 8342TIP3    H146441   6.315   2.331  11.016 -0.2663  0.9115  0.2839
 8342TIP3    H246442   6.195   2.343  11.107  0.8392 -3.5564  2.5853
 8343TIP3   OH246443   6.342   5.973   2.500  0.7051  0.7872  0.7230
 8343TIP3    H146444   6.288   5.951   2.424  1.8767 -0.2260  0.1530
 8343TIP3    H246445   6.369   6.064   2.485 -0.8321  1.3177  1.0366
 8344TIP3   OH246446   2.543   2.604   2.678  0.6772  0.0496  0.4360
 8344TIP3    H146447   2.506   2.565   2.599  0.2076 -1.4476  1.3573
 8344TIP3    H246448   2.530   2.538   2.746  1.4812  1.1138  1.6738
 8345TIP3   OH246449   3.008   3.829   2.851 -0.0232 -0.2078  0.2117
 8345TIP3    H146450   3.054   3.746   2.861  0.7240  0.3195  1.5105
 8345TIP3    H246451   2.949   3.833   2.927  2.5728  1.9908  2.3528
 8346TIP3   OH246452   1.745   1.998   6.129 -0.3653 -0.8097 -0.1729
 8346TIP3    H146453   1.745   2.052   6.207  0.7539 -1.1989  0.1100
 8346TIP3    H246454   1.656   2.007   6.094 -0.8823 -0.6299  1.1331
 8347TIP3   OH246455   5.781   6.310   4.647  0.4045 -0.2272 -0.1200
 8347TIP3    H146456   5.812   6.399   4.665 -1.0375  0.1039  0.9116
 8347TIP3    H246457   5.861   6.257   4.643  1.2001  0.8811  0.6258
 8348TIP3   OH246458   1.025   3.808  14.548 -0.1473 -0.1540  0.3644
 8348TIP3    H146459   1.094   3.874  14.548 -0.6337  0.3992  1.7004
 8348TIP3    H246460   0.956   3.845  14.494  1.1308 -1.3766 -2.2844
 8349TIP3   OH246461   5.046   0.570   1.438 -0.5605 -0.1898  0.2089
 8349TIP3    H146462   5.094   0.528   1.367 -0.2032  0.0312  0.3175
 8349TIP3    H246463   5.043   0.506   1.508 -0.2478 -0.1291  0.2767
 8350TIP3   OH246464   3.700   4.569   4.103 -0.0094  0.1261 -0.4643
 8350TIP3    H146465   3.746   4.651   4.085  0.5615 -0.3636 -1.3604
 8350TIP3    H246466   3.607   4.592   4.104  0.1791  0.8825 -0.1063
 8351TIP3   OH246467   1.910   3.719   0.673  0.2417  0.3327  0.2562
 8351TIP3    H146468   1.959   3.762   0.743 -0.1716 -0.0635  0.7935
 8351TIP3    H246469   1.824   3.762   0.675  0.7537  1.4923 -1.1174
 8352TIP3   OH246470   5.712   2.512  14.530  0.0863 -0.0152 -0.4456
 8352TIP3    H146471   5.805   2.529  14.548 -0.0563 -0.4939  0.8550
 8352TIP3    H246472   5.708   2.502  14.435  1.5841 -1.2831 -0.4191
 8353TIP3   OH246473   2.363   3.883  12.718 -0.7078  0.3636 -0.1841
 8353TIP3    H146474   2.373   3.978  12.721 -0.3769  0.4167 -1.8865
 8353TIP3    H246475   2.283   3.868  12.668 -1.4347 -0.2782  1.0934
 8354TIP3   OH246476   3.555   4.456  15.804  0.2280  0.0658  0.0004
 8354TIP3    H146477   3.559   4.525  15.738  2.1916  2.0420  2.0068
 8354TIP3    H246478   3.535   4.377  15.755  3.0428  1.1150 -3.2244
 8355TIP3   OH246479   5.590   5.782   3.922  0.4584 -0.2333  0.3823
 8355TIP3    H146480   5.513   5.789   3.979  2.0550 -0.4978  2.6802
 8355TIP3    H246481   5.611   5.689   3.921  1.3813 -0.0391  0.6907
 8356TIP3   OH246482   2.903   6.503   1.222  0.4677 -0.1732  0.1605
 8356TIP3    H146483   2.987   6.484   1.180  0.6647 -1.5132  1.0926
 8356TIP3    H246484   2.843   6.518   1.150  1.3608  0.1276 -0.5374
 8357TIP3   OH246485   4.881   6.272  14.685  0.0842  0.2937 -0.0663
 8357TIP3    H146486   4.886   6.285  14.780  0.2591  2.2709 -0.2940
 8357TIP3    H246487   4.874   6.361  14.650 -0.3680 -0.4290 -1.8920
 8358TIP3   OH246488   0.987   5.701   3.201  0.3096  0.6185  0.1079
 8358TIP3    H146489   0.932   5.628   3.229  1.4365  0.1215  1.1330
 8358TIP3    H246490   0.987   5.697   3.105  1.2569 -1.4558  0.1441
 8359TIP3   OH246491   1.212   1.319  12.282 -0.0365  0.2812 -0.1643
 8359TIP3    H146492   1.149   1.371  12.332 -0.3644 -0.0980 -0.1793
 8359TIP3    H246493   1.241   1.378  12.212 -0.1016  0.5766  0.0533
 8360TIP3   OH246494   2.856   4.511   4.936  0.5687  0.7636  0.3604
 8360TIP3    H146495   2.806   4.442   4.893  1.1602 -0.3332  1.3470
 8360TIP3    H246496   2.902   4.556   4.865  0.1502  0.1545 -0.3090
 8361TIP3   OH246497   3.011   0.665  14.646  0.3273  0.1341 -0.1612
 8361TIP3    H146498   2.946   0.672  14.716 -0.1083 -1.8383 -0.3151
 8361TIP3    H246499   3.084   0.720  14.675 -0.1444 -0.0604  1.4901
 8362TIP3   OH246500   3.342   1.924  12.933  0.2012  0.4826  0.7258
 8362TIP3    H146501   3.306   1.976  13.005 -1.3753 -0.8058  0.9276
 8362TIP3    H246502   3.380   1.847  12.975  2.1965  1.2337  0.4007
 8363TIP3   OH246503   2.513   5.068   4.336  0.1752 -0.3733 -0.4622
 8363TIP3    H146504   2.487   5.048   4.426  2.5019 -0.3202  0.2945
 8363TIP3    H246505   2.481   5.157   4.321 -0.2510 -0.3884  0.3045
 8364TIP3   OH246506   2.152   2.713  14.351 -0.0796 -0.0085  0.2347
 8364TIP3    H146507   2.119   2.701  14.440 -0.1316  0.1166  0.2323
 8364TIP3    H246508   2.135   2.630  14.308 -1.3437  0.3843 -0.0717
 8365TIP3   OH246509   0.012   6.270   3.074 -0.2628  0.5090  0.2109
 8365TIP3    H146510   0.097   6.294   3.111 -0.0647  0.6000 -0.2970
 8365TIP3    H246511   0.022   6.285   2.980 -0.4262 -0.7077 -0.0141
 8366TIP3   OH246512   5.681   3.259  11.339  0.1698  0.1042  0.4054
 8366TIP3    H146513   5.611   3.314  11.376  1.3829  1.7737  0.3266
 8366TIP3    H246514   5.692   3.188  11.402 -0.7525  0.4963  1.0268
 8367TIP3   OH246515   5.753   3.332   5.165  0.1396  0.2674  0.2718
 8367TIP3    H146516   5.787   3.328   5.076 -0.8033 -0.5962 -0.0841
 8367TIP3    H246517   5.824   3.301   5.220  0.2556 -0.6158 -0.3503
 8368TIP3   OH246518   2.743   2.397   3.777 -0.6881 -0.7237  0.2367
 8368TIP3    H146519   2.801   2.468   3.805 -1.2743  1.1833 -2.8844
 8368TIP3    H246520   2.665   2.441   3.743 -2.5957 -3.0751  1.2757
 8369TIP3   OH246521   6.481   5.237   0.176  0.1850 -0.5698 -0.2052
 8369TIP3    H146522   6.527   5.266   0.254 -3.2264  1.7896  1.1786
 8369TIP3    H246523   6.510   5.297   0.107  2.6200 -2.1821 -0.7280
 8370TIP3   OH246524   4.156   4.190  15.015  0.1056  0.2577  0.3858
 8370TIP3    H146525   4.204   4.149  14.943  2.6742  0.8902  1.6363
 8370TIP3    H246526   4.078   4.228  14.973  1.7252  1.0093 -2.1488
 8371TIP3   OH246527   5.692   6.380  15.602 -0.0295  0.1702  0.2427
 8371TIP3    H146528   5.679   6.294  15.563  1.5804  0.0889 -0.1879
 8371TIP3    H246529   5.632   6.437  15.555  0.1221 -0.4020 -0.6781
 8372TIP3   OH246530   3.274   3.408  16.191  0.5685  0.4145 -0.1789
 8372TIP3    H146531   3.288   3.315  16.173  0.1515  0.3196 -0.0082
 8372TIP3    H246532   3.270   3.413  16.287 -1.7061  0.2701 -0.2310
 8373TIP3   OH246533   2.241   4.777  13.964 -0.5890  0.2663 -0.0222
 8373TIP3    H146534   2.309   4.712  13.981  0.2781  0.9264 -0.9116
 8373TIP3    H246535   2.288   4.858  13.946 -1.6207  0.8190 -0.3217
 8374TIP3   OH246536   6.677   1.544   4.165 -0.3797 -0.8144 -0.0924
 8374TIP3    H146537   6.647   1.453   4.165  0.2103 -1.0165  0.5819
 8374TIP3    H246538   6.602   1.594   4.132 -0.5191 -1.5924 -0.9943
 8375TIP3   OH246539   3.744   2.873   1.162 -0.4458 -0.1572  0.4268
 8375TIP3    H146540   3.713   2.912   1.244 -0.1925 -0.6872  0.7794
 8375TIP3    H246541   3.682   2.802   1.145 -2.1131  1.6003 -1.2730
 8376TIP3   OH246542   2.582   6.737   5.957  0.4414  0.7288  0.2397
 8376TIP3    H146543   2.536   6.710   5.878  0.1491 -0.2852  0.7377
 8376TIP3    H246544   2.535   6.815   5.987  1.5479  2.1046 -1.4461
 8377TIP3   OH246545   4.743   4.451   5.711 -0.0593 -0.0338 -0.4948
 8377TIP3    H146546   4.768   4.511   5.781 -0.4867  0.8491 -1.0844
 8377TIP3    H246547   4.747   4.504   5.631 -0.8654 -0.6707 -0.9735
 8378TIP3   OH246548   2.411   1.711   5.452 -0.3007  0.0489  0.5931
 8378TIP3    H146549   2.431   1.617   5.459  0.5445  0.1493 -0.3704
 8378TIP3    H246550   2.332   1.715   5.398 -0.2590 -0.0884  0.5226
 8379TIP3   OH246551   4.251   6.365   4.296  0.2665 -0.1947  0.0699
 8379TIP3    H146552   4.276   6.378   4.388 -0.6760 -0.8710  0.4385
 8379TIP3    H246553   4.224   6.273   4.292 -1.2220  0.2478 -0.5002
 8380TIP3   OH246554   3.370   4.997   2.126  0.5473  0.2359 -0.1178
 8380TIP3    H146555   3.277   4.979   2.118  0.2988  1.2894  0.2732
 8380TIP3    H246556   3.408   4.913   2.152 -0.4746  0.0702  0.9618
 8381TIP3   OH246557   4.537   3.208   0.934  0.0766  0.1672  0.0665
 8381TIP3    H146558   4.573   3.283   0.983 -0.5179  0.3529  0.2326
 8381TIP3    H246559   4.462   3.179   0.987  0.4953 -0.7504  0.1693
 8382TIP3   OH246560   2.434   6.558  11.304  0.5521  0.1101  0.2254
 8382TIP3    H146561   2.427   6.623  11.234 -0.4474  0.4655  0.6389
 8382TIP3    H246562   2.445   6.611  11.383  0.2264 -0.2443  0.5065
 8383TIP3   OH246563   5.861   1.512   5.116 -0.2716 -0.4322 -0.0613
 8383TIP3    H146564   5.797   1.468   5.172  0.7365  2.2649  3.6160
 8383TIP3    H246565   5.940   1.459   5.124 -0.6800 -1.1473 -0.6349
 8384TIP3   OH246566   2.069   1.991  15.892 -0.0759 -0.6516  0.6537
 8384TIP3    H146567   2.114   1.978  15.975  0.6999 -0.8829  0.2086
 8384TIP3    H246568   2.132   1.961  15.826  0.5301  2.2679 -0.2299
 8385TIP3   OH246569   0.575   6.754   0.100 -0.0084  0.0626 -0.5194
 8385TIP3    H146570   0.646   6.732   0.159  0.2498  0.4503 -0.6811
 8385TIP3    H246571   0.498   6.761   0.156 -0.2114 -1.7490 -0.5299
 8386TIP3   OH246572   2.331   5.435   3.860  0.1731 -0.6614  0.5941
 8386TIP3    H146573   2.347   5.506   3.798 -2.7334 -1.2140 -0.9497
 8386TIP3    H246574   2.400   5.371   3.840  0.1637 -0.1932 -1.0897
 8387TIP3   OH246575   2.018   5.209  11.659  0.0232  0.5877 -0.1927
 8387TIP3    H146576   2.040   5.126  11.615  1.3415  1.0075 -0.3824
 8387TIP3    H246577   2.060   5.276  11.606  1.2599  1.1593  1.4141
 8388TIP3   OH246578   4.076   0.167  13.815 -0.6163 -0.1878 -0.8091
 8388TIP3    H146579   4.022   0.133  13.885 -1.7031 -0.1673 -1.6056
 8388TIP3    H246580   4.157   0.115  13.818 -0.2562  0.4198  0.9984
 8389TIP3   OH246581   0.085   3.088   1.166 -0.4030 -0.3600  0.6585
 8389TIP3    H146582   0.133   3.088   1.249 -0.4556 -2.3765  0.7513
 8389TIP3    H246583   0.005   3.137   1.185 -0.0170 -0.0520  1.5475
 8390TIP3   OH246584   2.578   1.879   2.823  0.0212  0.1873  0.4746
 8390TIP3    H146585   2.486   1.906   2.829 -0.2813 -0.5600 -0.4497
 8390TIP3    H246586   2.587   1.848   2.733  1.2676  0.5281  0.4713
 8391TIP3   OH246587   1.316   5.702   3.839  0.0229  0.1387  0.1542
 8391TIP3    H146588   1.335   5.775   3.781 -1.2874  0.2259 -0.1974
 8391TIP3    H246589   1.242   5.732   3.892  1.3109  0.1453  2.0556
 8392TIP3   OH246590   3.517   4.697   1.865  0.0100 -0.1918 -0.1559
 8392TIP3    H146591   3.535   4.712   1.772 -0.3348 -1.3810 -0.4240
 8392TIP3    H246592   3.587   4.745   1.910 -0.8317  1.8937 -0.9407
 8393TIP3   OH246593   2.717   0.388  11.131 -0.0342  0.2283 -0.1487
 8393TIP3    H146594   2.645   0.418  11.075 -0.4452 -1.7261 -0.7129
 8393TIP3    H246595   2.675   0.368  11.215  0.1453  0.5927  0.0347
 8394TIP3   OH246596   0.202   1.272   5.476 -0.2638  1.0587  0.3327
 8394TIP3    H146597   0.194   1.346   5.416  2.3223  2.7983  1.9553
 8394TIP3    H246598   0.112   1.257   5.506 -1.1555  2.1462 -1.5698
 8395TIP3   OH246599   0.080   4.105   5.615 -0.1110  0.8380 -0.1769
 8395TIP3    H146600   0.112   4.183   5.660 -1.3890  2.2529 -1.5952
 8395TIP3    H246601   0.133   4.099   5.536 -1.6457  1.7776 -1.3217
 8396TIP3   OH246602   5.740   2.817   0.646 -0.1265 -0.3945 -0.0601
 8396TIP3    H146603   5.824   2.857   0.622  0.2234 -0.9918  0.1492
 8396TIP3    H246604   5.762   2.727   0.671 -0.6393 -0.1367  1.3999
 8397TIP3   OH246605   0.726   6.726   2.050 -0.0499  0.3990  0.1232
 8397TIP3    H146606   0.747   6.819   2.057 -1.7665  1.0870 -2.4634
 8397TIP3    H246607   0.647   6.715   2.104 -1.0033  0.9568 -1.0961
 8398TIP3   OH246608   5.314   5.354   0.080 -0.4791  0.3589  0.5832
 8398TIP3    H146609   5.280   5.290   0.144 -0.3076 -0.7146 -0.3627
 8398TIP3    H246610   5.286   5.319  -0.005 -0.3117  1.5207  0.0405
 8399TIP3   OH246611   1.593   3.665  15.372  0.0778 -0.2195 -0.3692
 8399TIP3    H146612   1.662   3.704  15.319  1.1314  0.4661  1.3966
 8399TIP3    H246613   1.636   3.595  15.421 -0.7521 -0.5703 -0.1111
 8400TIP3   OH246614   6.714   1.032   2.780 -0.2128 -0.0895  0.1079
 8400TIP3    H146615   6.673   1.043   2.866  1.3558  1.6248  0.6908
 8400TIP3    H246616   6.702   1.117   2.736  0.8853 -0.2276 -0.5001
 8401TIP3   OH246617   6.210   3.031  14.274  0.0755  0.5510  0.5414
 8401TIP3    H146618   6.301   3.005  14.290 -0.2508 -0.3308  1.0671
 8401TIP3    H246619   6.160   2.987  14.343 -1.2951 -2.5245 -2.1375
 8402TIP3   OH246620   6.679   5.863   6.315 -0.1216  0.4909 -0.2827
 8402TIP3    H146621   6.629   5.803   6.370 -0.3693 -0.9590 -2.0104
 8402TIP3    H246622   6.622   5.940   6.306 -0.8903 -0.0430 -0.0633
 8403TIP3   OH246623   4.774   4.401   4.127 -0.6716  0.0473  0.0353
 8403TIP3    H146624   4.690   4.362   4.152 -0.5447  0.3157  0.9143
 8403TIP3    H246625   4.772   4.402   4.031 -2.2031  1.1745  0.0313
 8404TIP3   OH246626   4.513   1.595   1.900  0.5549  0.1768 -0.0310
 8404TIP3    H146627   4.427   1.553   1.899  0.4922  0.3097 -1.3921
 8404TIP3    H246628   4.496   1.687   1.883  0.6986  0.8588  2.9230
 8405TIP3   OH246629   0.058   2.590   1.615 -0.4002  0.2076 -0.5268
 8405TIP3    H146630   0.048   2.501   1.648 -0.3056 -0.3661 -1.9561
 8405TIP3    H246631  -0.031   2.619   1.597 -0.5351  0.9304  1.2113
 8406TIP3   OH246632   6.316   5.766   5.571  0.5416 -0.1204 -0.3119
 8406TIP3    H146633   6.347   5.675   5.570 -0.2471 -0.4032  0.1645
 8406TIP3    H246634   6.239   5.765   5.513 -0.1410 -0.0154  0.5703
 8407TIP3   OH246635   5.924   1.970   1.027 -0.0464 -0.1405  0.0102
 8407TIP3    H146636   5.992   1.913   1.064 -0.1072 -0.0306  0.2958
 8407TIP3    H246637   5.848   1.956   1.084 -0.0759  0.1882  0.0547
 8408TIP3   OH246638   2.905   1.968   4.783  0.0300  0.3612 -0.7269
 8408TIP3    H146639   2.849   1.918   4.725 -2.0997  1.2038  0.4808
 8408TIP3    H246640   2.908   1.917   4.864  2.3702 -0.4427 -1.2330
 8409TIP3   OH246641   2.666   0.678   5.924  0.1257 -0.3607  0.0751
 8409TIP3    H146642   2.720   0.720   5.990  2.0277 -0.5089 -1.2891
 8409TIP3    H246643   2.663   0.741   5.852  2.5251 -2.1191 -1.7658
 8410TIP3   OH246644   6.379   5.519   1.453 -0.0050  0.2888 -0.2638
 8410TIP3    H146645   6.426   5.595   1.420  1.2515 -0.9499 -1.4724
 8410TIP3    H246646   6.303   5.556   1.498  0.9551  2.2703 -0.1362
 8411TIP3   OH246647   5.800   0.941   5.003 -0.3261 -0.1588 -0.1475
 8411TIP3    H146648   5.858   1.012   4.977  2.0211 -1.2777  1.6754
 8411TIP3    H246649   5.779   0.959   5.094 -1.7975 -0.5182 -0.3843
 8412TIP3   OH246650   6.358   3.766   3.677  0.8108  0.2973  0.2613
 8412TIP3    H146651   6.390   3.708   3.608  1.2886 -0.1339  0.8295
 8412TIP3    H246652   6.436   3.795   3.723  0.4864  0.2888  0.8399
 8413TIP3   OH246653   6.630   6.757   3.594 -0.1825  0.5289 -0.0557
 8413TIP3    H146654   6.673   6.697   3.534  0.5923 -0.9242  1.8339
 8413TIP3    H246655   6.591   6.823   3.538  1.8942  0.1997 -2.0514
 8414TIP3   OH246656   2.017   2.192   2.144  0.6008 -0.0594 -0.8516
 8414TIP3    H146657   1.968   2.247   2.204  1.1298  0.5489 -0.9645
 8414TIP3    H246658   2.101   2.237   2.134  0.2426  0.2977 -2.6470
 8415TIP3   OH246659   0.796   2.345   0.367  0.0746  0.0004 -0.0306
 8415TIP3    H146660   0.772   2.427   0.322 -0.2161 -0.8138 -1.4237
 8415TIP3    H246661   0.718   2.322   0.418  0.2128  0.6679  0.4887
 8416TIP3   OH246662   2.546   5.079  12.294  0.5892  0.4571 -0.3804
 8416TIP3    H146663   2.619   5.047  12.241 -0.0699  1.2170 -1.7842
 8416TIP3    H246664   2.506   5.148  12.242 -0.3656  0.9392  0.9240
 8417TIP3   OH246665   3.491   5.705  13.693  0.8607  0.1898 -0.5397
 8417TIP3    H146666   3.561   5.762  13.661  1.0112  0.6186  0.5243
 8417TIP3    H246667   3.422   5.764  13.722 -0.1516 -0.2315 -1.9336
 8418TIP3   OH246668   6.197   6.672   2.989 -0.0324 -0.0806 -0.0531
 8418TIP3    H146669   6.250   6.605   3.031  1.3722  1.0196  0.0103
 8418TIP3    H246670   6.119   6.626   2.959 -0.0765 -1.3216  1.8102
 8419TIP3   OH246671   4.594   6.176   3.585  0.2262 -0.1383 -0.3653
 8419TIP3    H146672   4.608   6.211   3.673 -2.4844 -2.3145  1.0638
 8419TIP3    H246673   4.642   6.093   3.584  0.5441  0.0426 -1.0981
 8420TIP3   OH246674   5.183   3.387   5.354  0.6526 -0.0412  0.2147
 8420TIP3    H146675   5.125   3.462   5.337  1.2408  0.0276 -1.8481
 8420TIP3    H246676   5.128   3.310   5.340  0.2325 -0.0270  1.6280
 8421TIP3   OH246677   4.455   6.174   0.378 -0.0330  0.0517  0.6359
 8421TIP3    H146678   4.421   6.086   0.392  0.0816 -0.1379 -0.2528
 8421TIP3    H246679   4.445   6.189   0.284  0.8428  0.6145  0.6279
 8422TIP3   OH246680   2.222   3.030  14.657 -0.1006  0.2996 -0.2651
 8422TIP3    H146681   2.186   3.069  14.577  1.8190 -0.7933 -1.7658
 8422TIP3    H246682   2.230   3.103  14.718 -0.6409  1.3850 -1.4332
 8423TIP3   OH246683   4.418   5.477  11.553 -0.6781 -0.1547 -0.0202
 8423TIP3    H146684   4.452   5.388  11.562  0.4168  0.2757  0.1406
 8423TIP3    H246685   4.343   5.479  11.613 -0.4676 -0.8408  0.2838
 8424TIP3   OH246686   3.432   4.646  15.980  0.6185  0.2339 -0.1853
 8424TIP3    H146687   3.405   4.568  16.029  0.0959  0.7429  0.3518
 8424TIP3    H246688   3.479   4.612  15.904 -1.0186 -0.6753 -0.8271
 8425TIP3   OH246689   0.670   0.491  11.601 -0.0760 -0.3643  0.2042
 8425TIP3    H146690   0.681   0.420  11.664  1.0201  1.6620  2.4659
 8425TIP3    H246691   0.575   0.497  11.589 -0.4256 -0.2777  2.4608
 8426TIP3   OH246692   6.269   0.661   0.004  0.0170 -0.3376  0.1066
 8426TIP3    H146693   6.223   0.717   0.066 -1.4767 -0.8237 -0.5080
 8426TIP3    H246694   6.205   0.644  -0.065  0.9586 -1.4840 -0.5300
 8427TIP3   OH246695   1.977   5.868   3.621 -0.8092 -0.2729 -0.4400
 8427TIP3    H146696   1.995   5.814   3.698  0.9015  0.6022 -0.1554
 8427TIP3    H246697   2.011   5.818   3.547  0.7373  0.3324 -0.1815
 8428TIP3   OH246698   5.110   4.054  11.444 -0.4845  0.7772 -0.2946
 8428TIP3    H146699   5.122   4.148  11.433 -1.0313  1.0337  1.1184
 8428TIP3    H246700   5.019   4.044  11.473  0.1647  0.0619  1.7157
 8429TIP3   OH246701   1.758   1.340   6.162  0.5152  0.3947  0.0423
 8429TIP3    H146702   1.819   1.270   6.138  1.4482  1.0443  0.4645
 8429TIP3    H246703   1.676   1.294   6.182  1.2872 -0.6399  0.9334
 8430TIP3   OH246704   0.557   1.039  16.285 -0.5177 -0.5058 -0.0377
 8430TIP3    H146705   0.604   1.088  16.217 -0.7922 -0.8618 -0.4837
 8430TIP3    H246706   0.626   0.988  16.329 -0.1728  0.5088  0.6474
 8431TIP3   OH246707   0.721   5.927  11.554  0.2116 -0.5533 -0.1592
 8431TIP3    H146708   0.770   5.952  11.633 -1.0232 -0.3655  0.5852
 8431TIP3    H246709   0.748   5.990  11.488 -1.3843  1.6324  1.1370
 8432TIP3   OH246710   4.372   3.686  14.050 -0.4730 -0.3934  0.6470
 8432TIP3    H146711   4.315   3.610  14.056 -1.0625 -0.0080  0.1051
 8432TIP3    H246712   4.420   3.687  14.132 -0.8483 -1.0417  0.8812
 8433TIP3   OH246713   2.755   1.221  13.681 -0.3028  0.3658  0.4258
 8433TIP3    H146714   2.728   1.231  13.772  0.6171  0.9819  0.6413
 8433TIP3    H246715   2.739   1.308  13.642 -1.9596 -0.2419 -0.3705
 8434TIP3   OH246716   1.936   5.318  13.561 -0.4208 -0.0131  0.1385
 8434TIP3    H146717   1.879   5.379  13.515 -1.2336 -1.5971 -1.0555
 8434TIP3    H246718   2.025   5.351  13.545 -0.6359 -0.5760 -2.8048
 8435TIP3   OH246719   6.107   3.002   1.566 -0.2532 -0.2477  0.6315
 8435TIP3    H146720   6.038   3.042   1.619 -0.0231  2.4291 -0.9000
 8435TIP3    H246721   6.188   3.038   1.601  0.4365 -2.9590  2.0683
 8436TIP3   OH246722   5.788   4.222  13.253  0.4284  0.2036 -0.3499
 8436TIP3    H146723   5.841   4.226  13.173  2.3139  0.0495  0.8467
 8436TIP3    H246724   5.848   4.194  13.321 -1.5829 -1.7456  0.7797
 8437TIP3   OH246725   0.309   2.964   4.912  0.7080  0.0457 -0.6698
 8437TIP3    H146726   0.295   2.901   4.842  2.7960 -1.0548 -0.1574
 8437TIP3    H246727   0.287   2.917   4.992  1.7573  0.1243 -0.3246
 8438TIP3   OH246728   1.653   3.088  11.442 -0.2231  0.2678 -0.8327
 8438TIP3    H146729   1.619   3.006  11.477  0.1622  0.4462 -0.0141
 8438TIP3    H246730   1.648   3.078  11.347  1.1474 -1.2945 -0.7896
 8439TIP3   OH246731   0.496   3.676  11.617 -0.6263  0.1809 -0.2452
 8439TIP3    H146732   0.422   3.640  11.568 -0.8051 -2.1743  1.6292
 8439TIP3    H246733   0.456   3.737  11.679 -0.3393  3.8656 -3.2656
 8440TIP3   OH246734   2.561   2.842  17.043 -0.6289 -0.3539  0.4660
 8440TIP3    H146735   2.587   2.756  17.010 -2.2056 -0.5003 -0.4864
 8440TIP3    H246736   2.488   2.823  17.103  0.2325  0.1737  1.7107
 8441TIP3   OH246737   3.922   0.774   3.476  0.0425 -0.1623 -0.5312
 8441TIP3    H146738   3.954   0.857   3.512  1.9670 -1.0695 -0.0322
 8441TIP3    H246739   4.001   0.727   3.452 -1.0672 -1.1921 -2.3867
 8442TIP3   OH246740   4.068   0.271  10.700 -0.0881  0.1738 -0.5705
 8442TIP3    H146741   4.029   0.297  10.783 -0.5691 -0.7601 -0.4900
 8442TIP3    H246742   4.083   0.177  10.709 -0.2764  0.0378 -1.5951
 8443TIP3   OH246743   6.399   0.445  11.180  0.4741  0.2512 -0.2303
 8443TIP3    H146744   6.443   0.362  11.197 -0.5232 -0.0179  1.2112
 8443TIP3    H246745   6.346   0.461  11.259 -0.9594  1.2210 -1.3382
 8444TIP3   OH246746   5.125   4.992   0.667  0.6527  0.6322 -0.0261
 8444TIP3    H146747   5.218   5.012   0.662  1.3429 -1.2221  3.0668
 8444TIP3    H246748   5.116   4.905   0.628 -0.5031  2.1067 -3.4511
 8445TIP3   OH246749   2.110   5.203   3.078  0.1768  0.4929  0.5967
 8445TIP3    H146750   2.035   5.246   3.037 -0.7242 -0.2810  1.3782
 8445TIP3    H246751   2.120   5.247   3.163  0.6165  0.5857  0.5030
 8446TIP3   OH246752   5.126   6.256   1.134 -0.0892 -0.0140  0.5639
 8446TIP3    H146753   5.146   6.227   1.045 -1.3142 -1.6032  0.7430
 8446TIP3    H246754   5.110   6.174   1.182 -0.0434  0.8443  2.0915
 8447TIP3   OH246755   5.409   2.370   5.217 -0.0296  0.2637  0.1825
 8447TIP3    H146756   5.351   2.397   5.147 -1.1009 -0.8168  0.6245
 8447TIP3    H246757   5.473   2.313   5.175 -1.8177 -1.9799  0.3383
 8448TIP3   OH246758   0.602   5.229  15.211  0.0250  0.0641  0.2506
 8448TIP3    H146759   0.554   5.201  15.133  0.4217 -0.4112  0.1728
 8448TIP3    H246760   0.690   5.193  15.199 -0.0181 -0.3496  1.0962
 8449TIP3   OH246761   6.111   2.805  15.035  0.2495 -0.0233 -0.1768
 8449TIP3    H146762   6.097   2.783  14.943 -1.8814  1.2353 -0.2364
 8449TIP3    H246763   6.147   2.893  15.034 -0.3030  0.2164  0.1761
 8450TIP3   OH246764   2.064   6.652  13.268  0.2367  0.5409  0.0594
 8450TIP3    H146765   2.020   6.623  13.188 -0.0628  1.2655 -0.0497
 8450TIP3    H246766   2.139   6.594  13.276 -0.4980 -0.4524  0.0154
 8451TIP3   OH246767   1.382   3.918  16.502  0.6395  0.9216  0.2018
 8451TIP3    H146768   1.302   3.969  16.485 -0.3137  0.1497  2.0814
 8451TIP3    H246769   1.452   3.983  16.499 -0.4320  2.2172  1.5483
 8452TIP3   OH246770   4.591   6.631   1.703  0.5654 -0.4252  0.1374
 8452TIP3    H146771   4.523   6.657   1.766  2.1706  2.0120  1.0187
 8452TIP3    H246772   4.649   6.575   1.753  0.5648 -0.4308  0.1318
 8453TIP3   OH246773   3.328   1.707   5.177 -0.4291  0.3721 -0.3543
 8453TIP3    H146774   3.365   1.691   5.090  0.1541  1.1356 -0.2634
 8453TIP3    H246775   3.356   1.796   5.198  0.5181 -0.2479  1.1534
 8454TIP3   OH246776   6.577   3.240   2.769 -0.3581 -0.5139 -0.8097
 8454TIP3    H146777   6.519   3.295   2.821  0.4180 -1.0408  0.6889
 8454TIP3    H246778   6.519   3.188   2.713 -1.3163 -0.8142  0.4328
 8455TIP3   OH246779   1.937   4.249  11.612  0.6956  0.6544  0.1365
 8455TIP3    H146780   2.022   4.207  11.595 -1.2710 -3.0594 -1.7357
 8455TIP3    H246781   1.906   4.207  11.692 -0.0940  0.6312 -0.1775
 8456TIP3   OH246782   6.377   0.358   1.336  0.3254 -0.1287 -0.4079
 8456TIP3    H146783   6.463   0.344   1.377 -0.2535 -1.8204  0.3532
 8456TIP3    H246784   6.368   0.284   1.276 -0.4190  0.2739 -0.7955
 8457TIP3   OH246785   0.447   2.911   1.723 -0.0576 -0.7734 -0.2410
 8457TIP3    H146786   0.389   2.835   1.725 -0.7119 -0.2817  0.4844
 8457TIP3    H246787   0.503   2.901   1.800  0.2937 -0.8568 -0.5095
 8458TIP3   OH246788   2.605   0.923   3.339 -0.1147  0.5392 -0.5966
 8458TIP3    H146789   2.630   0.871   3.415  0.8027  0.5583 -0.8785
 8458TIP3    H246790   2.541   0.869   3.293  0.2475  0.0042 -0.4730
 8459TIP3   OH246791   0.988   4.698   1.393  0.2550  0.4390 -0.6240
 8459TIP3    H146792   1.039   4.739   1.323 -1.0461  0.0222 -1.8883
 8459TIP3    H246793   0.945   4.771   1.437  1.2106  0.7196 -0.1429
 8460TIP3   OH246794   3.998   6.020   3.262  0.1738 -0.6462  0.0038
 8460TIP3    H146795   3.946   6.093   3.295  0.8585 -0.4798  0.7534
 8460TIP3    H246796   4.079   6.060   3.232 -0.7816 -0.6547 -2.8789
 8461TIP3   OH246797   6.175   4.479  13.089  0.0708  0.3883 -0.0964
 8461TIP3    H146798   6.201   4.387  13.086  2.9397  1.0416  1.3945
 8461TIP3    H246799   6.223   4.520  13.017 -1.2612  0.7549 -0.8105
 8462TIP3   OH246800   0.733   2.632   5.678 -0.1784 -0.2327 -0.4601
 8462TIP3    H146801   0.661   2.658   5.620 -0.0117  3.7296  0.7808
 8462TIP3    H246802   0.689   2.608   5.760 -0.3286  3.2674  0.6799
 8463TIP3   OH246803   6.143   5.560   2.508 -0.3617  0.1691  0.3285
 8463TIP3    H146804   6.098   5.587   2.428  0.8623  2.5337  0.3464
 8463TIP3    H246805   6.230   5.533   2.478  0.0556  0.9355  0.8276
 8464TIP3   OH246806   3.831   2.482  15.643  0.1096 -0.6565  0.0503
 8464TIP3    H146807   3.901   2.435  15.688 -0.6560 -0.6228  1.3259
 8464TIP3    H246808   3.756   2.422  15.646 -0.2591 -0.2208 -0.2438
 8465TIP3   OH246809   5.171   0.902   3.946 -0.5082  0.0001 -0.3526
 8465TIP3    H146810   5.220   0.870   4.021  0.2886  2.4746  0.2728
 8465TIP3    H246811   5.083   0.920   3.980 -1.1446 -1.8911 -0.8453
 8466TIP3   OH246812   6.177   3.192   3.147  0.1219  0.1117  0.1813
 8466TIP3    H146813   6.200   3.115   3.095 -2.4653 -1.9273  1.8292
 8466TIP3    H246814   6.235   3.187   3.223  1.0474  0.7583 -0.4548
 8467TIP3   OH246815   4.032   3.783  14.886 -0.1513  0.2158  0.4261
 8467TIP3    H146816   4.018   3.721  14.814  0.5286  0.4551  0.0795
 8467TIP3    H246817   4.080   3.856  14.846  0.8275  0.0484  1.2596
 8468TIP3   OH246818   5.986   0.762   0.716 -0.3658 -0.7825 -0.1958
 8468TIP3    H146819   6.060   0.798   0.764 -0.6189 -1.1271  0.4618
 8468TIP3    H246820   5.979   0.672   0.748 -0.5934 -0.9907 -0.8164
 8469TIP3   OH246821   4.741   6.314   0.946  0.5827 -0.2036  0.8167
 8469TIP3    H146822   4.819   6.324   0.892 -0.5687  2.0056 -0.5807
 8469TIP3    H246823   4.731   6.219   0.956  0.7152 -0.8066 -3.1786
 8470TIP3   OH246824   2.791   6.768  15.898 -0.4775  0.2853 -0.2859
 8470TIP3    H146825   2.854   6.785  15.967  0.0469  0.4585 -0.8028
 8470TIP3    H246826   2.823   6.817  15.822 -0.5567 -0.6010 -0.9154
 8471TIP3   OH246827   4.463   4.530   6.787 -0.7220  0.1582 -0.2496
 8471TIP3    H146828   4.420   4.487   6.712 -0.6732  0.9782 -0.7623
 8471TIP3    H246829   4.416   4.612   6.798  0.5329  0.9654 -0.6632
 8472TIP3   OH246830   5.633   3.724   2.924 -0.1081  0.5488 -0.0233
 8472TIP3    H146831   5.680   3.644   2.899  0.5503  0.1573  2.2528
 8472TIP3    H246832   5.703   3.787   2.943 -0.4876  0.4945  1.7309
 8473TIP3   OH246833   5.551   5.253   3.884 -0.3994  0.6985 -0.2136
 8473TIP3    H146834   5.606   5.315   3.931 -1.0689  0.8627  0.3652
 8473TIP3    H246835   5.535   5.182   3.947  1.7775 -0.9734 -1.3871
 8474TIP3   OH246836   1.818   1.185  12.678  0.3297 -0.1897 -0.1742
 8474TIP3    H146837   1.761   1.145  12.613  0.4326  2.1294 -1.8443
 8474TIP3    H246838   1.759   1.231  12.737  0.3312 -0.2530 -0.1239
 8475TIP3   OH246839   5.774   6.207  15.905  0.0001 -0.6505 -0.0904
 8475TIP3    H146840   5.688   6.245  15.890  0.3702 -0.1363 -1.0357
 8475TIP3    H246841   5.836   6.275  15.879  0.7237 -0.5778  1.6556
 8476TIP3   OH246842   3.383   1.076   0.486  0.1014  0.1856 -0.3268
 8476TIP3    H146843   3.325   1.111   0.553 -2.3226  0.7302 -2.5808
 8476TIP3    H246844   3.452   1.141   0.477  0.8636 -0.1998  1.9964
 8477TIP3   OH246845   4.443   0.993  16.210  0.4477 -0.2052  0.4629
 8477TIP3    H146846   4.404   0.919  16.255 -1.9088  1.7859  2.0078
 8477TIP3    H246847   4.368   1.037  16.167  1.8096  1.0376 -0.7602
 8478TIP3   OH246848   6.133   5.253  14.887 -0.1884 -0.2947  0.2022
 8478TIP3    H146849   6.219   5.250  14.929 -0.3009 -1.2105  0.3969
 8478TIP3    H246850   6.076   5.296  14.950  0.1808  0.5842 -0.0473
 8479TIP3   OH246851   1.136   5.620  14.743 -0.1525 -0.1826 -0.1312
 8479TIP3    H146852   1.078   5.563  14.692 -1.3044  0.3360  0.5808
 8479TIP3    H246853   1.223   5.580  14.733 -0.6053 -0.9322 -1.2624
 8480TIP3   OH246854   0.590   2.437   2.492 -0.0716 -0.3837  0.4081
 8480TIP3    H146855   0.501   2.401   2.498 -0.2384  0.1485  1.4978
 8480TIP3    H246856   0.645   2.371   2.534  0.0161 -0.6214 -0.0831
 8481TIP3   OH246857   3.667   5.809   5.527 -0.0776  0.2262  0.0302
 8481TIP3    H146858   3.584   5.856   5.531 -0.1351  0.1319 -0.0617
 8481TIP3    H246859   3.705   5.833   5.443 -0.1828 -0.0200 -0.0888
 8482TIP3   OH246860   4.070   4.062   4.324 -0.2944  0.2879 -0.1257
 8482TIP3    H146861   4.004   4.107   4.377 -0.3605  0.6533 -0.5166
 8482TIP3    H246862   4.129   4.132   4.295 -0.9512  0.2845 -1.5584
 8483TIP3   OH246863   3.052   6.736  14.237 -0.3032  0.1469 -0.2167
 8483TIP3    H146864   3.026   6.648  14.208  2.0466 -0.6401 -0.1193
 8483TIP3    H246865   3.034   6.737  14.331  0.2071 -0.4597 -0.1070
 8484TIP3   OH246866   3.172   1.628   4.625  0.1642  0.3292  0.2662
 8484TIP3    H146867   3.263   1.629   4.657  0.1705  2.7676  0.3510
 8484TIP3    H246868   3.154   1.536   4.609  1.7400 -0.5245  2.8160
 8485TIP3   OH246869   4.170   0.355   1.483  0.0434  0.1051 -0.1103
 8485TIP3    H146870   4.134   0.283   1.535 -0.9686  0.3122 -0.5023
 8485TIP3    H246871   4.257   0.326   1.458 -0.4577 -1.1106 -0.5014
 8486TIP3   OH246872   0.684   5.036  10.768 -0.8565  0.1565 -0.4043
 8486TIP3    H146873   0.745   5.104  10.796 -2.3757  1.2043  0.4965
 8486TIP3    H246874   0.598   5.075  10.780 -1.7411 -1.5683 -0.8824
 8487TIP3   OH246875   6.305   4.097   5.344 -0.2107 -0.4341  0.1638
 8487TIP3    H146876   6.260   4.054   5.272  0.7514  0.1045 -0.7833
 8487TIP3    H246877   6.320   4.186   5.314 -1.5831  0.4295  1.8327
 8488TIP3   OH246878   3.118   5.013   5.081 -0.0654  0.3758 -0.4052
 8488TIP3    H146879   3.050   4.989   5.145  1.0129  1.1843  1.1098
 8488TIP3    H246880   3.069   5.037   5.002 -1.4432 -0.7105  0.0743
 8489TIP3   OH246881   4.727   6.712  10.851 -0.1425  0.3032  0.2779
 8489TIP3    H146882   4.794   6.673  10.907  0.4837  0.2445 -0.5069
 8489TIP3    H246883   4.705   6.643  10.789 -1.4361  0.0849  0.9435
 8490TIP3   OH246884   6.458   5.603  13.890 -0.2561 -0.2537  0.1763
 8490TIP3    H146885   6.465   5.599  13.986  0.1041  0.2507  0.1735
 8490TIP3    H246886   6.392   5.537  13.868  0.1752 -0.8658  0.7129
 8491TIP3   OH246887   0.874   5.164  12.376 -0.7184 -0.0155 -0.1805
 8491TIP3    H146888   0.841   5.243  12.420 -1.3521  0.3672 -1.3119
 8491TIP3    H246889   0.835   5.092  12.425 -1.9555  0.4154 -0.4877
 8492TIP3   OH246890   0.804   0.744   0.966  0.4473 -0.2766  0.1915
 8492TIP3    H146891   0.883   0.751   1.021  1.9923  0.8033 -2.0195
 8492TIP3    H246892   0.764   0.830   0.970 -0.0022 -0.4908  0.3988
 8493TIP3   OH246893   3.620   3.304   3.601  0.2069 -0.3728  0.2986
 8493TIP3    H146894   3.578   3.250   3.536 -0.0944 -0.7581  0.8070
 8493TIP3    H246895   3.582   3.276   3.684  0.2769  0.3962  0.5984
 8494TIP3   OH246896   2.252   5.756   0.207 -0.3622 -0.0816  0.6592
 8494TIP3    H146897   2.348   5.759   0.210 -0.3705  1.0587  0.2724
 8494TIP3    H246898   2.231   5.767   0.114 -0.8730 -0.4060  0.7329
 8495TIP3   OH246899   2.847   1.596   6.417  0.3936  0.1397 -0.1064
 8495TIP3    H146900   2.902   1.671   6.438  2.3935 -1.4360  0.5140
 8495TIP3    H246901   2.778   1.633   6.361  0.3432  2.7070  1.4546
 8496TIP3   OH246902   0.073   1.098   1.410 -0.0653  0.2344 -0.3164
 8496TIP3    H146903   0.029   1.014   1.396 -0.9162  0.9672 -2.4234
 8496TIP3    H246904   0.002   1.157   1.436  0.1691  0.7871 -0.9420
 8497TIP3   OH246905   4.937   6.406  12.812 -0.8547 -0.0190  0.4324
 8497TIP3    H146906   4.893   6.363  12.739 -1.2325 -1.3519  1.4031
 8497TIP3    H246907   4.866   6.452  12.859 -0.7448  0.1542  0.4324
 8498TIP3   OH246908   4.867   4.885   0.368 -0.0365 -0.7299 -0.0809
 8498TIP3    H146909   4.849   4.900   0.461 -1.1562 -1.8766 -0.0863
 8498TIP3    H246910   4.806   4.943   0.322  1.0048  0.3740 -0.1421
 8499TIP3   OH246911   5.841   4.345  17.099 -0.0699  0.3194 -0.1878
 8499TIP3    H146912   5.895   4.272  17.071  0.3186  0.4750  0.1456
 8499TIP3    H246913   5.755   4.306  17.118  0.4465 -0.2534  1.0829
 8500TIP3   OH246914   1.902   2.204   4.875 -0.3624  0.1672  0.0139
 8500TIP3    H146915   1.928   2.131   4.819 -0.5681  0.7962 -0.9302
 8500TIP3    H246916   1.879   2.274   4.814 -0.4068  0.9428  0.8945
 8501TIP3   OH246917   5.282   4.239  12.285 -0.0131 -0.5312  0.1463
 8501TIP3    H146918   5.217   4.276  12.225 -0.3701  0.8655  1.3347
 8501TIP3    H246919   5.366   4.250  12.240 -0.4023 -0.6939 -0.6308
 8502TIP3   OH246920   0.519   2.001  12.504  0.2146 -0.0051 -0.1453
 8502TIP3    H146921   0.469   1.989  12.423  0.2706  2.1275 -0.5594
 8502TIP3    H246922   0.482   1.937  12.565 -0.9941 -0.5005 -1.3428
 8503TIP3   OH246923   2.467   1.593   0.528 -0.2547  0.1703  0.3545
 8503TIP3    H146924   2.502   1.534   0.595  1.8094  1.5624  0.6075
 8503TIP3    H246925   2.421   1.660   0.579 -2.4952 -1.0813  0.0755
 8504TIP3   OH246926   0.671   2.162  12.118  0.4136 -0.0394  0.5265
 8504TIP3    H146927   0.596   2.116  12.157 -0.7438  0.8925 -0.5200
 8504TIP3    H246928   0.648   2.254  12.125  1.4858  0.2661  0.1743
 8505TIP3   OH246929   5.764   2.671  11.738 -0.3328 -0.2204  0.0296
 8505TIP3    H146930   5.778   2.578  11.752 -0.4397 -0.1847  0.3786
 8505TIP3    H246931   5.735   2.677  11.647  0.0219 -0.4888 -0.1024
 8506TIP3   OH246932   0.046   0.057   4.493 -0.1241 -0.1518  0.3796
 8506TIP3    H146933   0.015   0.093   4.576  0.6992  0.7715  0.3018
 8506TIP3    H246934   0.015  -0.033   4.493  0.2983 -0.3244  1.9225
 8507TIP3   OH246935   2.083   3.464  16.319  0.5586  0.1673 -0.8411
 8507TIP3    H146936   2.178   3.464  16.329  0.4535  1.1585  0.3333
 8507TIP3    H246937   2.062   3.550  16.285  0.0452  0.0674 -0.7877
 8508TIP3   OH246938   5.231   2.456   0.457 -0.1446  0.1150  0.5851
 8508TIP3    H146939   5.216   2.396   0.383  1.7615 -1.2467  1.2303
 8508TIP3    H246940   5.145   2.466   0.497 -0.4336 -2.9134  0.9473
 8509TIP3   OH246941   1.882   5.063  14.944  0.1169 -0.5705  0.1179
 8509TIP3    H146942   1.971   5.075  14.910  0.5214  0.9898  1.5968
 8509TIP3    H246943   1.863   4.970  14.930  1.4298 -0.6496 -1.4735
 8510TIP3   OH246944   6.146   3.090  15.173 -0.4190 -0.3039  0.1624
 8510TIP3    H146945   6.147   3.176  15.131 -0.3257  0.9139  2.4796
 8510TIP3    H246946   6.226   3.047  15.142  0.1898  0.9515 -0.0818
 8511TIP3   OH246947   0.323   3.825   0.258 -0.1402  0.6855 -0.2908
 8511TIP3    H146948   0.241   3.803   0.301 -0.4067  1.4231 -0.4144
 8511TIP3    H246949   0.349   3.744   0.214 -1.5314  0.8117 -1.4306
 8512TIP3   OH246950   1.221   4.365   5.212  0.1463 -0.4767 -0.4175
 8512TIP3    H146951   1.250   4.304   5.279 -2.7491 -0.0425  1.4145
 8512TIP3    H246952   1.186   4.308   5.142  1.9181 -0.8988 -1.0243
 8513TIP3   OH246953   0.338   3.350   3.765 -0.2135 -0.4331  0.4142
 8513TIP3    H146954   0.323   3.445   3.757 -1.8286 -0.8005 -2.1349
 8513TIP3    H246955   0.431   3.339   3.744  0.3495  0.6683  2.1389
 8514TIP3   OH246956   6.543   0.416   6.371  0.3211  0.2222  0.4830
 8514TIP3    H146957   6.453   0.441   6.351  0.1233 -0.3467  0.6147
 8514TIP3    H246958   6.541   0.320   6.373  1.5384  0.0159 -2.4157
 8515TIP3   OH246959   1.792   0.104   1.894 -0.0437  0.1784 -0.3609
 8515TIP3    H146960   1.819   0.014   1.912  0.8514  0.4632 -0.1995
 8515TIP3    H246961   1.818   0.152   1.973 -2.6659  0.1816  0.5820
 8516TIP3   OH246962   4.473   4.518  14.843 -0.4096 -0.4635  0.3443
 8516TIP3    H146963   4.516   4.588  14.794  0.5235 -0.4174  1.1833
 8516TIP3    H246964   4.409   4.563  14.898 -1.1589 -0.4730 -0.5110
 8517TIP3   OH246965   0.582   1.022  15.041 -0.2069  0.3943  0.9615
 8517TIP3    H146966   0.589   1.033  14.946  1.4394  0.5856  1.0700
 8517TIP3    H246967   0.574   1.110  15.076  0.7445  0.4480  1.0762
 8518TIP3   OH246968   6.727   0.248   2.213  0.0839 -0.1808  0.6927
 8518TIP3    H146969   6.712   0.303   2.136 -0.3572 -1.2057  0.0320
 8518TIP3    H246970   6.738   0.310   2.285 -2.0170  0.7516  0.2685
 8519TIP3   OH246971   4.015   3.903   0.692  0.1315 -0.3580 -0.3097
 8519TIP3    H146972   4.025   3.998   0.684 -1.9898 -0.0985 -0.3621
 8519TIP3    H246973   3.978   3.890   0.780  3.4889 -1.4694  1.0961
 8520TIP3   OH246974   4.656   6.586  15.225  0.3627  0.4533  0.1335
 8520TIP3    H146975   4.660   6.665  15.171 -0.9873  0.5011  0.0873
 8520TIP3    H246976   4.667   6.618  15.315 -1.3224  0.8554  0.2222
 8521TIP3   OH246977   4.316   4.625   3.307  0.0946 -0.1806 -0.7180
 8521TIP3    H146978   4.344   4.559   3.371 -3.3631  0.2964  1.5869
 8521TIP3    H246979   4.241   4.584   3.263 -1.5296  1.7216  0.0962
 8522TIP3   OH246980   4.407   3.160  10.788 -0.6466 -0.1000  0.2555
 8522TIP3    H146981   4.323   3.152  10.833 -1.0101  1.0493 -0.1795
 8522TIP3    H246982   4.406   3.248  10.751  0.4540 -0.3294 -0.3665
 8523TIP3   OH246983   6.376   6.243  14.484 -0.3044  0.5784  0.0591
 8523TIP3    H146984   6.363   6.164  14.536 -2.2609  1.1536  0.5526
 8523TIP3    H246985   6.328   6.227  14.402  0.0830  0.8853 -0.2333
 8524TIP3   OH246986   1.282   5.384  12.923 -0.0312  0.2501 -0.0142
 8524TIP3    H146987   1.321   5.461  12.883 -0.5271  0.3619 -0.2831
 8524TIP3    H246988   1.187   5.394  12.910 -0.1779  0.1125  0.8558
 8525TIP3   OH246989   5.325   1.695   2.263 -0.1137 -0.7301  0.3654
 8525TIP3    H146990   5.350   1.787   2.269 -0.5395 -0.5389 -0.5062
 8525TIP3    H246991   5.347   1.658   2.348  0.7360  0.0083  0.4802
 8526TIP3   OH246992   6.595   5.548   0.493  0.2895 -0.3285 -0.2058
 8526TIP3    H146993   6.592   5.473   0.434 -0.0316  0.6327 -1.4422
 8526TIP3    H246994   6.667   5.602   0.459 -2.0833  1.9772 -1.9585
 8527TIP3   OH246995   2.169   5.592   0.860 -0.1061 -0.3166  0.3702
 8527TIP3    H146996   2.177   5.678   0.901  0.0382 -1.0708  2.0147
 8527TIP3    H246997   2.260   5.562   0.850 -0.1225 -0.0301 -0.8107
 8528TIP3   OH246998   2.107   2.050  13.035 -0.1331  0.1908 -0.2573
 8528TIP3    H146999   2.157   2.091  13.106 -0.0412  0.4260 -0.4568
 8528TIP3    H247000   2.161   1.976  13.007  1.3936  1.9139 -2.2061
 8529TIP3   OH247001   1.477   2.988   5.984  0.3392  0.3970 -0.4216
 8529TIP3    H147002   1.532   2.990   5.906 -0.7377  2.1595 -1.2168
 8529TIP3    H247003   1.462   3.080   6.005 -1.4350 -0.0200  0.3636
 8530TIP3   OH247004   1.002   3.532   5.594 -0.3923 -0.8031  0.3859
 8530TIP3    H147005   1.038   3.620   5.604 -0.2975 -0.8564  0.5156
 8530TIP3    H247006   1.076   3.473   5.610 -0.9567 -0.9747  2.7234
 8531TIP3   OH247007   5.074   5.375  13.855 -0.2504  0.1661  0.5098
 8531TIP3    H147008   5.030   5.290  13.846 -0.8256  0.3845  1.1879
 8531TIP3    H247009   5.008   5.432  13.892  0.2180  0.8530  0.2999
 8532TIP3   OH247010   4.752   5.317  12.073 -0.0903  0.5488 -0.1151
 8532TIP3    H147011   4.693   5.382  12.036  1.6512  2.1650 -0.2285
 8532TIP3    H247012   4.800   5.364  12.141  2.8625  0.1528 -1.7360
 8533TIP3   OH247013   6.377   3.782  11.231 -0.3135  0.2038  0.4455
 8533TIP3    H147014   6.333   3.866  11.248 -1.8583  0.1081 -2.4469
 8533TIP3    H247015   6.312   3.716  11.256 -0.2906 -0.0454 -0.1478
 8534TIP3   OH247016   0.764   6.582  12.793 -0.2654 -0.6756  0.2567
 8534TIP3    H147017   0.689   6.537  12.755  1.0068 -2.3385 -0.4196
 8534TIP3    H247018   0.821   6.601  12.719 -0.2196  1.0530  0.6874
 8535TIP3   OH247019   4.084   5.669   0.947 -0.0224 -0.2171  0.2877
 8535TIP3    H147020   4.027   5.734   0.987 -0.1513 -0.5261  0.5997
 8535TIP3    H247021   4.161   5.719   0.919 -0.3113  0.1441  0.1327
 8536TIP3   OH247022   3.613   2.602  14.366 -0.9209 -0.0954  0.4520
 8536TIP3    H147023   3.645   2.654  14.440  1.0592 -0.6000  0.0108
 8536TIP3    H247024   3.650   2.645  14.289 -0.9733 -0.9730 -0.0699
 8537TIP3   OH247025   0.725   4.901  11.455 -0.3052  0.0352  0.2605
 8537TIP3    H147026   0.630   4.885  11.458 -0.2187 -0.3624  1.7880
 8537TIP3    H247027   0.734   4.984  11.408 -1.3864 -0.0561 -0.1413
 8538TIP3   OH247028   1.239   4.471   4.391  0.2488 -0.4066 -0.4682
 8538TIP3    H147029   1.235   4.542   4.328  0.9481 -0.2380 -0.3334
 8538TIP3    H247030   1.149   4.459   4.420  0.0357  0.0020 -0.9571
 8539TIP3   OH247031   6.735   5.089  13.679  0.2282  0.0939  0.7019
 8539TIP3    H147032   6.755   5.034  13.755  0.3030  1.5571  1.7902
 8539TIP3    H247033   6.679   5.158  13.714  0.1465  0.7298 -0.6186
 8540TIP3   OH247034   5.148   0.224   0.660  0.2332  0.0862 -0.1596
 8540TIP3    H147035   5.204   0.161   0.615  1.2675  1.1253 -0.3765
 8540TIP3    H247036   5.209   0.280   0.709 -0.5387  1.7290 -1.0056
 8541TIP3   OH247037   6.612   5.694   2.393  0.0318  0.0509 -0.2777
 8541TIP3    H147038   6.540   5.751   2.365  0.2886 -0.1281 -1.3618
 8541TIP3    H247039   6.610   5.620   2.332  1.2296  0.1318 -0.4510
 8542TIP3   OH247040   1.518   0.785   5.280 -0.3454  0.1883  0.1624
 8542TIP3    H147041   1.500   0.745   5.365 -0.0102  1.1963  0.7179
 8542TIP3    H247042   1.587   0.848   5.296 -1.2567  1.4155 -0.5718
 8543TIP3   OH247043   5.536   3.500   2.140 -0.0769  0.0237  0.4132
 8543TIP3    H147044   5.573   3.584   2.111 -0.4662 -0.2737 -1.0297
 8543TIP3    H247045   5.483   3.522   2.216  1.5691  0.7428  1.4158
 8544TIP3   OH247046   4.719   4.199  14.958 -0.0771  0.1846  0.0193
 8544TIP3    H147047   4.700   4.289  14.983  0.4858 -0.4137  2.9333
 8544TIP3    H247048   4.800   4.177  15.004 -0.1954 -1.8077 -0.6116
 8545TIP3   OH247049   3.140   2.313  12.466 -0.1624  0.4337 -0.5451
 8545TIP3    H147050   3.196   2.389  12.482 -0.1539  0.3674 -0.2522
 8545TIP3    H247051   3.116   2.282  12.554 -1.6363  1.1878 -0.6506
 8546TIP3   OH247052   1.163   6.683   3.356 -0.3775 -0.0148  0.0502
 8546TIP3    H147053   1.128   6.718   3.437 -1.8140  2.6218 -1.5660
 8546TIP3    H247054   1.255   6.665   3.375 -1.0276 -0.9697  2.6198
 8547TIP3   OH247055   2.478   5.472  16.901 -1.3267 -0.1319  0.1689
 8547TIP3    H147056   2.435   5.501  16.821 -1.9135 -2.1987 -0.3307
 8547TIP3    H247057   2.445   5.531  16.969 -0.0995  2.2802 -1.1751
 8548TIP3   OH247058   0.125   5.509   3.130  0.3104 -0.0513  0.0362
 8548TIP3    H147059   0.053   5.455   3.098  1.2880  0.0998 -2.6343
 8548TIP3    H247060   0.086   5.596   3.144 -1.0467 -1.0355  3.4362
 8549TIP3   OH247061   3.197   1.053   4.372  0.2845  0.2979  0.2652
 8549TIP3    H147062   3.259   1.005   4.428  0.4454 -1.7130 -1.4991
 8549TIP3    H247063   3.252   1.112   4.321  0.3552  0.7987  0.9119
 8550TIP3   OH247064   1.570   1.791   0.747 -0.3356  0.4267  0.2152
 8550TIP3    H147065   1.623   1.849   0.802 -1.4213  2.0481 -0.3787
 8550TIP3    H247066   1.603   1.806   0.658  0.1553 -0.7841  0.1696
 8551TIP3   OH247067   4.875   6.214  13.037 -0.0853 -0.0500  0.0170
 8551TIP3    H147068   4.900   6.271  12.964 -1.9819 -0.4085 -0.9739
 8551TIP3    H247069   4.851   6.274  13.108 -0.4738  0.3586 -0.4535
 8552TIP3   OH247070   6.626   0.703  10.494 -0.3893  0.2857 -0.3719
 8552TIP3    H147071   6.601   0.796  10.501 -1.5481  0.1122 -1.7104
 8552TIP3    H247072   6.717   0.705  10.466 -1.0988  1.1387 -2.9746
 8553TIP3   OH247073   5.484   3.503  16.952  0.2903  0.5600 -0.4755
 8553TIP3    H147074   5.464   3.526  16.861  0.2664 -0.7866 -0.8238
 8553TIP3    H247075   5.423   3.433  16.974 -0.4310  1.5802  0.9619
 8554TIP3   OH247076   3.456   4.536   2.262  0.0302  0.4129  0.1830
 8554TIP3    H147077   3.434   4.451   2.300  1.0130  0.3720  0.7138
 8554TIP3    H247078   3.390   4.551   2.195  1.0048 -1.7360 -1.3568
 8555TIP3   OH247079   4.622   4.609   2.436 -0.4337  0.0359 -0.2190
 8555TIP3    H147080   4.607   4.682   2.377 -0.9666  1.4408  1.5739
 8555TIP3    H247081   4.700   4.633   2.486 -0.7739 -0.4732  0.5897
 8556TIP3   OH247082   4.842   6.057  15.122  0.0346 -0.5181 -0.1708
 8556TIP3    H147083   4.918   6.044  15.065 -0.2421 -0.5355 -0.5408
 8556TIP3    H247084   4.847   5.986  15.186 -1.6142 -2.7244 -2.3192
 8557TIP3   OH247085   4.025   6.496   1.229  0.1989  0.7400 -0.3328
 8557TIP3    H147086   4.049   6.488   1.322 -1.3108  0.1587  0.0437
 8557TIP3    H247087   3.983   6.582   1.223 -0.2002  0.5474 -0.3437
 8558TIP3   OH247088   2.032   1.756  15.279 -0.4032 -0.0737 -0.7638
 8558TIP3    H147089   1.940   1.762  15.253 -0.5846  2.3108  0.1829
 8558TIP3    H247090   2.080   1.800  15.209  0.1604 -1.9216 -1.6080
 8559TIP3   OH247091   2.968   3.162  11.416  0.4031  0.0770 -0.7871
 8559TIP3    H147092   3.032   3.211  11.365  0.2359 -0.2859 -1.3590
 8559TIP3    H247093   3.015   3.082  11.443  1.0044  0.9766  1.0128
 8560TIP3   OH247094   2.111   0.042   0.590  0.0808 -0.0068  0.1492
 8560TIP3    H147095   2.043   0.055   0.656 -1.2374  0.7724 -1.2965
 8560TIP3    H247096   2.189   0.084   0.627 -1.0776  1.9380  0.5305
 8561TIP3   OH247097   1.723   0.742  17.249  0.2675  0.3352 -0.0019
 8561TIP3    H147098   1.634   0.707  17.254  0.4626 -0.0335  1.0830
 8561TIP3    H247099   1.712   0.828  17.209 -0.5632  0.2373 -0.0121
 8562TIP3   OH247100   1.326   3.448   0.527  0.3337  0.0435  0.1322
 8562TIP3    H147101   1.320   3.355   0.549  0.8332  0.4327  2.0947
 8562TIP3    H247102   1.238   3.470   0.496  0.3073 -1.1395 -0.7242
 8563TIP3   OH247103   3.948   5.452   0.379  0.7576 -0.3871  0.3990
 8563TIP3    H147104   3.953   5.426   0.471 -0.9338 -0.5802  0.4808
 8563TIP3    H247105   3.855   5.472   0.366  1.1201  0.4105 -1.0644
 8564TIP3   OH247106   4.487   4.620  13.717 -0.2158 -0.1258 -1.3594
 8564TIP3    H147107   4.525   4.532  13.716  0.4145  0.1520 -2.4241
 8564TIP3    H247108   4.431   4.620  13.796  1.5720 -0.7006 -0.0266
 8565TIP3   OH247109   0.366   3.746  14.762  0.3068  0.3621 -0.1127
 8565TIP3    H147110   0.439   3.729  14.821  0.9591  0.0812 -0.9616
 8565TIP3    H247111   0.321   3.662  14.755 -1.4467  1.0461  2.1095
 8566TIP3   OH247112   4.952   1.107  12.920 -0.2500  0.2487 -1.2404
 8566TIP3    H147113   4.930   1.023  12.878  1.8947  0.3765 -2.7626
 8566TIP3    H247114   4.942   1.090  13.013  1.8727 -2.3287 -1.3662
 8567TIP3   OH247115   0.527   6.192  16.125  0.2242 -0.3969  0.6216
 8567TIP3    H147116   0.564   6.270  16.084  1.0684  0.1995  2.3827
 8567TIP3    H247117   0.442   6.219  16.158 -0.7558 -1.0674 -1.2642
 8568TIP3   OH247118   4.374   5.496  12.310  0.1761 -0.0399  0.3631
 8568TIP3    H147119   4.291   5.499  12.262 -0.5491 -0.8667  1.5121
 8568TIP3    H247120   4.377   5.578  12.358 -0.0082 -0.0374  0.3714
 8569TIP3   OH247121   4.353   6.459   3.789  0.3346  0.0573  0.1111
 8569TIP3    H147122   4.379   6.400   3.860  1.8239 -0.9619 -1.2126
 8569TIP3    H247123   4.392   6.544   3.813  0.7341 -0.2473  0.5634
 8570TIP3   OH247124   3.126   2.740  13.140  0.1279  0.2432 -0.3243
 8570TIP3    H147125   3.031   2.743  13.154  0.0008  1.8913 -1.1946
 8570TIP3    H247126   3.163   2.741  13.228 -0.6628 -0.1195  0.0231
 8571TIP3   OH247127   1.569   0.944  12.808 -0.5148 -0.4376 -0.3273
 8571TIP3    H147128   1.566   1.017  12.745  0.1392  1.1419  1.3721
 8571TIP3    H247129   1.556   0.985  12.893  0.3128 -2.2678  0.7427
 8572TIP3   OH247130   1.736   5.579   3.466 -0.0252 -0.2446  0.4096
 8572TIP3    H147131   1.823   5.572   3.426 -0.3559 -1.3143 -0.1551
 8572TIP3    H247132   1.680   5.611   3.395 -0.1360  0.2771  0.7259
 8573TIP3   OH247133   1.061   0.787   5.887 -0.8376  0.1094  0.7191
 8573TIP3    H147134   1.056   0.799   5.982 -1.7667 -1.2929  0.8664
 8573TIP3    H247135   0.970   0.782   5.858 -0.5609 -1.0287 -0.0325
 8574TIP3   OH247136   2.348   5.016  15.104 -0.5548  0.1998 -0.0133
 8574TIP3    H147137   2.432   5.061  15.106 -0.5152  0.1580 -0.6568
 8574TIP3    H247138   2.340   4.976  15.191  0.6772 -0.8705 -0.3674
 8575TIP3   OH247139   3.787   2.760  15.931 -0.6730 -0.0425 -0.1604
 8575TIP3    H147140   3.820   2.764  15.841  0.1769 -0.4391  0.1312
 8575TIP3    H247141   3.865   2.756  15.986 -1.1861  0.0840  0.5994
 8576TIP3   OH247142   3.970   4.096  16.969 -0.0932 -0.4001  0.6014
 8576TIP3    H147143   3.979   4.094  17.064 -1.2898 -1.8113  0.7122
 8576TIP3    H247144   3.973   4.004  16.942  1.8167  0.0245 -0.9317
 8577TIP3   OH247145   3.317   4.926   5.522  0.6753 -0.1368  0.8226
 8577TIP3    H147146   3.301   4.902   5.613  0.0448  2.4604  1.4854
 8577TIP3    H247147   3.230   4.943   5.485  0.9649 -0.5151 -0.0650
 8578TIP3   OH247148   0.230   2.429  11.660 -0.0217  0.1249  0.1830
 8578TIP3    H147149   0.152   2.386  11.625  0.2847 -0.0966 -0.2309
 8578TIP3    H247150   0.196   2.497  11.718 -0.5151 -0.3478  0.4482
 8579TIP3   OH247151   4.886   6.054  11.789 -0.6446  0.0956  0.3522
 8579TIP3    H147152   4.840   5.979  11.751  0.9490  0.0708 -1.7017
 8579TIP3    H247153   4.869   6.047  11.883 -2.7928 -1.2427 -0.0545
 8580TIP3   OH247154   4.354   6.503   1.616  0.6388 -0.0027  0.3775
 8580TIP3    H147155   4.408   6.433   1.580  2.2185 -0.5535  3.4483
 8580TIP3    H247156   4.410   6.581   1.614 -0.6708  0.9687 -1.8833
 8581TIP3   OH247157   4.485   1.545   5.827  0.1307 -0.0912 -0.1229
 8581TIP3    H147158   4.427   1.603   5.778 -1.4234 -1.1096  0.4433
 8581TIP3    H247159   4.463   1.561   5.919  0.5106 -0.7419  0.0900
 8582TIP3   OH247160   1.380   0.225  11.500  0.2962 -0.2695  0.0320
 8582TIP3    H147161   1.366   0.212  11.594 -0.3171 -0.2584 -0.0565
 8582TIP3    H247162   1.309   0.177  11.458  1.1959 -1.2064 -0.4713
 8583TIP3   OH247163   1.196   0.936  12.780  0.3837 -0.4740  0.3492
 8583TIP3    H147164   1.204   1.030  12.797 -0.7352 -0.7206  2.6443
 8583TIP3    H247165   1.103   0.918  12.786  0.6208 -1.8182  0.4060
 8584TIP3   OH247166   0.961   2.905  15.936 -0.1307  0.2882 -0.4868
 8584TIP3    H147167   1.039   2.942  15.894 -1.0279  1.9654 -0.7549
 8584TIP3    H247168   0.893   2.909  15.869  0.0793 -3.7371 -1.2370
 8585TIP3   OH247169   6.007   4.591   0.616  0.1524 -0.3850 -0.1083
 8585TIP3    H147170   5.986   4.625   0.529  0.0400 -1.5097 -0.5394
 8585TIP3    H247171   6.045   4.504   0.599 -1.1650 -1.2225  1.0144
 8586TIP3   OH247172   4.515   4.968   4.085 -0.4512 -0.5843 -0.0919
 8586TIP3    H147173   4.532   5.056   4.120  0.8613  0.3219 -2.7135
 8586TIP3    H247174   4.426   4.972   4.050 -0.3276 -0.1934 -0.3753
 8587TIP3   OH247175   4.363   5.483  14.350 -0.2301 -0.1964 -0.6399
 8587TIP3    H147176   4.307   5.558  14.332 -3.6934 -2.2666  0.5639
 8587TIP3    H247177   4.365   5.478  14.446 -1.2151 -2.3157 -0.6776
 8588TIP3   OH247178   4.200   1.707  14.490  0.2272 -0.4115  0.3512
 8588TIP3    H147179   4.281   1.698  14.541  2.0941 -0.9673 -2.4596
 8588TIP3    H247180   4.170   1.797  14.507  2.1076  0.2145  0.5581
 8589TIP3   OH247181   0.688   1.224  12.501  0.4001  0.2745 -0.1324
 8589TIP3    H147182   0.713   1.292  12.565 -0.9854  1.1408 -0.4506
 8589TIP3    H247183   0.742   1.149  12.523  1.6067  1.3150  0.5825
 8590TIP3   OH247184   4.817   1.976   4.738 -0.0801  0.2183  0.0810
 8590TIP3    H147185   4.803   1.988   4.644 -1.2805  0.7425  0.3108
 8590TIP3    H247186   4.833   1.882   4.747 -1.0664 -0.0353 -0.5393
 8591TIP3   OH247187   5.401   4.069  16.938 -0.5554  0.6333 -0.2811
 8591TIP3    H147188   5.370   4.093  16.851 -0.4036  2.1902  0.0667
 8591TIP3    H247189   5.400   4.151  16.988 -1.7030 -0.4028  1.5157
 8592TIP3   OH247190   6.547   5.321   1.535 -0.0421 -0.1933  0.4554
 8592TIP3    H147191   6.628   5.350   1.577  0.8038 -0.8495 -0.6537
 8592TIP3    H247192   6.502   5.402   1.512 -1.5832  0.2861  4.3703
 8593TIP3   OH247193   1.701   4.460  13.271 -0.0342  0.1047  0.1627
 8593TIP3    H147194   1.631   4.438  13.209  2.9453 -1.4936 -2.9360
 8593TIP3    H247195   1.715   4.554  13.259 -0.6320  0.1503 -0.2428
 8594TIP3   OH247196   5.833   0.668  13.212 -0.1774 -0.5985 -0.0789
 8594TIP3    H147197   5.927   0.684  13.212 -0.3122  0.6090  2.1314
 8594TIP3    H247198   5.806   0.686  13.121  1.5713 -0.0787 -0.5363
 8595TIP3   OH247199   1.444   3.037   2.349 -0.0995  0.9576 -0.6280
 8595TIP3    H147200   1.367   3.086   2.319 -0.6343  0.7647  0.3947
 8595TIP3    H247201   1.484   3.094   2.415  0.5617  0.9902 -1.0454
 8596TIP3   OH247202   5.515   2.182  13.106 -0.0447  0.1277 -0.3673
 8596TIP3    H147203   5.469   2.222  13.180  0.9864  0.6859 -0.0073
 8596TIP3    H247204   5.556   2.104  13.142  0.3756  0.3441 -0.3780
 8597TIP3   OH247205   3.883   1.827  16.558  0.1041 -0.7033 -0.3298
 8597TIP3    H147206   3.787   1.831  16.554  0.0394  2.8423  1.1465
 8597TIP3    H247207   3.909   1.909  16.600  3.8628 -1.3145 -1.0824
 8598TIP3   OH247208   0.669   2.225  15.014  0.6248  0.4032  0.4005
 8598TIP3    H147209   0.628   2.261  14.936  0.3205  0.9904  0.8229
 8598TIP3    H247210   0.762   2.216  14.991  0.6937  1.3781  0.2514
 8599TIP3   OH247211   5.889   0.667   4.944 -0.3934 -0.0887  0.5078
 8599TIP3    H147212   5.897   0.738   5.008  1.8394  1.3602 -1.2437
 8599TIP3    H247213   5.844   0.706   4.870  1.0036 -0.4062 -0.5502
 8600TIP3   OH247214   2.532   4.943   2.810  0.4632  0.0316  0.8418
 8600TIP3    H147215   2.591   4.919   2.881  0.0681  1.8020  1.8328
 8600TIP3    H247216   2.454   4.889   2.823  1.5381 -1.8629 -0.1046
 8601TIP3   OH247217   6.465   6.456  16.197  0.2296 -0.2782 -0.4907
 8601TIP3    H147218   6.406   6.500  16.259  0.4325  0.8069 -1.0325
 8601TIP3    H247219   6.513   6.393  16.249 -2.5330 -2.3855 -0.2907
 8602TIP3   OH247220   3.337   1.513  14.306  0.6244 -0.0044  0.1556
 8602TIP3    H147221   3.312   1.467  14.226 -0.0617 -0.4693  0.6249
 8602TIP3    H247222   3.390   1.451  14.355 -0.6494 -0.4808  0.9814
 8603TIP3   OH247223   4.466   0.272  11.445 -0.1368  0.1110  0.1141
 8603TIP3    H147224   4.548   0.297  11.487 -0.9167  2.8964  0.1523
 8603TIP3    H247225   4.443   0.188  11.485  2.6266 -0.7503  0.1158
 8604TIP3   OH247226   6.547   0.025  10.900  0.3205 -0.1983 -0.5251
 8604TIP3    H147227   6.493   0.103  10.897  1.5154  0.6703 -0.0659
 8604TIP3    H247228   6.540  -0.013  10.812  0.0293  0.6254 -0.8634
 8605TIP3   OH247229   3.171   0.621  16.188 -0.0594 -0.0310  0.3067
 8605TIP3    H147230   3.087   0.631  16.144 -0.6334  0.5165  1.4953
 8605TIP3    H247231   3.235   0.616  16.116 -1.0046  0.3603 -0.5878
 8606TIP3   OH247232   2.234   5.283  16.743  0.0971 -0.3158  1.0687
 8606TIP3    H147233   2.248   5.188  16.738 -1.3381 -0.4851 -1.7215
 8606TIP3    H247234   2.295   5.319  16.679 -1.9622  0.1861 -0.7525
 8607TIP3   OH247235   2.999   2.829  14.390  0.4877 -0.2141  0.3783
 8607TIP3    H147236   3.078   2.862  14.347  0.8362 -1.6901 -0.1751
 8607TIP3    H247237   3.020   2.738  14.412 -0.7222 -0.3377  1.0978
 8608TIP3   OH247238   0.606   6.251   1.805  0.1179  0.3273 -0.2334
 8608TIP3    H147239   0.665   6.316   1.766  0.0485  1.8712  2.0325
 8608TIP3    H247240   0.521   6.294   1.807 -1.1896 -1.7973 -3.2756
 8609TIP3   OH247241   3.542   5.156  16.137  0.1309  0.2716  0.0065
 8609TIP3    H147242   3.489   5.102  16.197 -0.3242  0.2765 -0.3855
 8609TIP3    H247243   3.625   5.109  16.130  0.6936  0.9581  1.6826
 8610TIP3   OH247244   6.436   3.380   5.681 -0.2489 -0.1067 -0.3511
 8610TIP3    H147245   6.501   3.310   5.683  0.0756  0.2070  1.1477
 8610TIP3    H247246   6.352   3.336   5.692 -0.0972 -0.3151 -0.0248
 8611TIP3   OH247247   3.034   2.466  16.648 -0.1613  0.2685  0.1596
 8611TIP3    H147248   3.080   2.413  16.583 -0.2423 -0.7161  0.8862
 8611TIP3    H247249   3.080   2.551  16.646  2.4082 -0.9538  1.5189
 8612TIP3   OH247250   6.506   5.092   2.159 -0.2237  0.5067  0.1653
 8612TIP3    H147251   6.534   5.076   2.249  3.1690  2.0139 -0.4800
 8612TIP3    H247252   6.543   5.019   2.109 -1.0725  0.3095 -0.1977
 8613TIP3   OH247253   0.054   5.263  11.341  0.0264  0.1063 -0.0440
 8613TIP3    H147254   0.000   5.338  11.317  0.9785  0.8721  0.1706
 8613TIP3    H247255   0.083   5.226  11.258  3.7725  3.0693 -0.3241
 8614TIP3   OH247256   6.746   0.761   5.723 -0.1323 -0.1035 -0.5063
 8614TIP3    H147257   6.778   0.680   5.683  0.9638  0.6676 -1.2345
 8614TIP3    H247258   6.822   0.799   5.765 -0.9607 -0.1711  1.1349
 8615TIP3   OH247259   4.033   2.636   5.395  0.2193  0.1211 -0.1986
 8615TIP3    H147260   4.037   2.540   5.395 -1.6157 -0.0674 -2.4102
 8615TIP3    H247261   4.121   2.664   5.370  0.3439 -1.1055 -1.2700
 8616TIP3   OH247262   4.015   1.734   4.418  0.4416 -0.0736  0.6798
 8616TIP3    H147263   3.961   1.741   4.340  1.4027 -0.9899 -0.0946
 8616TIP3    H247264   3.956   1.757   4.490 -0.7253 -0.1782 -0.2163
 8617TIP3   OH247265   4.392   1.045  12.727 -0.0567 -0.0327  0.2356
 8617TIP3    H147266   4.485   1.046  12.706 -0.2344  0.4034 -0.5955
 8617TIP3    H247267   4.354   1.113  12.671 -0.8253  0.0104  0.7889
 8618TIP3   OH247268   2.362   4.165  12.700  0.2344 -0.4943 -0.0728
 8618TIP3    H147269   2.425   4.220  12.653  0.1918 -1.1687 -0.9312
 8618TIP3    H247270   2.278   4.182  12.658  0.3178 -1.6309 -0.7283
 8619TIP3   OH247271   0.534   5.724  11.255  0.5802 -0.2056  0.5149
 8619TIP3    H147272   0.514   5.648  11.310  0.9557  0.1875  1.2156
 8619TIP3    H247273   0.565   5.687  11.173  0.0735 -0.8120  0.5908
 8620TIP3   OH247274   4.435   4.802   3.752 -0.1778 -0.2449 -0.5373
 8620TIP3    H147275   4.527   4.790   3.777 -0.3683 -0.2988  0.1640
 8620TIP3    H247276   4.439   4.855   3.672  0.4786 -0.6559 -0.7865
 8621TIP3   OH247277   2.513   1.168  12.816 -0.8150  0.2182  0.5463
 8621TIP3    H147278   2.559   1.247  12.844 -0.6563  0.3165  0.0132
 8621TIP3    H247279   2.421   1.195  12.810 -0.6885  0.5123 -0.1592
 8622TIP3   OH247280   4.817   6.627   5.672  0.7761  0.1196  0.1897
 8622TIP3    H147281   4.886   6.694   5.667  0.3310  0.5609 -0.1060
 8622TIP3    H247282   4.784   6.620   5.583  1.2075 -0.9264  0.0990
 8623TIP3   OH247283   5.110   5.177   0.462 -0.1250 -0.1180 -0.2964
 8623TIP3    H147284   5.119   5.130   0.544  1.7430  0.4032 -0.1430
 8623TIP3    H247285   5.017   5.199   0.456 -0.6464 -1.8992  0.6678
 8624TIP3   OH247286   1.654   3.836  15.069 -0.0939  0.2438  0.3287
 8624TIP3    H147287   1.745   3.864  15.081  0.4992 -1.2022 -0.5244
 8624TIP3    H247288   1.633   3.863  14.980  0.8706 -2.7772 -0.9533
 8625TIP3   OH247289   2.940   6.569  13.008  0.4319 -0.5312 -0.4035
 8625TIP3    H147290   3.027   6.569  13.049 -0.4123 -0.2781  1.5193
 8625TIP3    H247291   2.938   6.489  12.956  1.1692 -1.5583  1.0768
 8626TIP3   OH247292   3.863   6.345  14.180  0.2739 -0.5060 -0.4112
 8626TIP3    H147293   3.783   6.308  14.218  0.2215  0.4877  0.4976
 8626TIP3    H247294   3.934   6.294  14.218  0.0775 -1.4474 -1.2858
 8627TIP3   OH247295   4.582   0.410  13.060  0.1037 -0.2235  0.2775
 8627TIP3    H147296   4.674   0.396  13.083  0.1471  0.7983  0.8073
 8627TIP3    H247297   4.538   0.329  13.085  1.1149 -1.4240 -1.5790
 8628TIP3   OH247298   2.692   1.238  13.225  0.4766 -0.0348  0.1555
 8628TIP3    H147299   2.615   1.232  13.282 -0.2240 -0.0890 -0.7680
 8628TIP3    H247300   2.689   1.327  13.190  1.1936  0.1674  0.5878
 8629TIP3   OH247301   4.339   4.778   1.031 -0.3138 -0.5311  0.9506
 8629TIP3    H147302   4.386   4.704   1.070 -1.3244 -1.3955  0.6090
 8629TIP3    H247303   4.268   4.736   0.980  1.1067  0.4573 -2.0886
 8630TIP3   OH247304   5.140   5.153  10.519 -0.0814  0.2325 -0.3897
 8630TIP3    H147305   5.177   5.097  10.588 -0.7706  0.8664  0.5092
 8630TIP3    H247306   5.216   5.184  10.471  0.5932  1.3846  1.3327
 8631TIP3   OH247307   2.695   6.342  14.004  0.1942 -0.2745 -0.0323
 8631TIP3    H147308   2.607   6.324  14.037 -0.1267  1.9406  0.5033
 8631TIP3    H247309   2.681   6.400  13.929  1.1899  0.5796  0.4134
 8632TIP3   OH247310   5.032   5.040  16.856 -0.0765  0.3876  0.5830
 8632TIP3    H147311   5.010   5.129  16.883  1.0567  1.2825 -1.2522
 8632TIP3    H247312   5.009   5.036  16.763 -2.4008 -2.0639  1.1069
 8633TIP3   OH247313   4.118   3.363  10.984  0.2616 -0.4376 -0.0644
 8633TIP3    H147314   4.115   3.279  10.938  0.5344 -0.1615 -0.5971
 8633TIP3    H247315   4.208   3.394  10.971  0.4288 -0.4887  0.9089
 8634TIP3   OH247316   1.258   0.909   0.494  0.0302 -0.0949  0.0445
 8634TIP3    H147317   1.210   0.954   0.563 -1.5318  0.3050 -1.2477
 8634TIP3    H247318   1.232   0.817   0.503  0.7064 -0.2397  0.6567
 8635TIP3   OH247319   3.381   1.201  14.423  0.5934  0.6170 -0.2269
 8635TIP3    H147320   3.339   1.152  14.353 -0.7229 -1.1716  1.6751
 8635TIP3    H247321   3.469   1.220  14.390  0.2825 -0.8326 -2.0406
 8636TIP3   OH247322   5.866   4.063  11.285 -0.1234 -0.3214  0.1334
 8636TIP3    H147323   5.926   3.999  11.324  0.1479  0.1157  0.4454
 8636TIP3    H247324   5.846   4.123  11.357  0.5355  0.6122 -0.4478
 8637TIP3   OH247325   5.291   3.435  12.423 -0.0796  0.2758 -0.1825
 8637TIP3    H147326   5.198   3.420  12.405 -0.0382 -0.5499  0.2038
 8637TIP3    H247327   5.337   3.398  12.347 -0.0308 -0.4598  0.1875
 8638TIP3   OH247328   1.247   1.064  17.098 -0.6080  0.0367 -0.0890
 8638TIP3    H147329   1.327   1.048  17.149 -0.9544  1.0224  0.7913
 8638TIP3    H247330   1.220   1.152  17.123 -1.3210  0.1761 -1.2877
 8639TIP3   OH247331   6.208   6.562  13.051  0.0662  0.1112  0.0198
 8639TIP3    H147332   6.134   6.562  13.112 -0.8011 -0.6932 -0.9943
 8639TIP3    H247333   6.284   6.541  13.105  0.1218  3.7679  1.6489
 8640TIP3   OH247334   5.425   0.072   3.349 -0.0115  0.6204  0.7703
 8640TIP3    H147335   5.511   0.083   3.309 -0.7136  1.5455 -0.5497
 8640TIP3    H247336   5.443   0.061   3.443  1.4489  2.5732  0.7698
 8641TIP3   OH247337   5.053   5.699  17.054  0.6534  0.8460  0.0911
 8641TIP3    H147338   5.013   5.772  17.101  2.4217  0.3206  2.6278
 8641TIP3    H247339   5.014   5.621  17.094  0.3368  0.3513 -1.1364
 8642TIP3   OH247340   5.334   3.038   0.798  0.5130  0.5569  0.1636
 8642TIP3    H147341   5.376   2.971   0.744 -1.3249  0.5210 -1.3257
 8642TIP3    H247342   5.341   3.118   0.746 -0.7342  0.6511  0.1080
 8643TIP3   OH247343   1.502   3.027  13.589 -0.1007  0.0365 -0.8607
 8643TIP3    H147344   1.520   3.068  13.674 -1.3706 -0.4839 -0.3154
 8643TIP3    H247345   1.443   3.089  13.545 -0.3128 -0.1929 -0.9040
 8644TIP3   OH247346   4.246   0.966   1.609  0.1863 -0.1547 -0.1324
 8644TIP3    H147347   4.258   1.043   1.553 -1.5501  0.7654  0.6446
 8644TIP3    H247348   4.197   0.904   1.555 -1.0705  0.5401  0.1727
 8645TIP3   OH247349   3.967   2.369   0.886 -0.3943  0.1248 -0.3803
 8645TIP3    H147350   3.922   2.400   0.808  2.0449  1.9585 -1.1630
 8645TIP3    H247351   3.998   2.448   0.930  0.5052 -0.9675  1.0533
 8646TIP3   OH247352   0.453   4.011  11.676  0.0941 -1.0336 -0.0968
 8646TIP3    H147353   0.409   4.094  11.689  2.1778  0.1905 -0.4039
 8646TIP3    H247354   0.422   3.979  11.592  0.5384  0.3154 -0.8038
 8647TIP3   OH247355   0.672   0.569  13.995 -0.0325 -0.1242  0.7722
 8647TIP3    H147356   0.634   0.656  14.009 -0.7168 -0.3741  0.5105
 8647TIP3    H247357   0.726   0.554  14.072 -3.3946 -1.3241  3.1475
 8648TIP3   OH247358   3.367   5.192   2.438 -0.0459 -0.1714  0.0933
 8648TIP3    H147359   3.290   5.136   2.450 -0.7127  0.6966 -0.0285
 8648TIP3    H247360   3.331   5.279   2.418  0.9614  0.3067  0.2698
 8649TIP3   OH247361   5.184   3.350   3.871  0.2111  0.6889  0.0028
 8649TIP3    H147362   5.226   3.265   3.864 -0.2048  0.5489 -0.9474
 8649TIP3    H247363   5.241   3.400   3.930  2.0296  0.6887 -1.6433
 8650TIP3   OH247364   6.601   1.281  17.170  0.0878  0.0187 -0.2589
 8650TIP3    H147365   6.577   1.191  17.148  0.8977  0.5429 -4.0290
 8650TIP3    H247366   6.663   1.273  17.243  1.0273 -2.6213 -1.2474
 8651TIP3   OH247367   0.202   0.531   2.795  0.2035 -0.6489 -0.2191
 8651TIP3    H147368   0.162   0.614   2.768  0.3650 -0.2653  0.7026
 8651TIP3    H247369   0.179   0.470   2.725  1.2824  0.5033 -1.6361
 8652TIP3   OH247370   4.740   5.882   1.701 -0.1188  0.5686 -0.0929
 8652TIP3    H147371   4.775   5.927   1.778 -0.1490  0.4406 -0.0029
 8652TIP3    H247372   4.647   5.869   1.722 -0.0337  0.1399  0.0421
 8653TIP3   OH247373   5.336   5.208  15.005  0.4417 -0.1727  0.0022
 8653TIP3    H147374   5.287   5.132  14.974  1.0356 -0.0991 -1.1687
 8653TIP3    H247375   5.423   5.174  15.027 -0.0441 -0.2777  1.9417
 8654TIP3   OH247376   4.189   1.652  16.233  0.3551  0.6387  0.7494
 8654TIP3    H147377   4.141   1.641  16.315 -0.2187 -0.2080  0.2999
 8654TIP3    H247378   4.141   1.720  16.186  0.3069  0.6573  0.8255
 8655TIP3   OH247379   5.634   0.441   3.043  0.4359  0.1214  0.4420
 8655TIP3    H147380   5.599   0.416   2.957  0.4240 -0.6110  0.6553
 8655TIP3    H247381   5.563   0.422   3.104  0.7509 -0.1523  0.7209
 8656TIP3   OH247382   0.895   0.522   1.671  0.2172 -0.6344 -0.1804
 8656TIP3    H147383   0.811   0.496   1.633 -0.9423 -0.4024  2.0422
 8656TIP3    H247384   0.960   0.470   1.623 -1.1109 -0.4459 -2.2985
 8657TIP3   OH247385   2.280   2.348   1.037  0.0606  0.4848  0.2251
 8657TIP3    H147386   2.206   2.408   1.034 -0.7101 -0.4627 -0.1016
 8657TIP3    H247387   2.317   2.359   1.125 -1.7939 -0.5813  1.1969
 8658TIP3   OH247388   1.290   2.416  13.672  0.2677  0.3350 -0.4856
 8658TIP3    H147389   1.341   2.368  13.607  1.5754  1.8681 -0.6815
 8658TIP3    H247390   1.332   2.395  13.756  1.2048  1.5138 -0.6342
 8659TIP3   OH247391   5.234   2.783   2.207  0.0456  0.5571  0.0748
 8659TIP3    H147392   5.225   2.840   2.284  1.3528 -0.8363  1.3148
 8659TIP3    H247393   5.143   2.764   2.181 -0.4224  1.3002  1.0718
 8660TIP3   OH247394   3.442   3.538  13.194 -0.2206 -0.1660  0.2428
 8660TIP3    H147395   3.373   3.554  13.130  1.7032  0.4176 -1.8164
 8660TIP3    H247396   3.503   3.611  13.183  2.1195 -2.0009 -0.0475
 8661TIP3   OH247397   5.752   3.170  16.796 -0.1355  0.2456  0.5120
 8661TIP3    H147398   5.738   3.084  16.835 -1.4316  0.3029  0.2287
 8661TIP3    H247399   5.721   3.232  16.862  1.1163  0.5379  0.8594
 8662TIP3   OH247400   0.356   5.961  11.842 -0.3231 -0.6339  0.6781
 8662TIP3    H147401   0.265   5.934  11.836 -0.3791 -0.0951 -2.3442
 8662TIP3    H247402   0.352   6.048  11.883 -1.3907  0.0848 -0.8462
 8663TIP3   OH247403   2.300   1.267   0.430  0.5207  0.0258 -0.4493
 8663TIP3    H147404   2.237   1.195   0.432 -0.3483  0.7389 -1.2069
 8663TIP3    H247405   2.306   1.295   0.522  1.0581 -1.1414 -0.1077
 8664TIP3   OH247406   4.947   5.835   0.379  0.0850  0.8231  0.5613
 8664TIP3    H147407   4.962   5.762   0.320  1.1657  0.1504  1.6258
 8664TIP3    H247408   4.868   5.877   0.346 -0.4489 -0.7080 -0.1814
 8665TIP3   OH247409   6.136   3.985   5.113 -0.6057 -0.0854  0.6383
 8665TIP3    H147410   6.107   3.897   5.089 -1.0699  0.7672 -2.3998
 8665TIP3    H247411   6.058   4.039   5.103  0.2291  1.0432  0.0438
 8666TIP3   OH247412   2.513   3.879   5.287  0.3616 -0.3511  0.1262
 8666TIP3    H147413   2.574   3.854   5.356  1.0914 -1.2412 -0.8137
 8666TIP3    H247414   2.568   3.914   5.217 -0.0805 -2.1045 -1.1584
 8667TIP3   OH247415   1.445   3.569  14.026 -0.4095 -0.4618  0.9837
 8667TIP3    H147416   1.420   3.482  14.057 -2.8343 -0.2464 -0.1201
 8667TIP3    H247417   1.422   3.628  14.098  0.1361 -0.6059  1.2791
 8668TIP3   OH247418   1.312   4.857  11.480 -0.1203  0.0815 -0.5627
 8668TIP3    H147419   1.395   4.841  11.526  0.2042 -2.6183 -1.9168
 8668TIP3    H247420   1.247   4.862  11.550  1.1679  3.0586  0.5960
 8669TIP3   OH247421   2.327   0.721   0.118 -0.4945 -0.3674 -0.4349
 8669TIP3    H147422   2.295   0.690   0.202  0.0886 -0.6637 -0.3206
 8669TIP3    H247423   2.294   0.811   0.112 -1.8895 -0.8568 -0.6107
 8670TIP3   OH247424   6.508   6.400   5.785 -0.0253 -0.0001  0.4097
 8670TIP3    H147425   6.498   6.495   5.792 -0.0545  0.0852 -0.6126
 8670TIP3    H247426   6.424   6.370   5.752  0.4400 -0.2086 -0.6280
 8671TIP3   OH247427   2.000   0.787  15.402 -0.0200  0.2530 -0.1668
 8671TIP3    H147428   1.988   0.762  15.310 -0.1332 -0.3607  0.0120
 8671TIP3    H247429   2.077   0.737  15.431  1.2324  1.9209 -0.4657
 8672TIP3   OH247430   6.002   1.416  14.411  0.1997 -0.0060 -0.1520
 8672TIP3    H147431   5.916   1.439  14.447  0.1477 -1.1010  0.4547
 8672TIP3    H247432   6.063   1.435  14.482  0.3049 -0.4578 -0.1205
 8673TIP3   OH247433   4.434   4.382   3.762 -0.1723 -0.4181  0.5736
 8673TIP3    H147434   4.503   4.412   3.702  0.6566 -0.8354  1.2962
 8673TIP3    H247435   4.400   4.303   3.720  0.6550 -0.9164  0.8063
 8674TIP3   OH247436   4.589   5.501   3.968  0.5930 -0.9871  0.3054
 8674TIP3    H147437   4.618   5.579   3.921  0.6851 -0.9999  0.3398
 8674TIP3    H247438   4.517   5.531   4.023  0.7434 -0.8856  0.4518
 8675TIP3   OH247439   6.699   6.166   1.882  0.2972 -0.2325 -0.7633
 8675TIP3    H147440   6.657   6.123   1.807 -0.9652  0.5003 -0.5024
 8675TIP3    H247441   6.673   6.113   1.958  0.9938 -0.5642 -0.7462
 8676TIP3   OH247442   6.206   3.472   1.890  0.0923 -0.1559 -0.7597
 8676TIP3    H147443   6.131   3.509   1.844 -1.3241 -1.5156  0.3641
 8676TIP3    H247444   6.208   3.380   1.864  2.7149  0.2510 -2.4149
 8677TIP3   OH247445   4.217   4.413   3.511  0.0330  0.2703 -0.1133
 8677TIP3    H147446   4.158   4.473   3.466 -0.1830  0.3246  0.2375
 8677TIP3    H247447   4.245   4.461   3.590 -2.4629 -1.1171  1.7664
 8678TIP3   OH247448   0.424   3.603   4.956  0.0349 -0.0311 -0.5952
 8678TIP3    H147449   0.359   3.551   5.003 -1.0268  1.1376 -0.7139
 8678TIP3    H247450   0.428   3.563   4.869 -1.0973  0.3198 -0.8260
 8679TIP3   OH247451   4.524   3.192  16.207  0.1927  0.9179 -0.1614
 8679TIP3    H147452   4.503   3.120  16.266 -0.0154  0.3536 -0.9104
 8679TIP3    H247453   4.618   3.206  16.218  0.1502  0.8408  0.3180
 8680TIP3   OH247454   4.456   5.537  12.793  0.2652  0.1170  0.4686
 8680TIP3    H147455   4.515   5.513  12.864 -0.2766 -0.4307  0.7388
 8680TIP3    H247456   4.493   5.618  12.758  0.7472  0.1887  1.1248
 8681TIP3   OH247457   2.764   2.062   1.380  0.3573 -0.2149 -0.0052
 8681TIP3    H147458   2.850   2.056   1.420 -0.2020  0.6242  1.3809
 8681TIP3    H247459   2.704   2.026   1.446 -0.3968 -0.5561 -0.8494
 8682TIP3   OH247460   0.122   1.153  13.368 -0.2254 -0.0859 -0.2712
 8682TIP3    H147461   0.104   1.065  13.335  1.8945 -0.4535 -0.5750
 8682TIP3    H247462   0.188   1.188  13.309 -0.8146  1.6342  0.0142
 8683TIP3   OH247463   5.522   0.898  13.712 -0.5017 -0.0882 -0.1334
 8683TIP3    H147464   5.612   0.868  13.694 -0.6884 -0.6455 -0.1767
 8683TIP3    H247465   5.517   0.985  13.674 -0.5156 -0.7632 -1.7468
 8684TIP3   OH247466   2.743   4.899  16.624 -0.1562 -0.1439  0.2867
 8684TIP3    H147467   2.837   4.888  16.639  0.0912  1.2417 -0.1337
 8684TIP3    H247468   2.716   4.815  16.586  1.4749  0.3182 -2.1368
 8685TIP3   OH247469   0.674   6.329   0.011 -0.0970  0.1150  0.1666
 8685TIP3    H147470   0.684   6.414  -0.032 -0.5890  0.7859  1.3353
 8685TIP3    H247471   0.733   6.333   0.086  0.5106 -0.9165 -0.2402
 8686TIP3   OH247472   6.277   0.731  10.524 -0.4352  0.3892 -0.4482
 8686TIP3    H147473   6.345   0.741  10.457  1.2729  2.2415  1.4205
 8686TIP3    H247474   6.216   0.802  10.507  0.0025  0.8644 -0.0412
 8687TIP3   OH247475   5.370   4.952   3.952  0.9443 -0.1082  0.6225
 8687TIP3    H147476   5.377   5.038   3.992 -3.2871 -0.5695  2.9347
 8687TIP3    H247477   5.400   4.891   4.020 -0.4708 -0.5906  0.8590
 8688TIP3   OH247478   5.532   6.605  12.447  0.0442  0.1883  0.3261
 8688TIP3    H147479   5.569   6.689  12.418  0.8895 -0.4575 -0.5438
 8688TIP3    H247480   5.547   6.546  12.373  0.0629 -0.9066  1.1857
 8689TIP3   OH247481   4.309   4.550   1.257 -0.2024 -0.1803  0.4117
 8689TIP3    H147482   4.266   4.606   1.322 -2.1348 -2.0852  0.9180
 8689TIP3    H247483   4.242   4.538   1.189  1.0247  0.0210 -0.8632
 8690TIP3   OH247484   6.597   1.330  16.412  0.2243  0.3168  0.0406
 8690TIP3    H147485   6.595   1.312  16.318 -1.9182  0.6902 -0.0204
 8690TIP3    H247486   6.562   1.251  16.453  2.4911 -0.4363  0.6940
 8691TIP3   OH247487   0.460   3.204   1.669 -0.2749  0.1371  0.0379
 8691TIP3    H147488   0.492   3.115   1.686  0.8661  0.2188 -1.4670
 8691TIP3    H247489   0.512   3.234   1.594 -1.1183  1.8255  0.0882
 8692TIP3   OH247490   2.122   0.606  11.746 -0.2399 -0.2979 -0.2951
 8692TIP3    H147491   2.148   0.697  11.752 -1.4428  0.1168 -0.9797
 8692TIP3    H247492   2.027   0.609  11.729 -0.0849 -1.6253 -1.6250
 8693TIP3   OH247493   2.026   0.407   0.933  0.1245 -0.2029  0.8394
 8693TIP3    H147494   2.029   0.340   1.001  0.4615 -1.8712 -0.7331
 8693TIP3    H247495   1.949   0.386   0.881 -0.8805  1.8266  1.3840
 8694TIP3   OH247496   3.602   4.434  14.136  0.3613 -0.0639 -0.2224
 8694TIP3    H147497   3.562   4.352  14.107  0.1782  0.2807 -0.9509
 8694TIP3    H247498   3.581   4.497  14.067 -0.2501  0.8140  0.7339
 8695TIP3   OH247499   6.743   5.180  13.358  0.7838  0.4575  0.3493
 8695TIP3    H147500   6.688   5.245  13.400  1.2597  0.8466  0.3782
 8695TIP3    H247501   6.802   5.150  13.428 -0.2971 -0.9733  0.6809
 8696TIP3   OH247502   2.806   2.278   3.073  0.2459 -0.3049  0.1972
 8696TIP3    H147503   2.720   2.270   3.114  0.2414  0.1038  0.2800
 8696TIP3    H247504   2.805   2.365   3.032  0.9699  0.1259  1.0425
 8697TIP3   OH247505   5.170   0.281   3.276 -0.2249 -0.0098 -0.0787
 8697TIP3    H147506   5.207   0.230   3.205 -1.6186 -2.4907  0.8474
 8697TIP3    H247507   5.240   0.287   3.341 -0.1261 -1.0397 -0.0803
 8698TIP3   OH247508   5.839   0.893  12.564  0.2181  0.3909 -0.6298
 8698TIP3    H147509   5.926   0.859  12.547  0.6275  1.3531 -0.5073
 8698TIP3    H247510   5.845   0.932  12.652  0.3162  2.4279 -1.4667
 8699TIP3   OH247511   6.447   2.127   4.417  0.5237 -0.6569 -0.3906
 8699TIP3    H147512   6.516   2.099   4.357  0.4726  0.4839 -1.0040
 8699TIP3    H247513   6.472   2.091   4.502  0.7171 -2.1110 -1.0361
 8700TIP3   OH247514   5.041   1.993   6.324  0.3501 -0.1134  0.2785
 8700TIP3    H147515   5.010   2.081   6.302  1.0080 -0.1831 -1.0671
 8700TIP3    H247516   5.113   2.007   6.385 -0.8647  0.1535  1.6941
 8701TIP3   OH247517   0.442   1.687   1.363 -0.1516 -0.1489 -0.2593
 8701TIP3    H147518   0.381   1.757   1.387  2.2082  1.7811  0.6361
 8701TIP3    H247519   0.443   1.688   1.267  0.3786  1.6884 -0.2907
 8702TIP3   OH247520   2.654   6.497   4.974 -0.9284 -0.0310 -0.0879
 8702TIP3    H147521   2.654   6.555   4.897 -2.8062 -0.1202 -0.1951
 8702TIP3    H247522   2.740   6.456   4.973 -0.4215  1.0074 -1.3602
 8703TIP3   OH247523   5.046   3.665  17.217  0.0391 -0.6233  0.1506
 8703TIP3    H147524   5.138   3.668  17.243  0.3368 -0.7628 -0.8482
 8703TIP3    H247525   5.018   3.757  17.220  0.0089 -0.6526  1.1111
 8704TIP3   OH247526   1.145   1.868   5.199  0.3184  0.0060  0.1128
 8704TIP3    H147527   1.061   1.862   5.154 -0.0430  0.6182  0.6941
 8704TIP3    H247528   1.160   1.780   5.234 -0.9922  0.3431  1.6119
 8705TIP3   OH247529   3.170   2.505  13.586 -0.1536  0.8762 -0.2967
 8705TIP3    H147530   3.102   2.569  13.563 -1.0544  0.4678  1.0631
 8705TIP3    H247531   3.181   2.515  13.681  2.1942  1.3742 -0.5608
 8706TIP3   OH247532   1.369   1.760  16.272 -0.4234 -0.4916  0.5651
 8706TIP3    H147533   1.398   1.804  16.351  1.7898 -0.0903 -0.3854
 8706TIP3    H247534   1.363   1.668  16.296  0.0222 -0.3465  1.2469
 8707TIP3   OH247535   5.187   4.020   1.954 -0.3244  0.3572  0.5640
 8707TIP3    H147536   5.133   3.970   1.892 -0.9056 -2.0761  2.8255
 8707TIP3    H247537   5.266   3.967   1.965  0.4380  1.5166  0.7990
 8708TIP3   OH247538   3.282   6.012  11.687  0.4580  0.8318  0.2166
 8708TIP3    H147539   3.374   6.037  11.692  0.9116 -0.7395  0.0803
 8708TIP3    H247540   3.267   5.992  11.594  0.9935 -2.4104  0.7252
 8709TIP3   OH247541   2.590   1.317   1.375  0.1393 -0.2725  0.3991
 8709TIP3    H147542   2.597   1.279   1.463 -1.7088 -1.1331  0.2183
 8709TIP3    H247543   2.541   1.398   1.388  0.9163  0.2136  0.3124
 8710TIP3   OH247544   1.087   5.538   5.306 -0.3452  0.0356  0.5281
 8710TIP3    H147545   1.089   5.517   5.399  1.8156  0.7572  0.7157
 8710TIP3    H247546   1.160   5.488   5.269 -0.7003  0.3423 -0.6298
 8711TIP3   OH247547   2.070   0.733   3.407  0.5180 -0.5366 -0.2636
 8711TIP3    H147548   2.072   0.648   3.452 -0.2654 -0.4224  0.0026
 8711TIP3    H247549   2.009   0.786   3.458  0.9648  0.1799 -0.4534
 8712TIP3   OH247550   2.938   3.568   1.397  0.2645  0.3705 -0.0407
 8712TIP3    H147551   2.869   3.618   1.439 -0.8607 -0.5659 -0.6959
 8712TIP3    H247552   2.979   3.629   1.336  0.9860  1.3335  1.3626
 8713TIP3   OH247553   6.773   1.049   0.259  0.7731  0.2115 -0.0260
 8713TIP3    H147554   6.792   1.067   0.167  0.4698 -2.7814 -0.7910
 8713TIP3    H247555   6.857   1.019   0.295  0.1642 -2.1467 -0.3937
 8714TIP3   OH247556   3.470   0.660   4.391 -0.1731  0.8917 -0.7757
 8714TIP3    H147557   3.494   0.629   4.304  0.3886  0.4010 -0.4564
 8714TIP3    H247558   3.376   0.645   4.398 -0.3698  1.6491 -1.5773
 8715TIP3   OH247559   6.384   2.739   2.672 -0.0028 -0.3799 -0.1049
 8715TIP3    H147560   6.422   2.818   2.711 -1.9048  0.3118  0.4788
 8715TIP3    H247561   6.416   2.668   2.727  3.5079 -0.4016 -1.8902
 8716TIP3   OH247562   5.324   0.558  11.273  0.0762 -0.0238  0.0297
 8716TIP3    H147563   5.250   0.550  11.333 -0.2673  0.2824 -0.3451
 8716TIP3    H247564   5.321   0.649  11.243 -1.9454 -1.0115 -3.2273
 8717TIP3   OH247565   4.944   1.757   0.762 -0.1037 -0.2373  0.4307
 8717TIP3    H147566   4.956   1.772   0.856  2.5227  1.0783 -0.0286
 8717TIP3    H247567   4.881   1.823   0.735 -0.4084 -0.2225  1.1526
 8718TIP3   OH247568   5.007   2.158   0.550  0.3945  0.1093  0.2721
 8718TIP3    H147569   4.978   2.230   0.606  1.0164  0.0174  0.7206
 8718TIP3    H247570   5.023   2.199   0.465 -2.1121 -0.0299 -0.3433
 8719TIP3   OH247571   5.245   5.346  11.460 -0.4497  0.4058 -0.1287
 8719TIP3    H147572   5.326   5.390  11.433  0.4118 -0.6615  0.5886
 8719TIP3    H247573   5.254   5.257  11.426 -1.4780  0.3677 -0.3189
 8720TIP3   OH247574   1.026   0.577   0.219  0.4991  0.0391  0.0653
 8720TIP3    H147575   1.115   0.545   0.202 -0.5164 -1.3841 -3.4103
 8720TIP3    H247576   1.031   0.671   0.204  1.4269 -0.0134 -0.0280
 8721TIP3   OH247577   5.423   3.069   1.790  0.1177  0.7100  0.2632
 8721TIP3    H147578   5.429   2.994   1.850 -0.8133  0.8540  0.5580
 8721TIP3    H247579   5.457   3.143   1.841 -0.3001  0.7566  0.4770
 8722TIP3   OH247580   5.407   2.362   3.615 -0.1441  0.3149 -0.4714
 8722TIP3    H147581   5.317   2.329   3.619 -0.6489  1.7197  2.0464
 8722TIP3    H247582   5.400   2.453   3.642  2.1585  0.1214  1.0457
 8723TIP3   OH247583   2.932   6.215   1.092 -0.3560 -0.1236  0.3396
 8723TIP3    H147584   2.948   6.287   1.031 -1.8706  0.2190  0.3282
 8723TIP3    H247585   2.838   6.198   1.087  0.0926 -2.8934 -0.5037
 8724TIP3   OH247586   0.559   6.569  13.436  0.4421  0.2374  0.6029
 8724TIP3    H147587   0.527   6.531  13.354  0.4200  1.0405  0.2302
 8724TIP3    H247588   0.639   6.521  13.455 -1.1840 -2.1822  1.8269
 8725TIP3   OH247589   6.432   0.633   2.569  0.4299  0.0862  0.5945
 8725TIP3    H147590   6.482   0.692   2.625 -0.0274  0.6714  0.3880
 8725TIP3    H247591   6.363   0.598   2.625  0.3654  0.1708  0.5673
 8726TIP3   OH247592   6.088   5.027   6.307 -0.1439 -0.1934 -0.4638
 8726TIP3    H147593   6.083   5.079   6.227  1.3806  0.1404 -0.3793
 8726TIP3    H247594   6.084   5.091   6.378 -1.0593 -0.4501 -0.2808
 8727TIP3   OH247595   4.729   2.169  12.873 -0.1092 -0.3575 -0.0139
 8727TIP3    H147596   4.797   2.186  12.939 -0.3447 -1.7692  0.6516
 8727TIP3    H247597   4.770   2.190  12.790  0.1969  1.4908  0.5626
 8728TIP3   OH247598   2.421   1.257  16.050 -0.2934 -0.0825 -0.1915
 8728TIP3    H147599   2.423   1.172  16.005 -0.2526 -1.9092  2.9123
 8728TIP3    H247600   2.509   1.292  16.041  0.0806 -1.0443 -0.3779
 8729TIP3   OH247601   1.511   5.021   4.938 -0.1813  0.2520 -0.2991
 8729TIP3    H147602   1.554   4.936   4.929 -2.0409 -0.8005  0.1949
 8729TIP3    H247603   1.446   5.023   4.867  1.1307  2.1378 -1.5306
 8730TIP3   OH247604   1.225   4.951   0.438  0.0480  0.7418 -0.3209
 8730TIP3    H147605   1.318   4.931   0.448  0.3070  2.5704  1.5634
 8730TIP3    H247606   1.188   4.938   0.526 -0.9257  2.4609 -0.4334
 8731TIP3   OH247607   1.543   4.366   4.771 -0.1928 -0.2580 -0.1146
 8731TIP3    H147608   1.502   4.433   4.826  1.6069 -1.7351  3.4282
 8731TIP3    H247609   1.478   4.296   4.766 -0.5524  0.0845 -0.2421
 8732TIP3   OH247610   2.760   6.645   0.990  0.4313  0.2140 -0.5176
 8732TIP3    H147611   2.752   6.550   0.977 -2.1717  0.5048 -1.7797
 8732TIP3    H247612   2.671   6.678   0.975  1.1798  2.8252  0.3294
 8733TIP3   OH247613   2.986   1.175   4.749  0.3136  0.1246  0.1054
 8733TIP3    H147614   2.999   1.177   4.654 -0.5332  1.5016  0.0029
 8733TIP3    H247615   3.073   1.155   4.784  1.0390  1.3847 -0.8951
 8734TIP3   OH247616   5.887   5.908   0.728  0.2599  0.0458 -0.2758
 8734TIP3    H147617   5.814   5.960   0.695  0.5760 -0.0856 -1.2065
 8734TIP3    H247618   5.907   5.946   0.814 -0.5695  0.3984 -0.2343
 8735TIP3   OH247619   0.452   3.128   2.100 -0.1781 -0.1147  0.0930
 8735TIP3    H147620   0.426   3.178   2.023 -0.2581  0.4872  0.5103
 8735TIP3    H247621   0.381   3.065   2.112  0.0900 -0.5707 -0.6368
 8736TIP3   OH247622   2.615   5.809   3.034  0.5217 -0.0772 -0.1647
 8736TIP3    H147623   2.630   5.873   3.104 -0.2807  0.5293 -0.5359
 8736TIP3    H247624   2.700   5.801   2.990  1.6874 -2.1152  2.1907
 8737TIP3   OH247625   0.800   5.953   0.723  0.1316  0.2664  0.1924
 8737TIP3    H147626   0.786   5.924   0.813 -1.5323  1.7297  0.4492
 8737TIP3    H247627   0.885   5.995   0.724  0.8321 -1.1054  0.6948
 8738TIP3   OH247628   3.106   0.828  15.061 -0.1772  0.3124 -0.0127
 8738TIP3    H147629   3.082   0.917  15.087 -0.4523 -0.1007  1.2200
 8738TIP3    H247630   3.150   0.791  15.138 -1.2929 -1.0790  0.0014
 8739TIP3   OH247631   6.319   0.410  15.631 -0.1848  0.2169  0.2085
 8739TIP3    H147632   6.344   0.346  15.565  0.4781  1.3937 -0.7225
 8739TIP3    H247633   6.399   0.459  15.648 -0.6121  0.6208  1.1005
 8740TIP3   OH247634   4.785   5.846  14.579  0.1897  0.2641 -0.0100
 8740TIP3    H147635   4.746   5.919  14.627  2.1670  2.1893 -1.1398
 8740TIP3    H247636   4.860   5.819  14.633 -0.1235 -0.4738  0.0607
 8741TIP3   OH247637   4.054   4.971   3.498  0.1859 -0.0999 -0.0414
 8741TIP3    H147638   4.036   5.065   3.489  2.6519  0.6142  1.5524
 8741TIP3    H247639   4.119   4.953   3.431  0.0675 -0.5825 -0.0298
 8742TIP3   OH247640   5.407   2.521   3.182  0.6286 -0.3780 -0.1034
 8742TIP3    H147641   5.363   2.570   3.250 -1.5114 -1.4053 -0.6743
 8742TIP3    H247642   5.499   2.517   3.210  0.1780  0.9124  1.6627
 8743TIP3   OH247643   6.722   0.581  13.931  0.3755  0.1845  0.1620
 8743TIP3    H147644   6.736   0.581  14.026 -0.6344  1.5860  0.3420
 8743TIP3    H247645   6.687   0.495  13.912 -0.9238  0.4190  1.3289
 8744TIP3   OH247646   6.678   1.392  10.355 -0.0967  0.0897 -0.0309
 8744TIP3    H147647   6.628   1.311  10.353  2.1522 -1.4044 -1.8678
 8744TIP3    H247648   6.720   1.393  10.441  0.3087 -1.0384 -0.2036
 8745TIP3   OH247649   1.724   5.245   2.579 -0.3353  0.4861  0.0874
 8745TIP3    H147650   1.738   5.292   2.496 -0.3434  2.0651  0.9329
 8745TIP3    H247651   1.778   5.167   2.571 -0.5777  0.4331 -1.5297
 8746TIP3   OH247652   5.631   1.028   4.088 -0.0171 -0.1690 -0.9268
 8746TIP3    H147653   5.544   1.067   4.095  0.2920  0.3910 -0.0449
 8746TIP3    H247654   5.636   0.967   4.163  0.4779  0.0732 -0.7582
 8747TIP3   OH247655   5.278   0.946   3.162  0.0476 -0.3435  0.0859
 8747TIP3    H147656   5.277   0.989   3.247 -0.9170 -0.4161  0.1203
 8747TIP3    H247657   5.275   0.853   3.182  2.5988 -0.5125  0.0238
 8748TIP3   OH247658   4.697   1.279  12.540 -0.8691  0.3422  0.3210
 8748TIP3    H147659   4.612   1.297  12.501 -0.5834  0.3553 -0.2986
 8748TIP3    H247660   4.689   1.309  12.631 -0.9326  2.0681 -0.2188
 8749TIP3   OH247661   1.818   5.847   1.560 -0.5282 -0.0903 -0.0483
 8749TIP3    H147662   1.767   5.875   1.636  2.2457  0.1529  1.8866
 8749TIP3    H247663   1.895   5.904   1.560 -0.2807 -0.2517 -2.9608
 8750TIP3   OH247664   3.862   5.946  14.441  0.7638 -0.3211  0.1099
 8750TIP3    H147665   3.857   5.987  14.528  2.1187  0.1705 -0.0228
 8750TIP3    H247666   3.809   5.866  14.450  0.0792  0.2126  1.0855
 8751TIP3   OH247667   5.434   3.613   0.054  0.5219  0.3739 -0.4467
 8751TIP3    H147668   5.480   3.663  -0.014  0.5371  0.8877 -0.0637
 8751TIP3    H247669   5.459   3.656   0.136 -0.8148  0.8008 -0.2450
 8752TIP3   OH247670   2.542   2.753  11.366 -0.8083 -0.2704 -0.1904
 8752TIP3    H147671   2.595   2.678  11.338  1.4248  1.6260 -1.4352
 8752TIP3    H247672   2.532   2.806  11.287 -0.5543  1.7331  1.0450
 8753TIP3   OH247673   3.406   4.995  16.338 -0.3660  0.1030  0.0751
 8753TIP3    H147674   3.410   4.959  16.427  1.8942 -0.6342 -0.2549
 8753TIP3    H247675   3.403   4.918  16.282  0.0016  0.5290 -0.5331
 8754TIP3   OH247676   5.795   0.918   6.200 -0.1345  0.1004 -0.1785
 8754TIP3    H147677   5.859   0.983   6.229 -0.7876  2.2376 -3.0197
 8754TIP3    H247678   5.753   0.887   6.280 -0.6342  4.1499  1.3583
 8755TIP3   OH247679   3.503   6.140  15.688  0.2379  0.5471  0.1263
 8755TIP3    H147680   3.561   6.088  15.632  0.1181 -0.9150  1.3196
 8755TIP3    H247681   3.416   6.125  15.652  0.2460  0.2142  0.2431
 8756TIP3   OH247682   1.773   2.012   0.904 -0.1194 -0.2868  0.2490
 8756TIP3    H147683   1.764   1.926   0.945 -0.7223 -1.0701 -1.4391
 8756TIP3    H247684   1.866   2.018   0.880 -0.2193 -0.7634 -0.2559
 8757TIP3   OH247685   6.212   5.093   2.247 -0.0070 -0.0297 -0.1228
 8757TIP3    H147686   6.298   5.130   2.267 -0.6188 -0.3386  3.7624
 8757TIP3    H247687   6.198   5.027   2.314 -2.8681 -0.7425 -1.2762
 8758TIP3   OH247688   4.122   4.750   2.583 -0.4616 -0.8081  0.1302
 8758TIP3    H147689   4.203   4.700   2.583  0.7774  1.0320 -2.0052
 8758TIP3    H247690   4.070   4.711   2.513 -0.6132 -0.7409  0.2039
 8759TIP3   OH247691   0.030   4.692   1.827 -0.0222 -0.2200  0.0966
 8759TIP3    H147692  -0.026   4.658   1.757  1.0568  0.2791 -1.0554
 8759TIP3    H247693   0.001   4.782   1.840  0.7045  0.1527 -0.7472
 8760TIP3   OH247694   0.099   0.792   3.589 -0.1896 -0.3770 -0.1901
 8760TIP3    H147695   0.141   0.769   3.507  0.0292 -0.2721 -0.1078
 8760TIP3    H247696   0.164   0.844   3.636  0.7033 -2.5865  1.1769
 8761TIP3   OH247697   3.157   5.177   5.436 -0.1741  0.0078  0.0637
 8761TIP3    H147698   3.243   5.177   5.394 -0.7011 -1.9787 -1.1927
 8761TIP3    H247699   3.115   5.098   5.402 -1.8850  0.0603  1.9123
 8762TIP3   OH247700   5.645   1.689   3.462  0.0054 -0.1353 -0.1346
 8762TIP3    H147701   5.581   1.626   3.428 -0.7329  0.4235  0.1900
 8762TIP3    H247702   5.695   1.640   3.528 -0.6013 -0.3728  0.1544
 8763TIP3   OH247703   4.923   2.245  13.075 -0.2475 -0.5638 -0.0962
 8763TIP3    H147704   4.869   2.192  13.135  0.2139  0.2019  1.0201
 8763TIP3    H247705   5.013   2.228  13.102  0.0568 -1.2367 -1.4580
 8764TIP3   OH247706   0.286   2.859  13.890  0.1357  0.2781 -0.2231
 8764TIP3    H147707   0.310   2.952  13.892  0.9982  0.0767  2.7509
 8764TIP3    H247708   0.191   2.858  13.904  0.1655  0.7067  0.0224
 8765TIP3   OH247709   3.534   3.359   1.769  0.4129  0.2452  0.6890
 8765TIP3    H147710   3.445   3.335   1.744 -0.4177  0.8183  2.8623
 8765TIP3    H247711   3.546   3.447   1.732 -0.1863  0.4444  0.9453
 8766TIP3   OH247712   4.805   5.761   4.448 -0.0093  0.4679 -0.0654
 8766TIP3    H147713   4.743   5.778   4.519 -2.1719  0.8688 -1.9496
 8766TIP3    H247714   4.794   5.669   4.427  1.7184 -0.0424  1.0238
 8767TIP3   OH247715   6.062   6.377  14.061  0.2659  0.4290  0.6476
 8767TIP3    H147716   6.099   6.311  14.119  0.6924 -0.1822 -0.2974
 8767TIP3    H247717   5.975   6.344  14.039  0.1532  0.5992  0.8314
 8768TIP3   OH247718   4.279   6.668   4.050 -0.0631 -0.3616 -0.5205
 8768TIP3    H147719   4.325   6.677   4.134 -0.8867  1.0947 -0.1868
 8768TIP3    H247720   4.343   6.699   3.985  0.5259 -1.3558 -0.4379
 8769TIP3   OH247721   4.927   4.563   0.942 -0.1079 -0.0848  0.6377
 8769TIP3    H147722   4.918   4.499   0.872 -0.7939  1.0318 -0.3352
 8769TIP3    H247723   4.859   4.539   1.005 -0.3279 -0.3426  0.3061
 8770TIP3   OH247724   4.648   3.125  10.622 -0.0837  0.9233 -0.3508
 8770TIP3    H147725   4.580   3.161  10.678 -1.9610 -1.1078 -1.1984
 8770TIP3    H247726   4.710   3.083  10.682 -2.0973 -1.2898  0.3205
 8771TIP3   OH247727   3.597   6.573   2.104  0.4356  0.4439  0.2868
 8771TIP3    H147728   3.675   6.549   2.154 -0.9119 -0.5900  1.9963
 8771TIP3    H247729   3.529   6.514   2.137 -1.9723  3.6341  1.4735
 8772TIP3   OH247730   1.409   3.781   2.599  0.1107 -0.1726  0.0279
 8772TIP3    H147731   1.496   3.798   2.562  0.4238 -1.3697  0.1714
 8772TIP3    H247732   1.383   3.698   2.560 -1.5551  0.8040 -1.0340
 8773TIP3   OH247733   2.343   3.446   3.460  0.2349 -0.6085 -0.3712
 8773TIP3    H147734   2.354   3.540   3.475  0.5336 -0.8793  1.3316
 8773TIP3    H247735   2.372   3.432   3.370 -1.5955  1.2044 -1.3028
 8774TIP3   OH247736   1.144   3.674   3.704  0.1625  0.0388 -0.2469
 8774TIP3    H147737   1.177   3.758   3.733 -0.3266  0.1501 -0.0087
 8774TIP3    H247738   1.053   3.671   3.734  0.5137 -1.0767  0.8304
 8775TIP3   OH247739   4.869   2.829   4.130 -0.7137 -0.5906 -0.1045
 8775TIP3    H147740   4.776   2.818   4.150 -0.5646  0.7340  1.5362
 8775TIP3    H247741   4.870   2.895   4.060 -0.9752  2.1338  2.2745
 8776TIP3   OH247742   1.320   2.883   0.624  0.1754  0.7997  0.5663
 8776TIP3    H147743   1.289   2.903   0.536  0.2152  1.0666  0.6128
 8776TIP3    H247744   1.261   2.814   0.655 -1.4973  2.5119  1.3181
 8777TIP3   OH247745   6.510   1.679   0.364 -0.5418 -0.5207  0.3229
 8777TIP3    H147746   6.455   1.621   0.415 -0.3274  0.4783  1.7368
 8777TIP3    H247747   6.569   1.719   0.428  1.0876 -0.7096 -0.9799
 8778TIP3   OH247748   6.250   3.553   4.059  0.6919  0.3451 -0.2735
 8778TIP3    H147749   6.232   3.625   4.120  2.9491  0.8456 -0.1064
 8778TIP3    H247750   6.297   3.488   4.111  2.0931  0.4987 -1.2614
 8779TIP3   OH247751   6.419   3.651   1.796  0.0688 -0.1657  0.5746
 8779TIP3    H147752   6.345   3.592   1.812 -0.3532  0.0984 -0.3343
 8779TIP3    H247753   6.480   3.599   1.744  1.4429 -1.0273  2.8813
 8780TIP3   OH247754   4.712   0.980  11.377  0.3579  0.1929  0.6349
 8780TIP3    H147755   4.618   0.971  11.364  0.1772  2.7686 -0.4036
 8780TIP3    H247756   4.728   0.939  11.462 -1.4120 -1.6446  0.1562
 8781TIP3   OH247757   6.331   2.605  14.096 -0.4181  0.2598  0.2123
 8781TIP3    H147758   6.408   2.601  14.154  0.2169  0.9089 -0.5605
 8781TIP3    H247759   6.293   2.517  14.101  0.7498 -0.2774  0.1247
 8782TIP3   OH247760   3.358   3.025  12.536  0.4586  0.1121 -0.0519
 8782TIP3    H147761   3.375   3.110  12.575 -0.9202  0.4905 -0.2261
 8782TIP3    H247762   3.365   2.963  12.609  2.4690  0.2057 -0.1052
 8783TIP3   OH247763   0.410   4.842  10.864 -0.3582 -0.3673  0.2280
 8783TIP3    H147764   0.395   4.935  10.879 -1.1876 -0.2338 -1.2326
 8783TIP3    H247765   0.323   4.806  10.844  0.3954 -0.6469 -3.1546
 8784TIP3   OH247766   0.742   3.540   4.391  0.0872 -0.0057  0.4652
 8784TIP3    H147767   0.739   3.589   4.473 -2.4711 -0.3383  0.6803
 8784TIP3    H247768   0.672   3.475   4.401 -0.9877  0.6008 -2.3345
 8785TIP3   OH247769   4.110   1.844  15.120  0.2898 -0.0690 -0.5384
 8785TIP3    H147770   4.194   1.801  15.101  0.3372 -0.1299 -0.2043
 8785TIP3    H247771   4.126   1.936  15.101  0.9404  0.1840  1.0887
 8786TIP3   OH247772   0.408   2.229  11.603  0.2749 -0.3119 -0.1366
 8786TIP3    H147773   0.339   2.295  11.608  0.8572  0.4096 -1.2081
 8786TIP3    H247774   0.483   2.269  11.647  0.7891 -0.0165 -1.2375
 8787TIP3   OH247775   1.101   0.914   1.379 -0.3455 -0.2342  0.2210
 8787TIP3    H147776   1.184   0.961   1.381  0.0139 -0.8034  3.2756
 8787TIP3    H247777   1.125   0.821   1.385 -1.1740 -0.4705  0.0997
 8788TIP3   OH247778   4.148   3.132  10.834 -0.4290  0.2663 -0.1519
 8788TIP3    H147779   4.140   3.038  10.824 -0.5431  0.1957  0.5601
 8788TIP3    H247780   4.091   3.169  10.766 -1.2434 -0.1850  0.2780
 8789TIP3   OH247781   0.355   6.204   0.523 -0.5303  0.1321  0.5438
 8789TIP3    H147782   0.336   6.285   0.571 -2.4063 -0.5610  1.0817
 8789TIP3    H247783   0.433   6.169   0.566 -0.6831  0.8140  1.4134
 8790TIP3   OH247784   0.867   2.133  10.852  0.1468  0.2159  0.1003
 8790TIP3    H147785   0.853   2.208  10.910 -0.9248 -0.2397  0.4637
 8790TIP3    H247786   0.961   2.133  10.834 -0.0289  2.5367 -1.1336
 8791TIP3   OH247787   6.504   4.657  16.495 -0.1273  0.2144 -0.1332
 8791TIP3    H147788   6.586   4.613  16.517 -0.8669 -1.2433 -0.1680
 8791TIP3    H247789   6.436   4.596  16.524 -1.1865  1.0073 -0.8870
 8792TIP3   OH247790   1.634   2.337   0.584  0.0809  0.5591 -0.0677
 8792TIP3    H147791   1.557   2.394   0.596 -0.2520  0.3998 -1.2798
 8792TIP3    H247792   1.708   2.397   0.583 -0.1204  0.8163  0.1475
 8793TIP3   OH247793   4.057   4.281  12.894 -0.4756  0.0395  0.2096
 8793TIP3    H147794   4.025   4.338  12.964 -0.3415  1.0021 -0.5079
 8793TIP3    H247795   4.025   4.194  12.919  1.2839 -0.0460  2.5653
 8794TIP3   OH247796   0.137   4.816   6.056  0.7286  0.5078 -0.1063
 8794TIP3    H147797   0.054   4.818   6.009 -0.1368 -2.3645  1.1422
 8794TIP3    H247798   0.203   4.815   5.987 -0.3342  0.4701 -1.1566
 8795TIP3   OH247799   1.910   4.935  12.870 -0.6936  0.0179  0.1489
 8795TIP3    H147800   1.819   4.906  12.863 -0.2164 -1.6683  0.5806
 8795TIP3    H247801   1.907   5.027  12.845 -2.3669 -0.2435 -0.7611
 8796TIP3   OH247802   4.803   4.328   3.652  0.3207  0.0846 -0.0677
 8796TIP3    H147803   4.752   4.247   3.656 -1.5057  1.0932 -1.5143
 8796TIP3    H247804   4.892   4.299   3.632 -0.4447 -1.5412 -1.3082
 8797TIP3   OH247805   1.829   5.150   5.840  0.1609 -0.4021  0.0821
 8797TIP3    H147806   1.915   5.168   5.803  0.1742 -0.3141  0.1557
 8797TIP3    H247807   1.768   5.171   5.769  0.1106  0.9400  0.4967
 8798TIP3   OH247808   5.143   3.530  12.060  0.9339  0.4703 -0.0494
 8798TIP3    H147809   5.191   3.479  11.994 -0.0420 -0.2067 -0.2637
 8798TIP3    H247810   5.136   3.472  12.136 -0.1524  0.2639 -0.2818
 8799TIP3   OH247811   4.170   4.336   1.419  0.6079  0.1056 -0.3180
 8799TIP3    H147812   4.198   4.296   1.337  1.1522  0.6625 -0.4069
 8799TIP3    H247813   4.086   4.377   1.398 -0.2952 -1.5383 -0.0586
 8800TIP3   OH247814   6.067   5.605   2.968  0.2153 -0.8616  0.5500
 8800TIP3    H147815   6.134   5.606   2.900  0.7798 -0.0050  1.0964
 8800TIP3    H247816   5.985   5.595   2.920  0.4829  0.9833 -0.3959
 8801TIP3   OH247817   4.201   4.967   2.307  0.3360  0.0963  0.5632
 8801TIP3    H147818   4.110   4.981   2.334  0.7558  0.7090  1.7253
 8801TIP3    H247819   4.201   4.878   2.270 -0.9209  0.4530 -0.3776
 8802TIP3   OH247820   0.255   1.311   0.152  0.2603  0.0276  0.3347
 8802TIP3    H147821   0.210   1.230   0.130 -0.3051  0.1475  1.0042
 8802TIP3    H247822   0.346   1.286   0.162  0.5679 -0.0158 -2.1545
 8803TIP3   OH247823   2.107   4.310   0.018  0.0369 -0.8209 -0.0605
 8803TIP3    H147824   2.032   4.272  -0.028 -0.6833  1.9489 -1.4200
 8803TIP3    H247825   2.173   4.323  -0.050  0.2906  0.1939  0.3610
 8804TIP3   OH247826   0.915   3.872   3.476 -0.0739  0.0587  0.1763
 8804TIP3    H147827   0.995   3.912   3.511  0.3155  0.4659 -1.1197
 8804TIP3    H247828   0.888   3.809   3.543  0.9799  0.3637  0.9088
 8805TIP3   OH247829   6.634   5.125   5.503  0.1936 -0.4781 -0.2577
 8805TIP3    H147830   6.570   5.190   5.473  0.6412 -0.4401 -1.1614
 8805TIP3    H247831   6.662   5.080   5.423  0.8874 -0.8724  0.1942
 8806TIP3   OH247832   3.397   0.797  12.843  0.5398  0.3489 -0.4014
 8806TIP3    H147833   3.386   0.892  12.848 -0.9166  0.1675  0.4362
 8806TIP3    H247834   3.308   0.764  12.833  0.9753 -0.9697 -0.0072
 8807TIP3   OH247835   3.281   4.440   1.076  0.1113  0.7167 -0.0512
 8807TIP3    H147836   3.269   4.444   1.170 -2.3617  1.4470 -0.3444
 8807TIP3    H247837   3.320   4.354   1.060 -1.2757 -0.2282  1.4721
 8808TIP3   OH247838   0.636   3.083  11.988  0.8359  0.2077 -0.2488
 8808TIP3    H147839   0.651   2.989  11.995  0.6675  0.0412 -1.7215
 8808TIP3    H247840   0.667   3.119  12.071  1.4166 -1.0765  0.1144
 8809TIP3   OH247841   3.476   5.991   4.356  0.1041  0.0765 -0.2050
 8809TIP3    H147842   3.417   6.061   4.327  0.9563  0.4602 -1.0559
 8809TIP3    H247843   3.522   6.028   4.431  0.7588  0.5488 -0.8276
 8810TIP3   OH247844   1.244   6.687  15.381  0.5816 -0.6193 -0.1442
 8810TIP3    H147845   1.225   6.602  15.421 -0.4400  0.2908  1.4156
 8810TIP3    H247846   1.159   6.721  15.355  1.0529 -0.3601 -1.4509
 8811TIP3   OH247847   3.378   1.901   5.442 -0.0279 -0.4407 -0.2301
 8811TIP3    H147848   3.347   1.844   5.511  1.0565 -1.2926 -0.4279
 8811TIP3    H247849   3.327   1.982   5.452 -2.6804 -1.9315 -0.8663
 8812TIP3   OH247850   4.153   3.859   2.527 -0.8131 -0.2626  0.5925
 8812TIP3    H147851   4.147   3.769   2.494 -2.4270 -0.1156  0.4201
 8812TIP3    H247852   4.232   3.894   2.485 -0.9121 -1.1685 -0.4031
 8813TIP3   OH247853   0.470   6.440  16.380  0.2470 -0.4011  0.2149
 8813TIP3    H147854   0.506   6.432  16.469 -1.4409 -1.8896  0.8199
 8813TIP3    H247855   0.546   6.463  16.326  2.0012 -2.5946  1.5393
 8814TIP3   OH247856   4.476   2.912  12.436 -0.4330 -0.5817 -0.1643
 8814TIP3    H147857   4.395   2.947  12.473  1.1428  0.9130  2.1038
 8814TIP3    H247858   4.488   2.960  12.355  0.0222  1.9831  1.3199
 8815TIP3   OH247859   0.162   4.333  16.407 -0.6707 -0.4650 -0.0893
 8815TIP3    H147860   0.178   4.246  16.444  2.7608  0.0867  0.0150
 8815TIP3    H247861   0.243   4.382  16.424 -1.6599  2.0786 -2.0517
 8816TIP3   OH247862   5.722   0.565   2.701 -0.1406  0.1694 -0.0173
 8816TIP3    H147863   5.683   0.481   2.726 -2.4558  1.4285  0.9002
 8816TIP3    H247864   5.655   0.630   2.722  2.9673  2.7475  3.1286
 8817TIP3   OH247865   3.876   2.611  11.947 -0.0438  0.1380 -0.1608
 8817TIP3    H147866   3.821   2.655  12.013  1.0428 -0.8645  1.4943
 8817TIP3    H247867   3.815   2.591  11.876 -1.6583 -0.0904  1.1969
 8818TIP3   OH247868   5.090   0.369   4.695  0.3204  0.0350 -0.0807
 8818TIP3    H147869   5.151   0.297   4.678 -0.4024 -0.3606 -1.1136
 8818TIP3    H247870   5.062   0.357   4.785  0.3632 -0.8746 -0.1848
 8819TIP3   OH247871   0.550   0.029  16.403 -0.1069 -0.4464 -0.3780
 8819TIP3    H147872   0.624   0.035  16.463 -1.3167  1.8693  1.0014
 8819TIP3    H247873   0.476   0.002  16.458 -0.9314  0.2327 -1.1271
 8820TIP3   OH247874   2.381   1.275   2.980 -0.4700  0.0188  0.7756
 8820TIP3    H147875   2.357   1.329   3.055 -2.2605  0.6607 -0.2135
 8820TIP3    H247876   2.439   1.331   2.928  0.5891 -0.3473  1.5120
 8821TIP3   OH247877   0.487   6.243   3.372 -1.0023  0.4305  0.4870
 8821TIP3    H147878   0.444   6.237   3.286  0.6352 -0.7729 -0.3198
 8821TIP3    H247879   0.477   6.155   3.410  0.7852  0.0573  0.1965
 8822TIP3   OH247880   3.412   4.048  15.084 -0.0119 -0.3077  0.1623
 8822TIP3    H147881   3.335   3.990  15.083  1.1619 -2.1517  3.1559
 8822TIP3    H247882   3.447   4.043  14.995 -3.4740  0.9161 -1.4423
 8823TIP3   OH247883   3.908   1.288  17.086  0.4038 -0.0571 -0.0939
 8823TIP3    H147884   3.904   1.218  17.020  1.6518 -0.5342  0.3036
 8823TIP3    H247885   4.001   1.301  17.101  0.2221  2.1486 -0.5954
 8824TIP3   OH247886   3.945   5.297   5.708 -0.0489  0.1520 -0.3646
 8824TIP3    H147887   4.014   5.360   5.726  1.1712 -0.8474 -1.3232
 8824TIP3    H247888   3.898   5.288   5.790 -0.6162  2.6756 -0.3350
 8825TIP3   OH247889   3.405   6.675   1.744  0.2779 -0.0760  0.1179
 8825TIP3    H147890   3.476   6.615   1.766  1.8931  1.1905 -1.4063
 8825TIP3    H247891   3.384   6.655   1.653 -0.6012  0.2763  0.2370
 8826TIP3   OH247892   1.015   0.123  13.734  0.2942  0.2480 -0.2879
 8826TIP3    H147893   0.937   0.176  13.749 -0.3476 -0.5954 -0.5315
 8826TIP3    H247894   1.088   0.185  13.739 -0.3472  0.9695  0.4321
 8827TIP3   OH247895   1.174   4.556  12.767 -0.4842 -0.3166  0.2349
 8827TIP3    H147896   1.141   4.482  12.818  0.5772 -2.1295 -1.5270
 8827TIP3    H247897   1.196   4.518  12.682 -0.5363  2.2024 -1.0048
 8828TIP3   OH247898   4.780   2.953   5.177  0.0818  0.0532  0.7531
 8828TIP3    H147899   4.712   2.887   5.161  0.1018  0.3611 -0.7187
 8828TIP3    H247900   4.787   2.957   5.273 -1.5337 -0.4306  0.9276
 8829TIP3   OH247901   0.017   5.268   4.361 -0.3399  0.2059  0.1540
 8829TIP3    H147902   0.009   5.362   4.342 -1.0575  0.0721 -0.2549
 8829TIP3    H247903  -0.062   5.247   4.411 -0.1942 -0.1913  0.2200
 8830TIP3   OH247904   0.011   3.017  14.258 -0.7545  0.4509 -0.9207
 8830TIP3    H147905  -0.053   2.982  14.321 -0.2087  0.3876 -0.3916
 8830TIP3    H247906   0.069   2.943  14.240 -0.0202  0.8772 -0.3507
 8831TIP3   OH247907   6.687   1.016  15.219 -0.4298  0.8200  0.1032
 8831TIP3    H147908   6.686   1.103  15.258 -3.0291  0.7769  0.2828
 8831TIP3    H247909   6.716   1.031  15.129 -1.4694  2.0048 -0.0669
 8832TIP3   OH247910   3.802   4.916   3.018  0.3291 -0.3520  0.4919
 8832TIP3    H147911   3.781   4.913   2.924  0.6860 -2.0549  0.4271
 8832TIP3    H247912   3.841   5.002   3.031 -2.8160  1.3282 -0.1920
 8833TIP3   OH247913   1.421   6.174  15.217  0.2452  0.3732  0.3790
 8833TIP3    H147914   1.337   6.208  15.248  1.3175  2.5028  1.1683
 8833TIP3    H247915   1.398   6.110  15.150 -2.0030  0.5578  0.8948
 8834TIP3   OH247916   6.216   6.703  15.957  0.1848  0.4782  0.0383
 8834TIP3    H147917   6.140   6.753  15.928 -0.1785 -0.1817 -0.1725
 8834TIP3    H247918   6.179   6.633  16.011  0.4760 -0.7824 -1.3232
 8835TIP3   OH247919   3.755   5.452  16.542 -0.4029  0.3114 -0.5162
 8835TIP3    H147920   3.764   5.540  16.506 -0.0146 -0.6731 -3.1108
 8835TIP3    H247921   3.677   5.417  16.500  0.3784 -1.1190 -0.8575
 8836TIP3   OH247922   5.725   2.417   4.149  0.5882  0.4707 -0.4226
 8836TIP3    H147923   5.651   2.425   4.088  0.0419 -0.3155  0.1238
 8836TIP3    H247924   5.706   2.479   4.219 -0.6129 -1.1418  0.7535
 8837TIP3   OH247925   5.866   1.804   2.667  0.2580 -0.2624 -0.7733
 8837TIP3    H147926   5.900   1.719   2.693 -0.2146 -0.4754 -0.8372
 8837TIP3    H247927   5.772   1.789   2.653  0.2157  0.2119 -1.0204
 8838TIP3   OH247928   6.606   2.210  14.893 -0.2006 -0.3236 -0.1134
 8838TIP3    H147929   6.659   2.287  14.911  0.1598 -0.8806  1.3051
 8838TIP3    H247930   6.519   2.231  14.928 -0.8754  0.4354 -2.0901
 8839TIP3   OH247931   3.577   2.104  15.273  0.1408 -0.2901  0.7349
 8839TIP3    H147932   3.578   2.199  15.289  0.3957  0.4593 -2.9652
 8839TIP3    H247933   3.664   2.084  15.240 -0.3474 -1.5703  0.1608
 8840TIP3   OH247934   2.166   5.293   5.773 -0.0714  0.2664  0.1441
 8840TIP3    H147935   2.188   5.373   5.821 -0.7151 -0.0699  1.0255
 8840TIP3    H247936   2.081   5.312   5.732  0.7420  0.7590 -1.3751
 8841TIP3   OH247937   3.862   0.298  11.484  0.5325 -0.1349  0.7686
 8841TIP3    H147938   3.905   0.314  11.567 -1.3895  4.5242  1.1743
 8841TIP3    H247939   3.771   0.326  11.498 -0.0225  0.3324 -2.7003
 8842TIP3   OH247940   1.759   4.742  13.161  0.2978 -0.0038  0.2594
 8842TIP3    H147941   1.785   4.681  13.092  1.6645  1.7104 -0.8185
 8842TIP3    H247942   1.677   4.779  13.131  0.9540  0.8328 -0.5621
 8843TIP3   OH247943   3.299   5.508   5.279  0.5271 -0.1100 -0.3677
 8843TIP3    H147944   3.372   5.505   5.217 -0.9597  0.7206 -2.2868
 8843TIP3    H247945   3.249   5.429   5.260 -0.4679  0.6348 -0.9782
 8844TIP3   OH247946   3.747   4.288  12.888 -0.3733 -0.3581  0.0921
 8844TIP3    H147947   3.800   4.208  12.884 -0.6563 -0.5271 -0.2918
 8844TIP3    H247948   3.729   4.300  12.981  0.4771 -0.2071  0.2415
 8845TIP3   OH247949   4.410   6.349   4.051 -0.1869  0.0736 -0.1465
 8845TIP3    H147950   4.481   6.320   4.108  0.4514  2.9464  0.6564
 8845TIP3    H247951   4.344   6.385   4.110 -0.6131  0.8709 -1.0752
 8846TIP3   OH247952   5.094   6.153   3.567  0.1616 -0.2428 -0.3543
 8846TIP3    H147953   5.100   6.092   3.640  0.2642  0.1236 -0.0546
 8846TIP3    H247954   5.155   6.223   3.588 -0.8707  0.6055 -0.0680
 8847TIP3   OH247955   2.059   6.297  16.433  0.6009 -0.8249  0.2786
 8847TIP3    H147956   1.977   6.271  16.476  0.2251 -0.3648 -0.1456
 8847TIP3    H247957   2.126   6.242  16.474  0.0260 -1.4769  0.3629
 8848TIP3   OH247958   3.603   4.130  14.361 -0.1476  0.1167  0.3201
 8848TIP3    H147959   3.545   4.086  14.423 -0.8169  1.5940  0.7791
 8848TIP3    H247960   3.637   4.206  14.408  2.2609 -0.7139  0.0943
 8849TIP3   OH247961   0.821   1.858  16.196  0.4394 -0.4688  0.2484
 8849TIP3    H147962   0.885   1.857  16.124 -0.5343  1.1299 -0.6966
 8849TIP3    H247963   0.872   1.838  16.274  1.8084 -0.7487 -0.6827
 8850TIP3   OH247964   2.212   5.633  12.538 -0.2539  0.1650  0.4774
 8850TIP3    H147965   2.174   5.560  12.489 -1.8215  1.3656 -0.2180
 8850TIP3    H247966   2.205   5.606  12.629 -0.6910 -0.6066  0.2304
 8851TIP3   OH247967   6.764   6.503  14.262 -0.4916 -0.0369 -0.1984
 8851TIP3    H147968   6.840   6.479  14.315  0.0078 -0.1624 -0.9519
 8851TIP3    H247969   6.800   6.562  14.196 -1.1928  0.5001 -0.1068
 8852TIP3   OH247970   0.212   3.000  11.956 -0.3884  0.4592 -0.8176
 8852TIP3    H147971   0.211   2.906  11.976 -1.7556  0.2173 -1.9110
 8852TIP3    H247972   0.260   3.006  11.873  2.8616  1.1655  0.9540
 8853TIP3   OH247973   4.557   6.113  16.587  0.1827 -0.0027 -0.1641
 8853TIP3    H147974   4.645   6.150  16.596 -0.1409  0.6166  0.4594
 8853TIP3    H247975   4.498   6.181  16.619 -0.5758 -0.1921 -1.1065
 8854TIP3   OH247976   4.806   5.823  15.966  0.3372 -0.3756 -0.1358
 8854TIP3    H147977   4.894   5.859  15.962  0.8954 -1.3243  2.1708
 8854TIP3    H247978   4.818   5.730  15.987 -1.1138 -1.6741 -4.0634
 8855TIP3   OH247979   4.285   1.080   0.389  0.3759  0.5998  0.3920
 8855TIP3    H147980   4.327   1.073   0.303 -0.0216 -1.1334  0.3017
 8855TIP3    H247981   4.198   1.115   0.371 -1.3504 -3.5477 -0.5943
 8856TIP3   OH247982   6.268   3.661  13.004 -0.4974  0.2907  0.0943
 8856TIP3    H147983   6.250   3.567  12.999  2.9038 -0.4417 -4.2617
 8856TIP3    H247984   6.240   3.695  12.919 -1.0352  3.1831  1.3209
 8857TIP3   OH247985   2.449   3.969   3.488  0.0340 -0.1376 -0.8773
 8857TIP3    H147986   2.387   4.042   3.495  1.3538  1.0418 -1.0783
 8857TIP3    H247987   2.534   4.008   3.506  0.7961 -1.6048 -1.1749
 8858TIP3   OH247988   0.504   6.131  10.453 -0.4596  0.0540 -0.1156
 8858TIP3    H147989   0.442   6.106  10.385  0.4536  0.7179 -1.2363
 8858TIP3    H247990   0.478   6.080  10.530 -1.9377 -0.1992 -0.7570
 8859TIP3   OH247991   1.004   5.780   6.003  0.0647 -0.5762 -0.5919
 8859TIP3    H147992   0.940   5.775   6.074  0.7653 -0.2499  0.0866
 8859TIP3    H247993   1.029   5.872   5.999 -0.3109 -0.5034 -1.5918
 8860TIP3   OH247994   5.349   0.037  16.432  0.1383  0.2274 -0.1036
 8860TIP3    H147995   5.387  -0.036  16.482  2.8223  1.0581 -0.7692
 8860TIP3    H247996   5.324   0.101  16.499  2.4290  0.7581  0.3210
 8861TIP3   OH247997   2.221   1.323   1.065 -0.4188 -0.5964  0.0392
 8861TIP3    H147998   2.247   1.240   1.105  1.1318  0.3684  1.1173
 8861TIP3    H247999   2.196   1.299   0.975 -1.4219 -2.4146  0.7491
 8862TIP3   OH248000   5.639   1.885  14.057  0.5895  0.0433 -0.3712
 8862TIP3    H148001   5.579   1.837  14.114  0.4199 -0.5401 -1.0299
 8862TIP3    H248002   5.689   1.941  14.117  0.5377 -0.6821  0.3748
 8863TIP3   OH248003   1.335   4.361   2.099 -0.3603  0.6229 -0.6483
 8863TIP3    H148004   1.306   4.311   2.176  0.4264 -1.4743 -1.6329
 8863TIP3    H248005   1.258   4.362   2.041  0.3321 -1.8509 -1.7422
 8864TIP3   OH248006   5.678   1.308   0.779  0.3942  0.4565 -0.1220
 8864TIP3    H148007   5.661   1.299   0.685 -2.4323 -1.2839  0.4196
 8864TIP3    H248008   5.762   1.265   0.792  2.1116  2.9064 -2.1113
 8865TIP3   OH248009   2.286   0.047  13.031  0.4915  0.2112 -0.4864
 8865TIP3    H148010   2.323   0.064  12.945 -3.3196  1.2638 -2.1309
 8865TIP3    H248011   2.308   0.125  13.083 -0.0966  1.2108 -1.6859
 8866TIP3   OH248012   3.124   3.595   2.899 -0.0829 -0.4126  0.0179
 8866TIP3    H148013   3.057   3.555   2.955 -0.4133  0.6615  0.4131
 8866TIP3    H248014   3.206   3.579   2.945 -0.3231  0.2254  0.6936
 8867TIP3   OH248015   2.739   0.032  15.481  0.3980  0.3605 -0.3476
 8867TIP3    H148016   2.740   0.100  15.547 -0.1803 -0.7914  0.9035
 8867TIP3    H248017   2.824  -0.012  15.490 -0.3320 -0.9008  0.8943
 8868TIP3   OH248018   4.247   4.313   6.017 -0.3950 -0.3718  0.4115
 8868TIP3    H148019   4.320   4.271   6.064  0.5307  1.1668  0.4080
 8868TIP3    H248020   4.171   4.260   6.041  0.8032 -2.5080 -0.2081
 8869TIP3   OH248021   5.119   4.301   2.657  0.3186  0.5557 -0.2578
 8869TIP3    H148022   5.050   4.268   2.599  2.3524 -2.9262 -0.9842
 8869TIP3    H248023   5.182   4.343   2.598  1.3812 -1.1639 -0.4335
 8870TIP3   OH248024   4.868   6.381   5.787 -0.6422 -0.3089  0.6352
 8870TIP3    H148025   4.848   6.473   5.766  1.3255  0.3024  1.2060
 8870TIP3    H248026   4.866   6.378   5.882 -1.4659 -1.0747  0.6023
 8871TIP3   OH248027   0.730   6.742  16.626 -0.5177 -0.3116  0.1248
 8871TIP3    H148028   0.743   6.685  16.702  2.1734  1.2067  0.9477
 8871TIP3    H248029   0.713   6.828  16.665 -0.8414  0.1641 -1.0433
 8872TIP3   OH248030   1.651   6.242   0.246 -0.2593  0.2615 -0.4730
 8872TIP3    H148031   1.738   6.211   0.222 -0.4219 -0.1051 -0.6072
 8872TIP3    H248032   1.638   6.322   0.195  0.4620  0.9787  0.4406
 8873TIP3   OH248033   6.345   4.501   2.616  0.1419 -0.2109  0.3087
 8873TIP3    H148034   6.262   4.466   2.648 -0.3686  0.3604 -0.3576
 8873TIP3    H248035   6.398   4.514   2.695  0.5544 -2.9155  0.5723
 8874TIP3   OH248036   5.512   2.869  11.360 -0.3052 -0.1012  0.0614
 8874TIP3    H148037   5.513   2.810  11.284 -0.0186  0.5525 -0.4486
 8874TIP3    H248038   5.474   2.950  11.326  0.8937  0.5818  0.3212
 8875TIP3   OH248039   4.056   6.075   5.295 -0.0792 -0.3234 -0.3460
 8875TIP3    H148040   4.036   6.162   5.329 -0.5424 -0.2969 -0.6834
 8875TIP3    H248041   4.136   6.086   5.245  0.9633 -0.4732  1.2071
 8876TIP3   OH248042   6.282   6.743  12.112 -0.1945  0.1365 -0.2231
 8876TIP3    H148043   6.373   6.757  12.084  0.8230 -1.5568  1.9536
 8876TIP3    H248044   6.231   6.804  12.058  2.1118  0.5873 -2.0739
 8877TIP3   OH248045   3.174   2.337  16.456 -0.0611 -0.1205  0.1694
 8877TIP3    H148046   3.152   2.259  16.405 -0.2390 -0.9782  1.5121
 8877TIP3    H248047   3.269   2.336  16.461  0.0454  0.6078 -1.0629
 8878TIP3   OH248048   3.299   4.987   0.681  0.2646 -0.1103  0.2793
 8878TIP3    H148049   3.247   5.065   0.699 -1.6614 -1.3808  0.4493
 8878TIP3    H248050   3.348   5.009   0.601 -2.4272  0.2891 -1.3749
 8879TIP3   OH248051   2.065   5.528   2.193  0.2578  0.1639 -0.0497
 8879TIP3    H148052   2.087   5.533   2.100  0.5043 -0.4188 -0.0260
 8879TIP3    H248053   2.004   5.455   2.199  1.4959 -0.8686  0.4708
 8880TIP3   OH248054   0.382   3.162  15.212  0.1475 -0.2949  0.0467
 8880TIP3    H148055   0.370   3.220  15.287  1.0277 -0.7637  0.5707
 8880TIP3    H248056   0.303   3.173  15.159  0.0514  0.9260  0.4353
 8881TIP3   OH248057   6.649   6.570  14.001  0.0668 -0.0650 -0.0995
 8881TIP3    H148058   6.572   6.514  13.993 -0.1669 -0.0142  1.5691
 8881TIP3    H248059   6.614   6.657  14.018  0.4721 -0.1659  1.4011
 8882TIP3   OH248060   0.525   2.329  17.074  0.0063 -0.2398  0.0718
 8882TIP3    H148061   0.470   2.387  17.021 -1.2682 -0.3332  1.2116
 8882TIP3    H248062   0.470   2.252  17.090  0.4880 -0.3742  1.1921
 8883TIP3   OH248063   2.341   2.995  13.894  0.0359  0.2920 -0.2564
 8883TIP3    H148064   2.405   2.935  13.933 -0.6221  0.1072  0.5623
 8883TIP3    H248065   2.372   3.082  13.919  0.1221  0.2149 -0.0913
 8884TIP3   OH248066   0.565   1.199   0.863 -0.3453 -0.1972  0.0695
 8884TIP3    H148067   0.589   1.197   0.770  0.6313  0.6011  0.2798
 8884TIP3    H248068   0.555   1.292   0.883 -1.7724 -0.4208  0.4842
 8885TIP3   OH248069   5.141   2.800   3.562 -0.0417 -0.6216  0.1543
 8885TIP3    H148070   5.168   2.891   3.570 -2.1359  0.1478 -0.7253
 8885TIP3    H248071   5.077   2.787   3.632 -2.0128 -0.4417 -1.5305
 8886TIP3   OH248072   0.478   3.374  15.935 -0.5599  0.0785 -0.2983
 8886TIP3    H148073   0.506   3.306  15.873 -0.9960  0.4553 -0.9195
 8886TIP3    H248074   0.540   3.446  15.921  0.1674 -0.3331  0.6611
 8887TIP3   OH248075   3.676   6.670  13.386  0.9044  0.2456 -0.4017
 8887TIP3    H148076   3.611   6.624  13.440  0.8646  0.9631  0.1781
 8887TIP3    H248077   3.760   6.643  13.422  0.8713  1.0398  0.3111
 8888TIP3   OH248078   6.414   4.421  12.409  0.0728 -0.7067 -0.1867
 8888TIP3    H148079   6.345   4.423  12.476 -0.3639  1.5818 -0.6097
 8888TIP3    H248080   6.445   4.512  12.404  2.7905 -1.5536 -0.3898
 8889TIP3   OH248081   2.266   0.125  14.887  0.0193 -0.1651 -0.4832
 8889TIP3    H148082   2.301   0.052  14.835  1.7068  0.1209  0.1819
 8889TIP3    H248083   2.287   0.203  14.836 -2.4379 -0.1149 -1.5544
 8890TIP3   OH248084   2.567   2.350   6.111  0.4201 -0.5485  0.3495
 8890TIP3    H148085   2.649   2.342   6.063  1.1067  1.5485  1.0920
 8890TIP3    H248086   2.586   2.316   6.198  0.4661 -0.1967  0.4781
 8891TIP3   OH248087   4.657   0.413   5.948 -0.1403 -0.0228  0.2139
 8891TIP3    H148088   4.592   0.376   6.008 -0.3942 -0.0395 -0.0703
 8891TIP3    H248089   4.738   0.411   5.998  0.1281 -2.0963 -0.1998
 8892TIP3   OH248090   0.393   1.554   3.949  0.0664  0.2754 -0.2139
 8892TIP3    H148091   0.348   1.564   4.033 -0.5868  0.1933 -0.5510
 8892TIP3    H248092   0.333   1.590   3.884  0.4122  0.0089 -0.6928
 8893TIP3   OH248093   1.537   1.712  17.002  0.4856 -0.2134 -0.1384
 8893TIP3    H148094   1.470   1.759  16.953  0.0092 -0.8045 -0.0739
 8893TIP3    H248095   1.579   1.655  16.938  0.2098 -0.6125  0.0334
 8894TIP3   OH248096   0.828   2.049   5.303 -0.1195 -0.7890  0.0506
 8894TIP3    H148097   0.881   1.975   5.272  2.4188  0.8819  0.1261
 8894TIP3    H248098   0.850   2.121   5.244  0.2751  0.8518  2.0610
 8895TIP3   OH248099   6.521   4.041   3.395  0.3731  0.1615 -0.0671
 8895TIP3    H148100   6.465   4.036   3.317  0.2704  1.8062 -0.1416
 8895TIP3    H248101   6.552   3.952   3.408 -0.3960 -0.3387 -1.4125
 8896TIP3   OH248102   0.074   6.626   3.085  0.3192  0.4553 -0.4247
 8896TIP3    H148103   0.009   6.618   3.015  0.5479  0.1258 -0.6041
 8896TIP3    H248104   0.156   6.595   3.045  0.6203  1.0111 -0.2518
 8897TIP3   OH248105   3.393   5.588   4.300 -0.0227  0.3009  0.5370
 8897TIP3    H148106   3.334   5.529   4.348 -1.6821  1.5003  0.0855
 8897TIP3    H248107   3.364   5.675   4.325 -1.3736  1.0383 -2.9560
 8898TIP3   OH248108   3.525   5.711   1.164 -0.4051 -0.3013 -0.5865
 8898TIP3    H148109   3.481   5.743   1.085 -0.8282 -1.8834 -1.0351
 8898TIP3    H248110   3.458   5.718   1.232 -0.2602  0.4113 -0.5047
 8899TIP3   OH248111   5.510   4.593   2.884 -0.2351 -0.4241 -0.2796
 8899TIP3    H148112   5.529   4.527   2.950  2.6918  0.7868  0.2736
 8899TIP3    H248113   5.485   4.670   2.934  0.7439  0.1222 -0.5970
 8900TIP3   OH248114   6.482   2.634   3.492 -0.0167  0.5888  0.5474
 8900TIP3    H148115   6.416   2.670   3.551 -2.0330 -2.1904  0.1477
 8900TIP3    H248116   6.474   2.687   3.412 -1.7437  0.3518  0.5317
 8901TIP3   OH248117   0.267   3.174   4.442 -0.0436  0.0052  0.3918
 8901TIP3    H148118   0.251   3.210   4.529  0.0590 -0.1843  0.4908
 8901TIP3    H248119   0.340   3.113   4.454  0.0728  0.0937  0.1436
 8902TIP3   OH248120   4.643   2.613   0.906 -0.2774 -0.3177 -0.1226
 8902TIP3    H148121   4.562   2.572   0.878 -0.2794 -0.5294  0.1862
 8902TIP3    H248122   4.684   2.549   0.965 -1.0517  0.7465  1.6619
 8903TIP3   OH248123   1.438   0.572   5.477  0.3458  0.0323 -0.0709
 8903TIP3    H148124   1.509   0.547   5.536  0.6194  0.3721 -0.2521
 8903TIP3    H248125   1.358   0.550   5.525  0.4800 -3.9349 -1.3208
 8904TIP3   OH248126   3.704   3.098   6.173  0.6524  0.3251 -0.3042
 8904TIP3    H148127   3.717   3.176   6.120  0.2711 -1.1633 -2.7522
 8904TIP3    H248128   3.792   3.073   6.201  0.6078  2.6599  2.2303
 8905TIP3   OH248129   0.819   1.691  17.286 -0.1340 -0.1208 -0.1045
 8905TIP3    H148130   0.738   1.641  17.293  0.7663 -1.5070  0.9636
 8905TIP3    H248131   0.888   1.625  17.287  1.0624  1.0925  0.1565
 8906TIP3   OH248132   0.079   0.576   6.673  0.1259  0.2468  0.5262
 8906TIP3    H148133   0.080   0.503   6.734  1.8323  0.5705  0.9255
 8906TIP3    H248134   0.137   0.641   6.712  3.6594 -0.6156 -2.6394
 8907TIP3   OH248135   6.566   1.463   1.128 -0.1322  0.0935 -0.5733
 8907TIP3    H148136   6.568   1.510   1.045  1.5265  0.3661 -0.4123
 8907TIP3    H248137   6.636   1.399   1.121  1.0126  1.0784  1.1309
 8908TIP3   OH248138   2.598   2.466   2.923 -0.0487  0.0041 -0.0977
 8908TIP3    H148139   2.676   2.493   2.876 -0.9139  2.9194 -0.0642
 8908TIP3    H248140   2.558   2.548   2.953 -3.9394 -1.1650 -1.4340
 8909TIP3   OH248141   5.155   5.613  13.389  0.2666 -0.0863  0.5004
 8909TIP3    H148142   5.109   5.627  13.472  1.1357  0.1436  0.9593
 8909TIP3    H248143   5.180   5.700  13.360 -1.3296 -0.0090 -0.8041
 8910TIP3   OH248144   1.181   2.160  11.466  0.0910  0.2188 -0.0931
 8910TIP3    H148145   1.193   2.084  11.410 -1.1183 -0.6620  0.7867
 8910TIP3    H248146   1.266   2.203  11.468  0.1476  0.3700 -2.6960
 8911TIP3   OH248147   5.644   1.026   2.171  0.0395  0.2915 -0.2172
 8911TIP3    H148148   5.569   1.053   2.118 -0.1270  0.5277  0.1400
 8911TIP3    H248149   5.693   0.967   2.113  0.2048  1.0482 -0.8607
 8912TIP3   OH248150   1.862   2.676  12.042 -0.1358 -0.4905  0.1497
 8912TIP3    H148151   1.899   2.758  12.009  0.9099 -1.0103  0.0182
 8912TIP3    H248152   1.935   2.615  12.042 -0.2855 -0.7639  2.5748
 8913TIP3   OH248153   2.640   5.857  15.991  0.1669 -0.2516  0.2420
 8913TIP3    H148154   2.560   5.905  16.010  0.1407  0.1673 -0.8715
 8913TIP3    H248155   2.710   5.913  16.024  0.1964  1.0163 -1.8007
 8914TIP3   OH248156   5.401   4.814   1.899  0.1841 -0.4038 -0.0537
 8914TIP3    H148157   5.476   4.862   1.934 -0.2144  0.5315 -0.4407
 8914TIP3    H248158   5.349   4.881   1.854 -0.6704 -1.1121 -0.1427
 8915TIP3   OH248159   2.528   0.667  12.954 -0.2181  0.0925 -0.0526
 8915TIP3    H148160   2.550   0.722  12.879 -1.3572 -1.0508 -1.2658
 8915TIP3    H248161   2.611   0.625  12.977  0.1309  0.4046 -0.7001
 8916TIP3   OH248162   4.819   6.029  12.391  0.4231  0.1740 -0.4513
 8916TIP3    H148163   4.861   5.969  12.329  0.6582  0.6077 -0.7163
 8916TIP3    H248164   4.804   5.976  12.469  2.8829  0.3765  0.2501
 8917TIP3   OH248165   6.440   2.841   2.997 -0.3447  0.2085 -0.2159
 8917TIP3    H148166   6.504   2.815   2.931  0.7335  1.1023  0.4434
 8917TIP3    H248167   6.482   2.912   3.045 -0.7646 -0.9406  1.9835
 8918TIP3   OH248168   4.275   4.287   4.392 -0.3057  0.0078  0.1791
 8918TIP3    H148169   4.262   4.382   4.398  1.4452  0.3217 -0.4720
 8918TIP3    H248170   4.311   4.261   4.477  0.5464  0.1784 -0.1219
 8919TIP3   OH248171   3.275   5.872  12.056 -0.5711 -0.0724 -0.0556
 8919TIP3    H148172   3.191   5.841  12.090 -1.9855  0.9084 -2.3905
 8919TIP3    H248173   3.300   5.807  11.990  0.3434 -0.1771  0.3823
 8920TIP3   OH248174   3.316   2.570   1.725  0.0372  0.1824  0.1820
 8920TIP3    H148175   3.328   2.521   1.807 -1.0929  0.9465  0.8410
 8920TIP3    H248176   3.234   2.617   1.738 -0.6079 -0.3458 -1.7586
 8921TIP3   OH248177   3.960   2.918   5.094 -0.4423  0.0878  0.6115
 8921TIP3    H148178   3.944   3.008   5.124 -0.5380 -0.4104  2.1842
 8921TIP3    H248179   4.044   2.923   5.049 -1.2609  1.2737 -0.8950
 8922TIP3   OH248180   4.464   2.361  11.464 -0.1369  0.0949  0.3901
 8922TIP3    H148181   4.488   2.315  11.545 -1.3972  0.9338  1.2810
 8922TIP3    H248182   4.372   2.341  11.451 -0.3368  1.1782 -0.0001
 8923TIP3   OH248183   1.036   5.137  14.024  0.5960  0.2687  0.3939
 8923TIP3    H148184   1.100   5.199  13.991  0.2331 -0.1019 -1.0785
 8923TIP3    H248185   0.951   5.177  14.003  0.3560 -0.7721 -0.7630
 8924TIP3   OH248186   3.948   5.478   0.676  0.4829  0.6676  0.0545
 8924TIP3    H148187   3.901   5.561   0.661  0.3139  0.4839 -0.4641
 8924TIP3    H248188   4.029   5.504   0.720  0.6005  1.1492 -0.4341
 8925TIP3   OH248189   6.169   1.660  17.107  0.1018  0.3377 -0.2881
 8925TIP3    H148190   6.236   1.592  17.115 -2.1804 -1.9479  1.0949
 8925TIP3    H248191   6.110   1.627  17.038 -1.1052  0.8230  0.4805
 8926TIP3   OH248192   0.089   1.316  13.567 -0.2656 -0.3472  0.0468
 8926TIP3    H148193   0.115   1.256  13.498  0.9069 -0.1330  0.2804
 8926TIP3    H248194   0.092   1.403  13.527 -0.9450 -0.3395 -0.0047
 8927TIP3   OH248195   1.813   0.652   5.488 -0.6601  0.4461  0.8154
 8927TIP3    H148196   1.850   0.719   5.431  1.3598  0.7177  2.2941
 8927TIP3    H248197   1.835   0.569   5.445 -2.5145  0.6661 -0.6461
 8928TIP3   OH248198   1.928   3.903   2.466  0.0182  0.3127 -0.3766
 8928TIP3    H148199   1.927   3.954   2.547 -0.0111 -0.7539  0.3100
 8928TIP3    H248200   2.003   3.844   2.476 -0.2093 -0.0838 -0.9715
 8929TIP3   OH248201   2.392   6.291   3.637 -0.2665  0.0674 -0.0294
 8929TIP3    H148202   2.372   6.206   3.675 -1.6416  0.9046  1.2157
 8929TIP3    H248203   2.370   6.354   3.706  0.7962  1.4294 -0.8927
 8930TIP3   OH248204   2.076   0.929  16.161  0.4648  0.4581 -0.0890
 8930TIP3    H148205   2.003   0.887  16.115  2.5341 -1.3799 -1.9161
 8930TIP3    H248206   2.082   0.881  16.244  0.4961 -0.4236 -0.5842
 8931TIP3   OH248207   1.284   4.346   1.421 -0.0682 -0.1948 -0.1508
 8931TIP3    H148208   1.293   4.422   1.479  0.3581  1.0123 -1.7361
 8931TIP3    H248209   1.209   4.298   1.456  1.0497 -0.3333  2.2633
 8932TIP3   OH248210   1.640   1.624   5.963 -0.1942  0.3276 -0.1530
 8932TIP3    H148211   1.576   1.663   6.022 -2.6762 -2.2266 -0.9692
 8932TIP3    H248212   1.677   1.551   6.013  0.4076  0.3950 -0.4918
 8933TIP3   OH248213   3.208   0.759  15.301  0.1544  0.0428 -0.2732
 8933TIP3    H148214   3.211   0.853  15.320 -0.5430  0.0713 -0.2958
 8933TIP3    H248215   3.129   0.729  15.345  0.0442 -0.4214 -0.7906
 8934TIP3   OH248216   1.358   5.856   2.920 -0.1868 -0.4470  0.0648
 8934TIP3    H148217   1.383   5.779   2.868 -1.1053 -2.0366  1.8566
 8934TIP3    H248218   1.438   5.881   2.965  0.6530  1.0217 -2.0781
 8935TIP3   OH248219   5.629   3.631   5.255  0.0934 -0.0505  0.5900
 8935TIP3    H148220   5.538   3.602   5.244  0.8806 -1.9949 -1.5120
 8935TIP3    H248221   5.680   3.551   5.254  1.9034  1.0065  1.7201
 8936TIP3   OH248222   5.056   5.525  14.453 -0.4948 -0.2921 -1.0711
 8936TIP3    H148223   5.117   5.545  14.525 -2.0564  1.3884 -0.1395
 8936TIP3    H248224   5.105   5.464  14.397  0.6910 -1.9131  1.5332
 8937TIP3   OH248225   2.042   6.563  11.471 -0.0750 -0.5727  0.7028
 8937TIP3    H148226   1.953   6.557  11.506 -0.8257  1.3299 -0.7285
 8937TIP3    H248227   2.030   6.580  11.378  1.8370 -1.4587  0.2424
 8938TIP3   OH248228   5.426   1.076  11.304 -0.3541 -0.4975  0.5790
 8938TIP3    H148229   5.388   1.022  11.373  2.2524 -0.8783  1.8434
 8938TIP3    H248230   5.451   1.157  11.349 -0.5851  0.1495 -0.4282
 8939TIP3   OH248231   6.002   0.823  12.003  0.1036  0.5545 -0.2393
 8939TIP3    H148232   5.935   0.823  12.072 -0.2859 -0.4012 -0.5968
 8939TIP3    H248233   6.001   0.912  11.969  0.1413  0.9839  0.8284
 8940TIP3   OH248234   5.490   6.405   5.737 -0.3390 -0.0921  0.0294
 8940TIP3    H148235   5.410   6.380   5.784 -0.9022  0.4263 -0.6357
 8940TIP3    H248236   5.482   6.499   5.723  1.1420  0.2552  1.3310
 8941TIP3   OH248237   4.600   3.306   0.119  0.1925 -0.4532  0.3244
 8941TIP3    H148238   4.669   3.343   0.175  2.7363 -2.1002 -1.4836
 8941TIP3    H248239   4.537   3.377   0.108  1.6362  1.1998  2.0109
 8942TIP3   OH248240   2.346   3.836  16.137  0.0589  0.0625 -0.0499
 8942TIP3    H148241   2.371   3.901  16.072 -0.2107  1.9226  1.6104
 8942TIP3    H248242   2.416   3.771  16.134  0.3703  0.4329 -1.7106
 8943TIP3   OH248243   1.220   5.141   6.022  0.1085 -0.4749 -0.2575
 8943TIP3    H148244   1.139   5.095   6.000 -0.0523 -0.5725  0.5065
 8943TIP3    H248245   1.226   5.134   6.118  1.3147 -0.9616 -0.3610
 8944TIP3   OH248246   5.081   5.122  11.883 -0.4782 -0.1454  0.1493
 8944TIP3    H148247   5.120   5.037  11.862  0.8434  0.6560 -0.7353
 8944TIP3    H248248   5.123   5.184  11.823 -0.6957  1.3018  1.4310
 8945TIP3   OH248249   6.686   2.299   3.700 -0.5431 -0.1419 -0.2832
 8945TIP3    H148250   6.652   2.378   3.659 -0.4103  1.6091  2.6760
 8945TIP3    H248251   6.748   2.331   3.766 -2.5208 -2.4311  2.9757
 8946TIP3   OH248252   3.073   0.687   1.485  0.0690  0.4334  0.5890
 8946TIP3    H148253   3.006   0.754   1.497  0.5894  0.9144  0.8318
 8946TIP3    H248254   3.043   0.614   1.539 -0.2217  0.6759  0.7586
 8947TIP3   OH248255   3.813   6.443   0.657  0.2599  0.6061 -0.3608
 8947TIP3    H148256   3.751   6.516   0.661  0.0333  0.4948 -1.4874
 8947TIP3    H248257   3.792   6.398   0.575  1.3958  0.1714 -0.4335
 8948TIP3   OH248258   2.523   2.424  11.772 -0.0669  0.8527 -0.1690
 8948TIP3    H148259   2.522   2.509  11.727  0.3900  1.9411  1.7868
 8948TIP3    H248260   2.602   2.382  11.740  1.0252  2.2144  0.6270
 8949TIP3   OH248261   0.392   1.757  14.909  0.3457 -0.4255  0.2853
 8949TIP3    H148262   0.310   1.763  14.859 -0.0151 -0.7525  0.8317
 8949TIP3    H248263   0.417   1.848  14.924  0.0382 -0.3215  0.1870
 8950TIP3   OH248264   0.051   0.764   2.744 -0.5046 -0.2968  0.0689
 8950TIP3    H148265   0.038   0.859   2.747  0.9134 -0.0819 -0.0845
 8950TIP3    H248266  -0.038   0.728   2.739 -1.0959  0.9753  0.9232
 8951TIP3   OH248267   4.812   5.068  16.676  0.2995  0.1202 -0.0986
 8951TIP3    H148268   4.744   5.008  16.646  0.7488 -2.0561  2.6977
 8951TIP3    H248269   4.783   5.095  16.764  1.3161  2.1070 -0.3210
 8952TIP3   OH248270   2.617   3.825  13.615  0.1800 -0.3236 -0.2487
 8952TIP3    H148271   2.591   3.891  13.551  2.1696  1.6467  0.8646
 8952TIP3    H248272   2.603   3.741  13.570  1.0984  0.9435 -3.1181
 8953TIP3   OH248273   6.743   1.424   5.545 -0.2725 -0.2403  0.5081
 8953TIP3    H148274   6.678   1.411   5.477  0.5098 -1.4325 -0.0577
 8953TIP3    H248275   6.712   1.370   5.618 -0.4147 -0.0434  0.5927
 8954TIP3   OH248276   6.279   2.453  14.585 -0.0213  0.3688 -0.5097
 8954TIP3    H148277   6.361   2.420  14.548 -0.1924  0.0581 -0.6152
 8954TIP3    H248278   6.246   2.381  14.638 -1.0534 -0.1251 -1.7762
 8955TIP3   OH248279   2.608   0.568  12.014  0.2051 -0.0440 -0.1865
 8955TIP3    H148280   2.515   0.574  11.989  0.0148 -1.2665  0.1697
 8955TIP3    H248281   2.610   0.595  12.105  0.0634 -0.8155  0.0506
 8956TIP3   OH248282   0.743   4.895   1.384 -0.0649 -0.0836 -0.5383
 8956TIP3    H148283   0.691   4.815   1.383  1.8751 -1.4192 -1.2329
 8956TIP3    H248284   0.722   4.940   1.302  1.3256 -1.6617 -1.8239
 8957TIP3   OH248285   3.917   3.344   1.937  0.3382 -0.4030 -0.3873
 8957TIP3    H148286   3.868   3.274   1.979 -1.5843  1.2303  0.2445
 8957TIP3    H248287   3.993   3.300   1.897  0.4979 -2.4821  1.9641
 8958TIP3   OH248288   4.858   5.981  13.793  0.1475 -0.1988 -0.6771
 8958TIP3    H148289   4.763   5.985  13.783  0.1074 -0.5864 -0.4554
 8958TIP3    H248290   4.874   5.904  13.848  0.5868 -0.1161 -0.6823
 8959TIP3   OH248291   0.968   3.670   0.314 -0.4619  0.2025  0.0782
 8959TIP3    H148292   0.967   3.747   0.257  1.5004 -0.2757 -0.7012
 8959TIP3    H248293   1.013   3.700   0.393  1.4849 -0.4108 -0.7427
 8960TIP3   OH248294   1.748   1.696  12.717 -0.4800  0.0983 -0.3501
 8960TIP3    H148295   1.792   1.740  12.789 -2.0529  0.5897  0.3558
 8960TIP3    H248296   1.817   1.648  12.672  0.6802  0.4837  0.9615
 8961TIP3   OH248297   2.099   0.036  13.693 -0.0231  0.4655 -0.2747
 8961TIP3    H148298   2.075  -0.018  13.769  3.4720 -0.3249  0.4451
 8961TIP3    H248299   2.056  -0.006  13.619 -0.6625 -0.9023  0.8279
 8962TIP3   OH248300   2.922   5.885  12.509 -0.2461 -0.0712  0.9740
 8962TIP3    H148301   2.916   5.942  12.586  0.4152 -0.6836  1.4886
 8962TIP3    H248302   2.902   5.943  12.435  1.5992  1.1294  1.3611
 8963TIP3   OH248303   4.878   2.353  15.590  0.1134 -0.0989  0.3067
 8963TIP3    H148304   4.841   2.296  15.657  0.4567 -0.2337  0.3852
 8963TIP3    H248305   4.885   2.439  15.633 -0.9520  0.1544  0.0004
 8964TIP3   OH248306   2.363   4.044   2.714  0.0762 -0.1895  0.3040
 8964TIP3    H148307   2.384   4.057   2.806 -0.1268  0.1291  0.3051
 8964TIP3    H248308   2.273   4.010   2.715 -0.8557  2.1070  0.1166
 8965TIP3   OH248309   4.994   3.092   0.080  0.0704 -0.2726  0.4708
 8965TIP3    H148310   4.916   3.091   0.026  1.6248 -2.1214 -1.9958
 8965TIP3    H248311   4.962   3.107   0.169 -3.1372 -1.6323 -0.3177
 8966TIP3   OH248312   0.902   0.514  13.648 -0.4245  0.9691 -0.0934
 8966TIP3    H148313   0.983   0.532  13.600  0.5899 -1.1244  0.7050
 8966TIP3    H248314   0.873   0.430  13.614 -0.4156  0.0930  1.9502
 8967TIP3   OH248315   3.684   3.303  12.930 -0.2428 -0.1725  0.2653
 8967TIP3    H148316   3.650   3.227  12.883  0.2009  0.1342 -0.5699
 8967TIP3    H248317   3.739   3.349  12.866  1.5015 -0.4810  1.4531
 8968TIP3   OH248318   3.801   3.801   1.318  0.2239 -0.3465 -0.7292
 8968TIP3    H148319   3.873   3.737   1.318  0.0358 -0.5913  0.4993
 8968TIP3    H248320   3.833   3.873   1.264 -0.0175 -1.9302 -3.1508
 8969TIP3   OH248321   5.501   5.159   0.370 -0.4760 -0.4765  0.8744
 8969TIP3    H148322   5.410   5.154   0.341  0.4691 -2.0927 -2.2979
 8969TIP3    H248323   5.542   5.219   0.309  0.6017  0.3594  2.3635
 8970TIP3   OH248324   6.523   6.262   1.592  0.2680  0.2914 -0.0500
 8970TIP3    H148325   6.616   6.249   1.577  0.1736  1.9392 -2.8481
 8970TIP3    H248326   6.511   6.357   1.590 -1.4383  0.1463  0.7084
 8971TIP3   OH248327   5.877   5.109   5.486 -0.5522 -0.8413 -1.1215
 8971TIP3    H148328   5.888   5.173   5.416  0.3115 -1.9430 -2.0423
 8971TIP3    H248329   5.897   5.025   5.444  0.1911 -1.5096  0.5177
 8972TIP3   OH248330   2.728   4.741  10.765 -0.2321  0.4564  0.1532
 8972TIP3    H148331   2.636   4.733  10.740 -0.1606  0.5562 -0.1483
 8972TIP3    H248332   2.764   4.804  10.702  0.0232  0.4740  0.3186
 8973TIP3   OH248333   0.275   0.280  13.858  0.4122  0.4311  0.4347
 8973TIP3    H148334   0.268   0.298  13.765  0.6290 -1.6621 -0.0329
 8973TIP3    H248335   0.312   0.361  13.896 -0.9723  1.8064 -1.0413
 8974TIP3   OH248336   0.296   4.975  12.576  0.1017  0.6991  0.7080
 8974TIP3    H148337   0.237   4.914  12.621 -0.9051  0.3721 -0.9639
 8974TIP3    H248338   0.239   5.045  12.546  0.4865  0.2631 -1.1553
 8975TIP3   OH248339   2.568   5.180  15.011  0.0104  0.1023  0.5086
 8975TIP3    H148340   2.564   5.163  14.917  0.5853 -1.4112  0.7321
 8975TIP3    H248341   2.559   5.275  15.019 -1.6352  0.1146 -0.9596
 8976TIP3   OH248342   5.243   4.251  12.561 -0.1892 -0.0766 -0.0876
 8976TIP3    H148343   5.178   4.321  12.570  1.6571  1.7898 -0.4112
 8976TIP3    H248344   5.268   4.253  12.469  1.5539  0.4675  0.3575
 8977TIP3   OH248345   3.096   1.260   2.455  0.4827  0.4336  0.1019
 8977TIP3    H148346   3.170   1.235   2.510 -0.7563  1.3179  2.2759
 8977TIP3    H248347   3.084   1.353   2.471 -1.3632  0.2310  0.1522
 8978TIP3   OH248348   2.284   5.191   4.541  0.4094  0.9139  0.4476
 8978TIP3    H148349   2.343   5.240   4.484  0.6658  0.3206  0.1938
 8978TIP3    H248350   2.339   5.160   4.613  0.3919  0.4500  0.2667
 8979TIP3   OH248351   5.510   6.508   0.936  0.6909 -0.1957  0.1991
 8979TIP3    H148352   5.469   6.585   0.897  0.8498 -0.4914 -0.5568
 8979TIP3    H248353   5.459   6.493   1.016  1.4387  1.4277  1.0273
 8980TIP3   OH248354   2.569   4.460   4.501 -0.5010 -0.3356  0.6651
 8980TIP3    H148355   2.598   4.535   4.448  1.1524 -0.7199  0.9589
 8980TIP3    H248356   2.569   4.387   4.439 -0.9857 -0.3266  0.6483
 8981TIP3   OH248357   5.806   4.837  14.911 -0.1292 -0.2692  0.3752
 8981TIP3    H148358   5.748   4.843  14.987 -1.4450 -0.7098 -0.5457
 8981TIP3    H248359   5.879   4.895  14.932  0.4535 -1.7140  2.7159
 8982TIP3   OH248360   5.748   1.678   4.887  0.1982 -0.9479 -0.0133
 8982TIP3    H148361   5.710   1.647   4.806  0.1971  0.0628 -0.4209
 8982TIP3    H248362   5.816   1.615   4.909 -1.7276 -2.8706  0.7945
 8983TIP3   OH248363   0.081   6.288   2.810  0.7381 -0.2544 -0.4867
 8983TIP3    H148364   0.110   6.358   2.752 -1.6426  1.0061 -0.2763
 8983TIP3    H248365   0.027   6.232   2.754  1.7974 -1.3820 -0.4124
 8984TIP3   OH248366   3.651   0.908  14.836 -0.5988 -0.0240 -0.8478
 8984TIP3    H148367   3.634   0.824  14.879 -0.5909  0.8994  1.0616
 8984TIP3    H248368   3.745   0.907  14.819 -0.6703 -0.5727 -1.2447
 8985TIP3   OH248369   0.739   2.112  12.459 -0.1545 -0.4553  0.5400
 8985TIP3    H148370   0.745   2.199  12.420  0.5894 -1.2067 -1.0927
 8985TIP3    H248371   0.646   2.092  12.460 -0.2497 -0.0307  0.0495
 8986TIP3   OH248372   5.414   1.494   3.438  0.3157  0.3959  0.2962
 8986TIP3    H148373   5.405   1.400   3.421  2.5675  0.2044 -0.2241
 8986TIP3    H248374   5.372   1.536   3.363  0.3080 -0.2305 -0.0564
 8987TIP3   OH248375   3.493   2.095   5.131 -0.7023  0.0324 -0.3407
 8987TIP3    H148376   3.555   2.044   5.182 -1.8225 -0.7102  0.3153
 8987TIP3    H248377   3.532   2.183   5.125 -0.2303 -0.0559  1.1932
 8988TIP3   OH248378   3.751   2.174   4.950  0.4534 -0.2185 -0.5845
 8988TIP3    H148379   3.690   2.244   4.928 -0.6142 -1.3998 -1.5172
 8988TIP3    H248380   3.763   2.125   4.869  2.3639 -0.2738 -0.3327
 8989TIP3   OH248381   1.678   6.506   4.794 -0.5558  0.0000 -0.1495
 8989TIP3    H148382   1.642   6.452   4.724 -0.5198  0.5798 -0.6300
 8989TIP3    H248383   1.773   6.502   4.780 -0.5561  0.2260 -0.2201
 8990TIP3   OH248384   0.799   3.830   3.224  0.6901  0.4982  0.4455
 8990TIP3    H148385   0.734   3.898   3.239 -0.7001 -0.7894  0.5510
 8990TIP3    H248386   0.840   3.817   3.310 -2.7778 -2.4009  1.9383
 8991TIP3   OH248387   0.895   2.179   5.713  0.1030 -0.1029  0.3188
 8991TIP3    H148388   0.828   2.149   5.775  0.3132 -1.0969  0.0775
 8991TIP3    H248389   0.915   2.102   5.660  0.9158  0.3805 -0.0930
 8992TIP3   OH248390   6.029   1.390  17.205  0.7604 -0.6069 -0.0553
 8992TIP3    H148391   6.010   1.476  17.242 -1.9427 -2.0110  2.1778
 8992TIP3    H248392   6.101   1.356  17.258 -0.8399 -1.2366  1.8362
 8993TIP3   OH248393   2.017   3.808   4.073  0.0100  0.1274 -0.0954
 8993TIP3    H148394   2.078   3.752   4.122 -1.3545  0.8114  2.5530
 8993TIP3    H248395   1.962   3.747   4.024 -0.7984 -0.8445  1.9465
 8994TIP3   OH248396   5.876   0.249  16.426 -0.5399 -0.5820 -0.1637
 8994TIP3    H148397   5.920   0.225  16.344  0.7678 -1.5185  0.7563
 8994TIP3    H248398   5.823   0.172  16.448  0.3227 -0.9769  0.6234
 8995TIP3   OH248399   1.410   2.994  11.644  0.2995 -0.0770  0.3518
 8995TIP3    H148400   1.359   2.969  11.567  0.6695  1.1487 -0.3270
 8995TIP3    H248401   1.357   2.965  11.719 -1.1360  0.6292 -0.3397
 8996TIP3   OH248402   3.876   5.285   5.367 -0.7833 -0.0941 -0.3110
 8996TIP3    H148403   3.866   5.353   5.434 -2.2343  1.1693 -1.7066
 8996TIP3    H248404   3.818   5.215   5.395 -0.7412  0.0536  0.1665
 8997TIP3   OH248405   1.091   2.426   4.328 -0.1508  0.8260  0.4077
 8997TIP3    H148406   1.027   2.381   4.273  0.8162 -0.2181  0.1000
 8997TIP3    H248407   1.110   2.365   4.399 -0.3584  1.5998  1.1413
 8998TIP3   OH248408   2.853   4.292   3.210  0.1104  0.2645 -0.1221
 8998TIP3    H148409   2.895   4.206   3.219  0.7020  0.5795  0.1616
 8998TIP3    H248410   2.813   4.308   3.295 -0.8274 -0.1517 -0.4725
 8999TIP3   OH248411   5.338   5.877  14.134  0.0342  0.1246 -0.3045
 8999TIP3    H148412   5.385   5.841  14.059 -0.5101  1.3398 -1.2734
 8999TIP3    H248413   5.253   5.834  14.132  0.7399 -1.4602  0.9601
 9000TIP3   OH248414   5.282   1.208  16.116 -0.7872 -0.0331 -0.5308
 9000TIP3    H148415   5.201   1.170  16.151 -1.6486  3.1098  1.3493
 9000TIP3    H248416   5.331   1.235  16.193  1.5997 -0.8164 -1.6834
 9001TIP3   OH248417   2.306   0.593  10.587  0.5017  0.3693 -0.1000
 9001TIP3    H148418   2.221   0.603  10.629  0.1534  1.0108 -0.9146
 9001TIP3    H248419   2.366   0.642  10.643  0.9411 -2.4263  2.0658
 9002TIP3   OH248420   6.197   0.961   1.218 -0.4892 -0.1468  0.0392
 9002TIP3    H148421   6.169   0.879   1.178  0.4443 -0.6037  0.2734
 9002TIP3    H248422   6.183   1.027   1.150 -1.9673 -0.3608  0.1185
 9003TIP3   OH248423   4.848   2.922  10.717  0.1903  0.7334 -0.2677
 9003TIP3    H148424   4.852   2.864  10.793 -0.5437  0.0907 -0.7032
 9003TIP3    H248425   4.925   2.899  10.666 -0.1136  0.1037 -0.4549
 9004TIP3   OH248426   5.945   2.027   4.091 -0.2581 -0.2842 -0.2973
 9004TIP3    H148427   5.882   2.007   4.022 -0.7183 -2.7177  0.7181
 9004TIP3    H248428   5.892   2.054   4.166  0.0261 -0.4656 -0.0241
 9005TIP3   OH248429   0.469   6.144   0.041  0.8836 -0.2961 -0.0043
 9005TIP3    H148430   0.433   6.138  -0.048  0.5225  0.1110  0.1077
 9005TIP3    H248431   0.545   6.202   0.032 -1.8211  3.7842  0.6768
 9006TIP3   OH248432   0.574   4.822  16.822  0.6836 -0.5638 -0.0089
 9006TIP3    H148433   0.569   4.775  16.738 -0.5632 -1.2137  0.4128
 9006TIP3    H248434   0.583   4.753  16.887 -3.4328 -0.5452  0.8539
 9007TIP3   OH248435   1.448   3.338  12.219 -0.3202 -0.9587  0.5689
 9007TIP3    H148436   1.400   3.377  12.147 -0.9486 -1.5591  0.6547
 9007TIP3    H248437   1.475   3.413  12.273  0.7538 -0.4500 -0.6259
 9008TIP3   OH248438   5.327   6.284  11.117  0.3314 -0.1029  0.6882
 9008TIP3    H148439   5.327   6.235  11.035 -0.4295 -1.0034  1.2115
 9008TIP3    H248440   5.235   6.296  11.138  0.4730  2.2083  0.2176
 9009TIP3   OH248441   0.551   6.492  12.606 -0.4975 -0.4336  0.0222
 9009TIP3    H148442   0.503   6.481  12.524 -2.1655  0.2840  0.8535
 9009TIP3    H248443   0.484   6.484  12.674  0.4642  1.1228  1.2098
 9010TIP3   OH248444   2.809   4.034  10.698  0.0374 -0.2696 -1.0014
 9010TIP3    H148445   2.851   4.058  10.615 -0.3495  0.4723 -0.9851
 9010TIP3    H248446   2.730   4.087  10.702  1.3945  1.7698  1.1010
 9011TIP3   OH248447   0.659   4.972   5.178  0.1266 -0.2921 -0.3501
 9011TIP3    H148448   0.589   5.033   5.156 -0.0999 -0.3431  0.2219
 9011TIP3    H248449   0.664   4.914   5.102 -0.6935 -0.5072 -0.2537
 9012TIP3   OH248450   4.638   4.898  15.022 -0.4774  0.6680  0.1069
 9012TIP3    H148451   4.579   4.916  14.949 -0.5457  1.0188  0.2451
 9012TIP3    H248452   4.683   4.817  14.997 -2.9514 -1.1689  1.1928
 9013TIP3   OH248453   3.177   4.927   3.675 -0.8799  0.2226 -0.1733
 9013TIP3    H148454   3.257   4.886   3.642 -1.5119 -1.8121  0.6567
 9013TIP3    H248455   3.191   5.021   3.662  0.8466 -0.1921 -1.7558
 9014TIP3   OH248456   5.203   6.226  17.286  0.0183 -0.2493 -0.1825
 9014TIP3    H148457   5.252   6.163  17.339  1.3852  0.9210  0.0283
 9014TIP3    H248458   5.157   6.280  17.349 -0.7454 -0.7106 -0.3391
 9015TIP3   OH248459   2.785   3.754  15.027 -0.4166  0.4081 -0.0147
 9015TIP3    H148460   2.809   3.752  14.934 -0.3085 -0.4770  0.0189
 9015TIP3    H248461   2.691   3.735  15.028 -0.5034  0.8433  0.0302
 9016TIP3   OH248462   0.656   6.404   4.422  0.2010 -0.1068  0.2343
 9016TIP3    H148463   0.728   6.467   4.424 -1.3338  1.7055  1.5003
 9016TIP3    H248464   0.578   6.455   4.444 -1.1789 -2.3981  1.0295
 9017TIP3   OH248465   0.622   1.147   0.600  0.6489  0.2195 -0.0912
 9017TIP3    H148466   0.532   1.136   0.570  0.5765  2.0954 -0.6581
 9017TIP3    H248467   0.671   1.080   0.553 -0.3377 -0.4723 -0.1819
 9018TIP3   OH248468   6.652   1.477   4.822 -0.8297  0.2078 -0.1830
 9018TIP3    H148469   6.667   1.409   4.757  2.0954  0.5180  0.0258
 9018TIP3    H248470   6.716   1.459   4.892 -1.1260  2.1639  0.6845
 9019TIP3   OH248471   0.252   6.479   2.952 -0.3764  0.0070 -0.3507
 9019TIP3    H148472   0.257   6.453   2.860  1.2617 -0.4858 -0.1562
 9019TIP3    H248473   0.343   6.499   2.976 -0.8865  0.9254  0.9421
 9020TIP3   OH248474   4.090   5.271   4.552  0.4394  0.2163 -0.1690
 9020TIP3    H148475   4.169   5.304   4.594  0.3372 -2.7050  2.6512
 9020TIP3    H248476   4.122   5.212   4.484  0.8092 -1.5320  1.4466
 9021TIP3   OH248477   5.982   1.763  16.763  0.0564  0.4311 -0.1062
 9021TIP3    H148478   5.980   1.788  16.671  0.8795  1.5654  0.1604
 9021TIP3    H248479   6.026   1.836  16.807  1.2311 -0.8380  0.9400
 9022TIP3   OH248480   3.800   3.042   5.558 -0.3030  0.0728 -0.2287
 9022TIP3    H148481   3.853   2.972   5.519 -2.0834 -0.7793 -1.2678
 9022TIP3    H248482   3.733   2.995   5.609  0.0488  1.1142  1.2348
 9023TIP3   OH248483   5.010   4.305  11.385 -0.1712 -0.3062  0.0171
 9023TIP3    H148484   4.934   4.256  11.352 -0.1650 -0.3108  0.0097
 9023TIP3    H248485   4.975   4.392  11.404 -0.4303 -0.6243  1.0643
 9024TIP3   OH248486   3.385   4.965   4.293 -0.1892 -0.2995  0.0565
 9024TIP3    H148487   3.364   5.039   4.237 -0.4696 -0.7094 -0.3801
 9024TIP3    H248488   3.473   4.939   4.266 -0.6899 -1.0816 -0.8310
 9025TIP3   OH248489   5.058   2.477  11.639 -0.0825 -0.0869  0.0746
 9025TIP3    H148490   4.969   2.443  11.636 -0.2387  0.2650  0.6966
 9025TIP3    H248491   5.049   2.571  11.623  0.2386 -0.1383 -0.4549
 9026TIP3   OH248492   2.088   4.916  14.304  0.4964  0.1461  0.5549
 9026TIP3    H148493   2.136   4.993  14.273 -0.0349 -0.0236 -0.7268
 9026TIP3    H248494   1.996   4.940  14.295  0.3286 -0.3403  0.9391
 9027TIP3   OH248495   4.323   0.269  16.292 -0.2605 -0.3940 -0.3675
 9027TIP3    H148496   4.254   0.233  16.236  0.6204  1.7189 -3.0328
 9027TIP3    H248497   4.280   0.338  16.342 -0.2930  0.5566 -1.6371
 9028TIP3   OH248498   0.147   2.748  14.636 -0.2540 -0.2917 -0.0117
 9028TIP3    H148499   0.230   2.773  14.595 -0.6845 -1.1775 -1.4645
 9028TIP3    H248500   0.087   2.819  14.613 -0.1395 -0.0924  0.2928
 9029TIP3   OH248501   2.536   3.437  14.084 -0.8200  0.1322 -0.3868
 9029TIP3    H148502   2.624   3.418  14.118 -0.9430 -0.3978 -0.3453
 9029TIP3    H248503   2.549   3.508  14.022  0.1600 -1.8634 -2.6664
 9030TIP3   OH248504   2.951   1.509   3.068 -0.1240  0.0887 -0.9896
 9030TIP3    H148505   2.976   1.587   3.019 -0.3701  0.1448 -1.0239
 9030TIP3    H248506   2.886   1.539   3.131 -0.9665 -0.2646 -1.6724
 9031TIP3   OH248507   5.166   3.084  12.757  0.1535 -0.5619 -0.1185
 9031TIP3    H148508   5.194   3.023  12.824  0.6053 -0.6964 -0.4252
 9031TIP3    H248509   5.227   3.070  12.684  0.0739  0.0285 -0.3104
 9032TIP3   OH248510   1.759   6.318   2.703  0.2983  0.3761 -0.2178
 9032TIP3    H148511   1.791   6.375   2.633  0.5121  1.4727  0.7263
 9032TIP3    H248512   1.823   6.330   2.774 -0.5903  0.2837  0.6205
 9033TIP3   OH248513   3.476   3.402   0.299  1.0130 -0.0162  0.0034
 9033TIP3    H148514   3.531   3.433   0.227  0.2909  0.6626 -0.2766
 9033TIP3    H248515   3.395   3.373   0.256  1.2048 -1.1914  0.3848
 9034TIP3   OH248516   3.637   3.994  11.284 -0.3164 -0.1834 -0.3544
 9034TIP3    H148517   3.712   4.029  11.236 -0.3044  0.7755  0.3147
 9034TIP3    H248518   3.575   4.067  11.287 -0.0313  0.0326  1.6349
 9035TIP3   OH248519   2.343   4.824  16.980 -0.1204  0.3071  0.2932
 9035TIP3    H148520   2.416   4.832  17.041 -0.6258  1.2113  0.7902
 9035TIP3    H248521   2.272   4.786  17.031 -0.8749  2.0131  0.5792
 9036TIP3   OH248522   2.997   5.837  17.115  0.0488  0.8236 -0.9274
 9036TIP3    H148523   3.042   5.921  17.122 -0.0465  0.7021  2.7078
 9036TIP3    H248524   2.904   5.859  17.121  0.0417  0.4681  0.5510
 9037TIP3   OH248525   6.066   1.110  12.750 -0.9420 -0.1168 -0.0915
 9037TIP3    H148526   6.028   1.062  12.823 -1.4051  0.5161  0.0953
 9037TIP3    H248527   6.160   1.099  12.760 -0.8741  1.6223  1.7996
 9038TIP3   OH248528   4.347   1.139  14.172  0.5188 -0.0759  0.1145
 9038TIP3    H148529   4.324   1.077  14.241  0.0299 -1.4388 -1.2267
 9038TIP3    H248530   4.437   1.116  14.149  0.4751 -0.0278 -0.1072
 9039TIP3   OH248531   6.509   1.753   4.818  0.0882  0.5528  0.4772
 9039TIP3    H148532   6.575   1.815   4.849  1.4654 -0.1596 -0.8800
 9039TIP3    H248533   6.547   1.667   4.835 -0.3373  0.1289 -0.6322
 9040TIP3   OH248534   0.917   5.020  16.160 -0.0587 -0.0129  0.1357
 9040TIP3    H148535   0.824   5.043  16.156 -0.5975 -1.9561  0.1735
 9040TIP3    H248536   0.917   4.928  16.189  1.8036 -0.5464 -1.3514
 9041TIP3   OH248537   4.330   2.684   0.599 -0.0377 -0.1922  0.8945
 9041TIP3    H148538   4.355   2.711   0.687  2.9941 -1.8593  0.6705
 9041TIP3    H248539   4.283   2.601   0.612  0.7215 -0.6240  0.9736
 9042TIP3   OH248540   6.671   4.296   3.848 -0.1403  0.2067 -0.4327
 9042TIP3    H148541   6.670   4.293   3.752 -0.3253  1.6530 -0.5027
 9042TIP3    H248542   6.709   4.382   3.868  2.4498 -1.1328  0.8466
 9043TIP3   OH248543   1.440   2.302   0.311  0.2178 -0.0075  0.3110
 9043TIP3    H148544   1.447   2.245   0.388 -0.8662 -0.2788  0.2243
 9043TIP3    H248545   1.530   2.312   0.280  0.5995 -0.3762  1.2686
 9044TIP3   OH248546   0.802   4.903  15.439  0.0819 -0.5786  0.6354
 9044TIP3    H148547   0.758   4.867  15.515 -0.2217 -0.3045  0.5917
 9044TIP3    H248548   0.808   4.997  15.457  1.3002 -0.6960  0.9699
 9045TIP3   OH248549   3.269   6.147  12.577 -0.7703  0.0591  0.1799
 9045TIP3    H148550   3.311   6.214  12.522 -0.4600  0.0786  0.4398
 9045TIP3    H248551   3.315   6.152  12.660 -1.1545 -0.0623  0.4024
 9046TIP3   OH248552   1.149   2.655   0.599 -0.5942  0.2857  0.0074
 9046TIP3    H148553   1.146   2.659   0.504 -0.6875  1.5407  0.0438
 9046TIP3    H248554   1.148   2.562   0.620  0.6412 -0.0320 -1.2520
 9047TIP3   OH248555   4.979   6.116  13.564  0.2724  0.2622 -0.6056
 9047TIP3    H148556   5.020   6.179  13.623 -0.5796  0.8706 -0.6558
 9047TIP3    H248557   4.951   6.045  13.621  0.9529  0.0593 -0.5102
 9048TIP3   OH248558   5.621   4.363   1.613 -0.6715 -0.2463 -0.2001
 9048TIP3    H148559   5.622   4.436   1.673 -1.3373  0.4889 -1.0540
 9048TIP3    H248560   5.707   4.364   1.571  0.5267 -1.8901  1.9826
 9049TIP3   OH248561   6.652   5.982  13.917  0.0781 -0.5037 -0.4617
 9049TIP3    H148562   6.747   5.996  13.915  0.2236 -0.8670  1.3942
 9049TIP3    H248563   6.615   6.064  13.887  0.9811 -0.2418 -0.9014
 9050TIP3   OH248564   3.940   5.851   5.424 -1.1858 -0.0073 -0.3631
 9050TIP3    H148565   3.902   5.896   5.499 -1.1026  2.0169 -1.4682
 9050TIP3    H248566   3.959   5.921   5.361 -0.5671 -1.5531 -1.9749
 9051TIP3   OH248567   6.213   6.309   6.095 -0.4071  0.0338  0.4099
 9051TIP3    H148568   6.296   6.317   6.140 -0.9996  1.9426  1.2805
 9051TIP3    H248569   6.159   6.254   6.152 -0.1897 -0.0620  0.5224
 9052TIP3   OH248570   3.018   3.132  13.486  0.0384 -0.1371  0.8715
 9052TIP3    H148571   2.924   3.145  13.476  0.6007  2.6071 -2.5271
 9052TIP3    H248572   3.052   3.217  13.514  1.6574 -0.6349  0.5327
 9053TIP3   OH248573   6.104   0.761  16.788 -0.6721 -0.9262  0.3059
 9053TIP3    H148574   6.099   0.857  16.792  0.2580 -0.9159  2.7567
 9053TIP3    H248575   6.013   0.732  16.794 -0.8189 -0.1849  2.4998
 9054TIP3   OH248576   0.248   1.802  11.500 -0.1567  0.0434  0.3066
 9054TIP3    H148577   0.312   1.874  11.504 -0.8049  0.6152  0.4462
 9054TIP3    H248578   0.252   1.772  11.409 -0.0144  0.3714  0.2019
 9055TIP3   OH248579   3.734   1.208  12.583  0.8336  0.0144 -0.5215
 9055TIP3    H148580   3.804   1.273  12.589  1.7909 -1.0891  1.7953
 9055TIP3    H248581   3.749   1.151  12.658 -2.7422 -0.1065  0.2834
 9056TIP3   OH248582   4.051   2.669  15.904 -0.1692 -0.3230 -0.1217
 9056TIP3    H148583   3.992   2.605  15.943 -1.5885  0.2198 -1.2705
 9056TIP3    H248584   4.107   2.617  15.846 -1.2014 -0.5818 -0.9244
 9057TIP3   OH248585   4.439   2.768  12.169  0.0901 -0.0540 -0.0137
 9057TIP3    H148586   4.428   2.834  12.237  0.0408  1.6238 -1.5810
 9057TIP3    H248587   4.445   2.818  12.088 -1.8040 -2.0643 -1.5021
 9058TIP3   OH248588   2.380   1.237   3.814 -0.0859 -0.1599 -0.3113
 9058TIP3    H148589   2.382   1.144   3.791  0.5089 -0.5203  1.1279
 9058TIP3    H248590   2.421   1.241   3.900 -1.0344  1.3117  0.0888
 9059TIP3   OH248591   4.921   0.954   4.006 -0.1919  0.3259  0.0723
 9059TIP3    H148592   4.907   1.043   4.039 -0.4553  0.9083 -1.4851
 9059TIP3    H248593   4.851   0.902   4.044  0.2148  0.6651  1.3501
 9060TIP3   OH248594   5.167   5.671  16.010  0.4614  0.5166  0.3033
 9060TIP3    H148595   5.227   5.597  15.998  0.1099  0.2130  0.3738
 9060TIP3    H248596   5.163   5.714  15.925 -0.4184 -0.3855 -0.1385
 9061TIP3   OH248597   4.293   3.189  13.680 -0.4314 -0.1705  0.2174
 9061TIP3    H148598   4.326   3.099  13.680  0.8389  0.2668  0.0162
 9061TIP3    H248599   4.349   3.234  13.616 -1.8188  0.4951 -0.5735
 9062TIP3   OH248600   3.630   5.206   1.831 -0.1812  0.5430  0.4735
 9062TIP3    H148601   3.585   5.209   1.916 -1.3099  0.4103 -0.0928
 9062TIP3    H248602   3.652   5.298   1.813 -1.3534  0.7898  0.2038
 9063TIP3   OH248603   1.294   4.196   4.369  0.0395  0.0619  0.1626
 9063TIP3    H148604   1.365   4.220   4.310 -0.0042  1.0076  0.4774
 9063TIP3    H248605   1.266   4.279   4.409 -0.6357 -0.4136  0.7186
 9064TIP3   OH248606   2.713   0.258  14.852  0.2151 -0.2890 -0.6303
 9064TIP3    H148607   2.647   0.322  14.879  0.4695 -0.4200  0.3412
 9064TIP3    H248608   2.684   0.176  14.890  0.5644 -0.4912 -0.8008
 9065TIP3   OH248609   4.383   6.498  13.207  0.1961  0.5941  0.0191
 9065TIP3    H148610   4.476   6.502  13.233  0.2608  0.0324 -0.1321
 9065TIP3    H248611   4.380   6.435  13.135 -0.7998 -2.0582  2.2261
 9066TIP3   OH248612   0.562   0.841  12.465 -0.4919 -0.3448 -0.1991
 9066TIP3    H148613   0.619   0.896  12.412 -0.3351 -0.3065  0.0103
 9066TIP3    H248614   0.549   0.762  12.412 -0.8124 -0.0635 -0.5521
 9067TIP3   OH248615   3.271   4.577  15.103 -0.0119 -0.5433  0.1265
 9067TIP3    H148616   3.182   4.587  15.070  0.8444 -0.0631 -2.2557
 9067TIP3    H248617   3.281   4.483  15.118 -0.2476 -0.9439 -1.8810
 9068TIP3   OH248618   5.859   2.314   0.821 -0.4651 -0.0868  0.1730
 9068TIP3    H148619   5.859   2.221   0.797  1.3980 -0.2069  0.4660
 9068TIP3    H248620   5.847   2.314   0.916  1.8839 -0.2318  0.5364
 9069TIP3   OH248621   3.154   4.326   5.976  0.0913  0.0658  0.5450
 9069TIP3    H148622   3.213   4.250   5.981 -0.8344 -0.7850 -0.9122
 9069TIP3    H248623   3.162   4.367   6.062  3.0921  0.2279  0.3071
 9070TIP3   OH248624   4.381   6.758  12.869  0.0398  0.2465  0.2485
 9070TIP3    H148625   4.450   6.825  12.866 -1.5546  2.0934  1.8314
 9070TIP3    H248626   4.306   6.800  12.826 -0.2896 -1.5672 -1.0775
 9071TIP3   OH248627   5.402   3.399  14.141  0.1977 -0.3813 -0.4776
 9071TIP3    H148628   5.396   3.347  14.061  0.9041  0.2709 -0.9733
 9071TIP3    H248629   5.394   3.490  14.112  0.0522 -0.1517  0.2456
 9072TIP3   OH248630   3.869   3.997  13.946 -0.7358 -0.4953  0.1230
 9072TIP3    H148631   3.942   4.021  13.890 -0.2915  0.6461  1.1604
 9072TIP3    H248632   3.840   3.912  13.912 -0.5891  0.2202 -1.9199
 9073TIP3   OH248633   3.195   3.135  14.844 -0.8666 -0.5449  0.6363
 9073TIP3    H148634   3.270   3.124  14.786  0.0070  2.2071  1.0815
 9073TIP3    H248635   3.197   3.059  14.901  2.0415 -0.2580  1.0579
 9074TIP3   OH248636   5.605   5.173  16.544  0.1193 -0.3369 -0.9714
 9074TIP3    H148637   5.525   5.223  16.528 -0.5983 -1.3517 -0.6005
 9074TIP3    H248638   5.584   5.116  16.617  2.1080  1.4189  1.1208
 9075TIP3   OH248639   5.492   6.196  14.480 -0.0751  0.0871  0.0905
 9075TIP3    H148640   5.411   6.163  14.441  0.1043 -2.3000  1.5106
 9075TIP3    H248641   5.560   6.179  14.415 -0.1917 -1.3074  0.3102
 9076TIP3   OH248642   1.434   1.574   4.793  0.2436 -0.5157  0.1331
 9076TIP3    H148643   1.360   1.598   4.848 -0.1388 -2.4549  0.5309
 9076TIP3    H248644   1.397   1.570   4.704  0.1413 -0.3515  0.1684
 9077TIP3   OH248645   1.287   2.419  15.621  0.1238 -0.2203  0.3936
 9077TIP3    H148646   1.259   2.458  15.704  0.8515 -0.3046  0.6868
 9077TIP3    H248647   1.208   2.379  15.586 -0.6266  1.3694  0.1677
 9078TIP3   OH248648   6.109   5.951   1.878  0.2329 -0.3779  0.5529
 9078TIP3    H148649   6.130   5.894   1.953 -1.1324 -1.4506  0.1536
 9078TIP3    H248650   6.161   5.914   1.806  1.0911  0.2972  0.8020
 9079TIP3   OH248651   4.591   3.197  16.632 -0.1217 -0.3497  0.0989
 9079TIP3    H148652   4.518   3.224  16.686 -0.1818  0.3317 -0.3199
 9079TIP3    H248653   4.669   3.226  16.680 -0.1911  0.8849 -0.4963
 9080TIP3   OH248654   1.879   2.340   0.970 -0.3515  0.2187  0.2661
 9080TIP3    H148655   1.901   2.401   1.040 -1.2409  0.2335  0.5449
 9080TIP3    H248656   1.802   2.378   0.929 -1.1845 -0.9286  0.7287
 9081TIP3   OH248657   2.336   6.425  13.602  0.1460  0.1664 -0.1688
 9081TIP3    H148658   2.381   6.341  13.610  2.1032  1.0592 -0.9736
 9081TIP3    H248659   2.244   6.402  13.588  0.3518 -1.7650  1.2600
 9082TIP3   OH248660   6.637   5.344   6.518  0.1858  0.4750  0.7339
 9082TIP3    H148661   6.711   5.391   6.558  0.9481  0.8754 -1.0601
 9082TIP3    H248662   6.576   5.329   6.591  1.1740  1.8035  1.8865
 9083TIP3   OH248663   1.244   2.113   5.254  0.1666 -0.2270  0.5998
 9083TIP3    H148664   1.178   2.048   5.229  1.4058 -1.3918  0.2400
 9083TIP3    H248665   1.327   2.070   5.237  1.1023  2.1841 -1.6407
 9084TIP3   OH248666   1.141   5.002   4.853  0.5761  0.4574 -0.0753
 9084TIP3    H148667   1.164   4.910   4.871 -0.0477  0.4653  0.8789
 9084TIP3    H248668   1.073   5.022   4.918 -1.5236  0.6719 -2.2119
 9085TIP3   OH248669   2.980   2.249   5.193  0.1219  0.8868  0.2356
 9085TIP3    H148670   2.912   2.184   5.210 -2.8367  3.5195 -0.5866
 9085TIP3    H248671   3.006   2.279   5.281  0.5949 -0.4587  0.5736
 9086TIP3   OH248672   4.380   0.682   3.226  0.5101  0.2505 -0.4883
 9086TIP3    H148673   4.363   0.736   3.149  0.7049  0.6556 -0.2525
 9086TIP3    H248674   4.449   0.622   3.198  0.3134  0.1423 -0.7427
 9087TIP3   OH248675   4.217   0.716  13.909  0.2662 -0.4298 -0.1945
 9087TIP3    H148676   4.239   0.807  13.930 -1.9401 -0.1886  1.3804
 9087TIP3    H248677   4.239   0.707  13.816  3.4628  0.7164  0.3264
 9088TIP3   OH248678   5.982   1.515   0.693  0.3029  0.6094  0.2821
 9088TIP3    H148679   6.036   1.466   0.755  0.0986  0.4472  0.3323
 9088TIP3    H248680   5.932   1.576   0.747  1.8443  2.1343  0.0819
 9089TIP3   OH248681   3.981   2.238   0.563 -0.1545  0.0901 -0.0035
 9089TIP3    H148682   4.013   2.191   0.486  0.9934  0.0183  0.5133
 9089TIP3    H248683   3.896   2.198   0.582  0.1605 -0.7898 -0.4312
 9090TIP3   OH248684   2.482   0.133   5.316  0.1056  0.0939 -1.0692
 9090TIP3    H148685   2.405   0.101   5.363  0.2308  0.1409 -0.8344
 9090TIP3    H248686   2.504   0.062   5.255  0.5733 -0.4063 -0.3298
 9091TIP3   OH248687   0.394   4.814  12.362  0.4927 -0.6604 -1.0129
 9091TIP3    H148688   0.362   4.866  12.436 -1.1958  1.0763 -2.8275
 9091TIP3    H248689   0.478   4.853  12.341 -0.0047  0.2889 -1.3132
 9092TIP3   OH248690   4.379   4.268  14.800  0.0553 -0.1493 -0.3067
 9092TIP3    H148691   4.389   4.345  14.856 -0.4412 -0.5539  0.3472
 9092TIP3    H248692   4.461   4.264  14.750  0.1925  0.6454 -0.1561
 9093TIP3   OH248693   2.334   0.555   2.257  0.0839 -0.4643 -0.2275
 9093TIP3    H148694   2.273   0.581   2.326 -0.5571 -0.6188 -0.7160
 9093TIP3    H248695   2.384   0.634   2.237 -0.0411 -0.3024  0.0959
 9094TIP3   OH248696   1.314   3.337  15.260 -0.1876 -0.1528  0.1200
 9094TIP3    H148697   1.373   3.343  15.186 -0.1718  0.8431  0.1965
 9094TIP3    H248698   1.368   3.303  15.331 -0.1722 -0.9851 -0.2817
 9095TIP3   OH248699   5.265   4.218  15.633 -0.1308  0.4621  0.2546
 9095TIP3    H148700   5.176   4.184  15.630 -0.0742  0.3312 -0.0485
 9095TIP3    H248701   5.320   4.141  15.642  0.0791  0.3122 -1.7263
 9096TIP3   OH248702   1.540   2.295  15.460  0.1247 -0.7716  0.3291
 9096TIP3    H148703   1.629   2.300  15.425 -0.4667  1.0400 -1.0487
 9096TIP3    H248704   1.552   2.271  15.552  1.9746 -1.4334 -0.0340
 9097TIP3   OH248705   6.349   1.535  16.621  0.4768  0.2784 -0.3244
 9097TIP3    H148706   6.266   1.494  16.645  0.5563 -0.1710 -0.7962
 9097TIP3    H248707   6.354   1.524  16.526  0.2880  1.7972 -0.5258
 9098TIP3   OH248708   2.268   5.981  14.220 -0.5169 -0.0633 -0.1192
 9098TIP3    H148709   2.217   5.910  14.258  2.4623 -1.7655  1.0831
 9098TIP3    H248710   2.269   6.049  14.287 -0.2441 -0.5268  0.3561
 9099TIP3   OH248711   5.405   3.531   4.916 -0.1125 -0.4299  0.6575
 9099TIP3    H148712   5.342   3.524   4.844  1.5187 -0.7225 -0.8124
 9099TIP3    H248713   5.370   3.474   4.984 -2.5105  1.0498  0.7914
 9100TIP3   OH248714   3.450   6.327   1.808 -0.4431 -0.0116 -0.0965
 9100TIP3    H148715   3.492   6.311   1.723 -0.0201 -1.4196  0.3495
 9100TIP3    H248716   3.494   6.267   1.868 -0.1603  1.5292  1.3190
 9101TIP3   OH248717   0.616   4.587   1.694 -0.0211 -0.0056  0.4581
 9101TIP3    H148718   0.653   4.515   1.644 -1.1295 -1.3127  1.4480
 9101TIP3    H248719   0.669   4.590   1.774  1.1663  1.4862 -0.3368
 9102TIP3   OH248720   1.791   2.888   1.946 -0.0183 -0.3249  0.1802
 9102TIP3    H148721   1.723   2.904   1.881  0.8452  0.0942 -0.6497
 9102TIP3    H248722   1.755   2.922   2.028 -0.3923  0.8946 -0.4616
 9103TIP3   OH248723   0.799   6.151   4.489 -0.3701 -0.2241  0.3523
 9103TIP3    H148724   0.752   6.232   4.468  1.2123  0.5292 -0.5488
 9103TIP3    H248725   0.846   6.171   4.570  1.0257  0.2613 -0.5343
 9104TIP3   OH248726   0.734   0.986   6.405  0.5074  0.2516 -0.1979
 9104TIP3    H148727   0.638   0.989   6.400  0.5502  1.7820 -0.4829
 9104TIP3    H248728   0.762   1.075   6.384  1.9345  0.1543  1.1333
 9105TIP3   OH248729   2.860   4.421  13.109 -0.0761  0.0086 -0.0149
 9105TIP3    H148730   2.778   4.374  13.095 -0.2953 -0.6943  2.9508
 9105TIP3    H248731   2.892   4.440  13.021 -2.6144 -1.0698 -1.2742
 9106TIP3   OH248732   5.988   6.328   5.868 -0.3196 -0.0979  0.3561
 9106TIP3    H148733   5.903   6.345   5.829 -0.2673  1.7108  0.9508
 9106TIP3    H248734   5.971   6.263   5.937 -1.2198  0.3105  0.5288
 9107TIP3   OH248735   2.660   5.901  15.488 -0.2502  0.1844  0.1987
 9107TIP3    H148736   2.619   5.943  15.564  0.2679  1.4350 -0.1842
 9107TIP3    H248737   2.630   5.811  15.492 -1.3037  0.5453  1.1447
 9108TIP3   OH248738   2.789   3.328   1.264 -0.0833  0.1420 -0.4846
 9108TIP3    H148739   2.703   3.351   1.298  0.3535  0.2013  0.6151
 9108TIP3    H248740   2.836   3.412   1.258 -0.0399  0.0892 -0.9015
 9109TIP3   OH248741   4.983   3.762  14.326  0.0862  0.0240  0.0736
 9109TIP3    H148742   5.047   3.830  14.348  2.4874 -1.8839 -0.5775
 9109TIP3    H248743   5.036   3.688  14.298 -2.3559 -2.4768  1.6304
 9110TIP3   OH248744   2.576   5.108  10.517 -0.4007 -0.5860 -0.2873
 9110TIP3    H148745   2.582   5.018  10.485 -0.9416 -1.9239  2.9983
 9110TIP3    H248746   2.497   5.109  10.571 -1.9303  2.6688 -2.2763
 9111TIP3   OH248747   1.813   4.272  10.872  0.3042 -0.2849 -0.0288
 9111TIP3    H148748   1.767   4.332  10.812  0.3755  1.0315  1.2006
 9111TIP3    H248749   1.852   4.207  10.814 -0.5698  0.3019 -1.3365
 9112TIP3   OH248750   5.605   2.815  15.991 -0.3825  0.3404  0.5173
 9112TIP3    H148751   5.621   2.782  15.903 -2.6358  1.6379 -0.4920
 9112TIP3    H248752   5.686   2.859  16.015 -0.4201  2.0065 -1.9630
 9113TIP3   OH248753   0.895   2.445  14.394 -0.6534 -0.2591  0.4706
 9113TIP3    H148754   0.983   2.420  14.364  0.5400  2.1430  1.6688
 9113TIP3    H248755   0.852   2.479  14.315  0.8246  1.8148  0.4791
 9114TIP3   OH248756   0.802   2.104   0.831 -1.1553 -0.4880  0.2271
 9114TIP3    H148757   0.795   2.079   0.739  0.1341 -2.2696  0.5559
 9114TIP3    H248758   0.742   2.178   0.841 -0.1097  0.8172 -2.4003
 9115TIP3   OH248759   0.072   1.844   4.393 -0.0596  0.7623  0.5398
 9115TIP3    H148760   0.162   1.811   4.382 -0.2131  0.5082  0.0350
 9115TIP3    H248761   0.027   1.775   4.441  0.3015  1.3678  1.7814
 9116TIP3   OH248762   2.316   0.645   6.610  0.1782  0.1659  0.1188
 9116TIP3    H148763   2.295   0.588   6.684 -0.5991 -0.3128 -0.4597
 9116TIP3    H248764   2.264   0.724   6.625  0.9292  0.5554  0.6982
 9117TIP3   OH248765   3.353   3.463  12.309  0.3175  0.5429 -0.3005
 9117TIP3    H148766   3.283   3.460  12.375  0.6896  0.0654  0.0758
 9117TIP3    H248767   3.383   3.373  12.302  2.6770  1.1087  1.4683
 9118TIP3   OH248768   5.530   6.391   3.740 -0.0657  0.1301  0.3739
 9118TIP3    H148769   5.501   6.437   3.819  1.2507  0.1173  0.8754
 9118TIP3    H248770   5.584   6.454   3.694 -0.1537 -0.1430 -0.1048
 9119TIP3   OH248771   5.359   3.184   5.439  0.5563 -0.6009  0.2683
 9119TIP3    H148772   5.437   3.149   5.396 -0.4368 -1.3607 -0.9864
 9119TIP3    H248773   5.339   3.264   5.391  0.3185 -0.6328  0.3124
 9120TIP3   OH248774   2.210   6.512  16.693  1.3230  0.4054 -0.3074
 9120TIP3    H148775   2.282   6.482  16.638  0.7287  0.8946 -1.3701
 9120TIP3    H248776   2.155   6.565  16.635  1.1226  1.6469  0.9526
 9121TIP3   OH248777   5.708   1.270  10.451 -0.3685 -0.1907  0.1475
 9121TIP3    H148778   5.782   1.327  10.470 -0.3206  0.3325 -1.4888
 9121TIP3    H248779   5.747   1.189  10.419 -0.4544  0.4790 -1.7972
 9122TIP3   OH248780   5.162   3.745  12.261 -0.7817  0.3963  0.0232
 9122TIP3    H148781   5.212   3.821  12.232 -2.5324  1.0652 -1.4561
 9122TIP3    H248782   5.200   3.671  12.213 -0.9544  0.8262 -0.7874
 9123TIP3   OH248783   0.200   5.230   6.123  0.1980 -0.1931  0.1873
 9123TIP3    H148784   0.117   5.191   6.149 -1.0419 -0.1973 -3.2074
 9123TIP3    H248785   0.216   5.300   6.186 -1.4333 -1.3470  1.9520
 9124TIP3   OH248786   6.683   4.922   1.513 -0.6200  0.3042 -0.0135
 9124TIP3    H148787   6.726   4.837   1.509 -1.8820 -0.4349  1.1730
 9124TIP3    H248788   6.697   4.961   1.427  1.0630 -0.5530 -0.1548
 9125TIP3   OH248789   5.766   6.184   0.381  0.4510  0.3861 -0.1919
 9125TIP3    H148790   5.862   6.183   0.375  0.3951  1.5605 -1.7704
 9125TIP3    H248791   5.746   6.269   0.419  0.0159 -0.0727  0.6516
 9126TIP3   OH248792   5.511   1.179   4.881  0.5408 -0.1720  0.3393
 9126TIP3    H148793   5.567   1.117   4.833  0.2271  0.7250 -1.2833
 9126TIP3    H248794   5.483   1.241   4.814 -3.5506 -1.3487  0.6927
 9127TIP3   OH248795   6.202   6.086   5.916 -0.7210 -0.2076  0.1403
 9127TIP3    H148796   6.116   6.086   5.959 -2.1001  0.6962 -2.4138
 9127TIP3    H248797   6.245   6.166   5.948  0.3658 -1.8917  3.3760
 9128TIP3   OH248798   5.969   5.283   5.221 -0.0053  0.0376  0.0294
 9128TIP3    H148799   5.963   5.366   5.173 -0.8152  0.1884  0.3691
 9128TIP3    H248800   6.026   5.303   5.295 -0.4223  0.3770  0.2641
 9129TIP3   OH248801   4.290   1.452  15.804  0.3849 -0.1106  0.7937
 9129TIP3    H148802   4.350   1.434  15.731  0.2161 -0.4009  0.7257
 9129TIP3    H248803   4.347   1.470  15.879  0.5533 -0.8736  0.8509
 9130TIP3   OH248804   3.279   5.943  16.741 -0.3562  0.0520 -0.5858
 9130TIP3    H148805   3.243   5.934  16.829  3.2348 -0.0655  1.0196
 9130TIP3    H248806   3.266   6.036  16.719  0.5066  0.5735  0.9771
 9131TIP3   OH248807   4.092   0.515   4.476  0.4371  0.3717 -0.1041
 9131TIP3    H148808   4.119   0.560   4.555 -0.0332  3.6430 -1.6387
 9131TIP3    H248809   4.135   0.562   4.405  0.3778 -2.0389 -1.8981
 9132TIP3   OH248810   5.833   0.649  10.944 -0.1613  0.0556 -0.0527
 9132TIP3    H148811   5.874   0.682  10.864 -0.1159 -1.7609 -0.8319
 9132TIP3    H248812   5.874   0.564  10.958  0.6407  0.7862  2.5712
 9133TIP3   OH248813   0.222   4.933   5.788 -0.5627 -0.2113 -0.8146
 9133TIP3    H148814   0.167   4.864   5.752  0.1912 -0.0693 -2.2868
 9133TIP3    H248815   0.179   5.014   5.762 -1.0364 -0.0913  0.2674
 9134TIP3   OH248816   0.068   2.293  12.154  0.1404 -0.2364 -0.1417
 9134TIP3    H148817   0.029   2.367  12.199  0.6253  0.3081 -0.6002
 9134TIP3    H248818   0.013   2.279  12.077 -0.3520 -0.8008  0.3021
 9135TIP3   OH248819   3.988   3.438   3.041 -0.2668 -0.5515  0.0932
 9135TIP3    H148820   3.919   3.481   3.092  1.1110  2.2475 -0.2293
 9135TIP3    H248821   3.941   3.372   2.989 -2.5291  0.4765  0.6866
 9136TIP3   OH248822   0.779   1.937   4.717 -0.1897 -0.6800  0.4336
 9136TIP3    H148823   0.720   1.888   4.660 -1.4163 -1.8431  2.5587
 9136TIP3    H248824   0.857   1.881   4.725 -0.5223 -1.0917  0.8341
 9137TIP3   OH248825   0.089   4.673   3.360 -0.0876  0.2761 -0.2761
 9137TIP3    H148826   0.056   4.659   3.271  5.0310  2.1279 -2.9261
 9137TIP3    H248827   0.171   4.623   3.362 -0.7750 -1.0622  4.1956
 9138TIP3   OH248828   1.934   2.391   0.059  0.1151  0.0101 -0.8598
 9138TIP3    H148829   1.908   2.396  -0.033  0.8276 -1.4408 -1.1850
 9138TIP3    H248830   2.019   2.436   0.063  0.4598 -0.5928 -1.1038
 9139TIP3   OH248831   4.479   3.893  15.220  0.5214  0.2487 -0.2228
 9139TIP3    H148832   4.522   3.919  15.139 -1.0126 -0.3241 -1.2718
 9139TIP3    H248833   4.427   3.969  15.245 -0.0091 -0.0198 -0.4957
 9140TIP3   OH248834   2.279   0.463  17.060 -0.4852 -0.7292  0.1785
 9140TIP3    H148835   2.338   0.517  17.112 -0.0967 -0.9322 -0.0505
 9140TIP3    H248836   2.240   0.524  16.997  1.9092 -1.1206 -1.8385
 9141TIP3   OH248837   6.303   1.957  16.459  0.3353 -0.2473  0.1929
 9141TIP3    H148838   6.334   1.909  16.536  0.0304 -3.8206 -1.7151
 9141TIP3    H248839   6.361   1.929  16.389  0.0162  2.1769 -1.1346
 9142TIP3   OH248840   6.274   6.527   1.410  0.2830  0.5866  0.0964
 9142TIP3    H148841   6.244   6.499   1.323  1.7535 -0.7185 -0.0424
 9142TIP3    H248842   6.347   6.586   1.393 -0.1402  1.2138  0.4422
 9143TIP3   OH248843   0.500   2.081   3.647 -0.0555 -0.3577  0.7076
 9143TIP3    H148844   0.550   1.999   3.650 -0.5473 -0.6907  0.1536
 9143TIP3    H248845   0.538   2.135   3.716  2.7528  0.3819 -1.2172
 9144TIP3   OH248846   3.523   3.089   2.953 -0.2661 -0.3972  0.6997
 9144TIP3    H148847   3.447   3.108   2.897  0.1031  1.1812  0.6858
 9144TIP3    H248848   3.560   3.009   2.917  0.0409  0.6390 -1.4296
 9145TIP3   OH248849   1.701   5.203  13.945  0.7746  0.0815 -0.4219
 9145TIP3    H148850   1.791   5.209  13.912 -0.0948 -2.3198 -3.9184
 9145TIP3    H248851   1.674   5.114  13.922 -2.0506  0.1976  1.9035
 9146TIP3   OH248852   1.739   4.659  17.052  0.0249  0.3741 -0.2642
 9146TIP3    H148853   1.781   4.687  17.133 -1.0225  0.5081  0.2466
 9146TIP3    H248854   1.800   4.595  17.014  1.5073  1.8396 -0.4547
 9147TIP3   OH248855   2.532   5.696   6.660 -0.5666 -0.2201  0.1217
 9147TIP3    H148856   2.472   5.759   6.620 -2.1093 -1.0330  1.0676
 9147TIP3    H248857   2.619   5.728   6.636 -1.3534  0.7833 -1.6159
 9148TIP3   OH248858   2.669   3.319   3.456 -0.0714 -0.2543 -0.4678
 9148TIP3    H148859   2.584   3.287   3.485 -0.6651  0.6282 -1.2244
 9148TIP3    H248860   2.713   3.241   3.421 -1.5165 -0.2931 -2.3382
 9149TIP3   OH248861   2.281   3.073  15.928  0.4776 -0.0547  0.1005
 9149TIP3    H148862   2.282   3.125  15.847  2.1365  1.5302  1.0694
 9149TIP3    H248863   2.267   3.137  15.997 -1.3837 -1.4473  1.0930
 9150TIP3   OH248864   3.585   1.848  14.305 -0.3583  0.6363 -0.3228
 9150TIP3    H148865   3.548   1.892  14.228  0.5354  1.2164 -0.4367
 9150TIP3    H248866   3.669   1.892  14.319 -0.0246 -0.1937  0.3364
 9151TIP3   OH248867   3.880   1.311  14.992  0.1560  0.5924  0.1305
 9151TIP3    H148868   3.815   1.336  14.926  2.3868  0.5034 -2.3018
 9151TIP3    H248869   3.907   1.394  15.031 -1.8525  0.5681  1.7464
 9152TIP3   OH248870   6.620   5.075   5.893  0.1684  0.0719 -0.6185
 9152TIP3    H148871   6.587   4.985   5.904  0.8117 -0.1678 -0.5902
 9152TIP3    H248872   6.633   5.106   5.982  0.4773 -0.0120 -0.6326
 9153TIP3   OH248873   2.978   4.929  10.799  0.0283  0.1199 -0.5530
 9153TIP3    H148874   2.974   4.877  10.719  0.7431 -1.5426  0.4402
 9153TIP3    H248875   3.062   4.974  10.795  1.0568 -1.5907  0.1439
 9154TIP3   OH248876   2.513   3.081   3.522 -0.2818  0.2364  0.3688
 9154TIP3    H148877   2.494   3.037   3.439 -0.9637 -0.1199  0.7057
 9154TIP3    H248878   2.482   3.020   3.589  0.1869  0.5556  0.8903
 9155TIP3   OH248879   6.728   4.019   5.838  0.5966 -0.1076  0.3792
 9155TIP3    H148880   6.793   4.032   5.769 -0.6955  0.9693 -0.6651
 9155TIP3    H248881   6.718   4.105   5.879 -1.6938  0.3011 -0.8834
 9156TIP3   OH248882   6.053   4.388  12.772 -0.3415  0.8138  0.4066
 9156TIP3    H148883   6.111   4.336  12.717 -0.2796  1.6870 -0.3748
 9156TIP3    H248884   6.082   4.479  12.760 -0.8212  1.0968  1.2755
 9157TIP3   OH248885   3.210   4.702  16.653  0.1959  0.0165  0.0972
 9157TIP3    H148886   3.125   4.668  16.682  0.0522  0.1706 -0.1406
 9157TIP3    H248887   3.233   4.767  16.719  1.6612 -2.2641  1.9581
 9158TIP3   OH248888   2.046   2.756  12.351 -0.3609  0.3993  0.0871
 9158TIP3    H148889   2.079   2.774  12.263  0.4171 -0.8267  0.1065
 9158TIP3    H248890   2.021   2.663  12.348 -0.4183  0.3759  1.1291
 9159TIP3   OH248891   2.001   4.051  13.090  0.3984 -0.2806 -0.4225
 9159TIP3    H148892   1.932   3.986  13.077  0.0821  0.0421 -0.3910
 9159TIP3    H248893   1.982   4.090  13.175 -0.2864  0.8697 -1.0630
 9160TIP3   OH248894   1.894   5.653  12.328 -0.0304 -0.0469 -0.6254
 9160TIP3    H148895   1.956   5.725  12.332  1.3008 -1.0129 -2.3571
 9160TIP3    H248896   1.946   5.577  12.303 -1.5490 -1.4153  0.1237
 9161TIP3   OH248897   3.852   6.731  16.956  0.0228 -0.1512 -0.3521
 9161TIP3    H148898   3.768   6.772  16.978 -0.5543 -0.3713 -1.9776
 9161TIP3    H248899   3.833   6.678  16.879  1.4373 -1.0705 -0.1094
 9162TIP3   OH248900   2.230   6.065  15.562 -0.2009  0.0451  0.5116
 9162TIP3    H148901   2.173   6.126  15.517 -0.6159 -1.2840 -0.8682
 9162TIP3    H248902   2.185   6.045  15.644 -0.6068  0.7101  0.4555
 9163TIP3   OH248903   2.982   4.606   2.135  0.3041 -0.3604 -0.2381
 9163TIP3    H148904   2.950   4.680   2.187 -0.9934  0.6497 -2.3774
 9163TIP3    H248905   2.936   4.530   2.171 -0.5053  0.2911  0.1299
 9164TIP3   OH248906   4.485   2.623  13.601  0.0659  0.3041  0.4972
 9164TIP3    H148907   4.525   2.584  13.524  1.3269  0.4468  1.0505
 9164TIP3    H248908   4.479   2.716  13.581 -0.3582  0.2229  0.2541
 9165TIP3   OH248909   5.814   0.359   1.015 -0.1326 -0.4944 -0.2220
 9165TIP3    H148910   5.787   0.271   1.040  0.6304 -0.8013 -0.4464
 9165TIP3    H248911   5.907   0.363   1.038 -0.2446  0.3807  0.1312
 9166TIP3   OH248912   4.185   2.680  12.203  0.3770 -0.5080 -0.3599
 9166TIP3    H148913   4.270   2.720  12.183  0.1583 -0.5787 -1.4851
 9166TIP3    H248914   4.122   2.733  12.156 -0.3129  0.0340  1.1244
 9167TIP3   OH248915   4.424   3.430  11.882  0.1461  0.0936 -0.1467
 9167TIP3    H148916   4.493   3.461  11.824  0.5887  0.6618  0.6645
 9167TIP3    H248917   4.399   3.507  11.933 -0.3848 -0.3432  0.2670
 9168TIP3   OH248918   3.249   3.172  14.558  0.1643  0.0089  0.4246
 9168TIP3    H148919   3.271   3.246  14.501 -0.7639 -1.2297 -1.6656
 9168TIP3    H248920   3.157   3.184  14.579 -0.4760 -1.3530 -1.3365
 9169TIP3   OH248921   0.555   5.353  15.908 -0.1652 -0.1271 -0.6640
 9169TIP3    H148922   0.568   5.425  15.847  0.8177  1.0618  0.8675
 9169TIP3    H248923   0.644   5.326  15.932 -0.5068  0.2016  1.0809
 9170TIP3   OH248924   1.283   2.335   1.665 -0.3734  0.6077  0.5627
 9170TIP3    H148925   1.375   2.341   1.688 -0.0024 -1.6878  0.0068
 9170TIP3    H248926   1.269   2.404   1.601  1.4729 -0.1189 -0.7156
 9171TIP3   OH248927   6.368   6.760  12.683  0.2249 -1.3109 -0.3466
 9171TIP3    H148928   6.294   6.706  12.654 -0.1390 -0.9097 -0.1686
 9171TIP3    H248929   6.337   6.850  12.675  1.2607 -1.0472 -1.8239
 9172TIP3   OH248930   5.565   1.719  12.723 -0.1886  0.2089 -0.6958
 9172TIP3    H148931   5.551   1.625  12.711  1.8180 -0.4718  1.4624
 9172TIP3    H248932   5.489   1.748  12.774 -0.4827 -0.3851 -0.7843
 9173TIP3   OH248933   3.944   5.906  12.216 -0.4154 -0.3999  0.6052
 9173TIP3    H148934   4.019   5.953  12.180  0.1570 -1.1357  0.8101
 9173TIP3    H248935   3.870   5.933  12.162 -0.4980  2.2164  1.8926
 9174TIP3   OH248936   2.500   3.843   1.404  0.1514 -0.2190  0.7155
 9174TIP3    H148937   2.469   3.886   1.484 -1.3857 -1.6711  0.9490
 9174TIP3    H248938   2.426   3.790   1.375  1.2125 -0.9166 -0.8294
 9175TIP3   OH248939   3.780   2.641  13.520 -0.2345  0.0880 -0.2543
 9175TIP3    H148940   3.794   2.570  13.583 -1.3689 -1.2493 -1.4411
 9175TIP3    H248941   3.857   2.697  13.530  0.4846 -1.0524  1.0396
 9176TIP3   OH248942   2.460   2.040   1.072  0.2478 -0.0713 -0.3572
 9176TIP3    H148943   2.542   2.090   1.079  0.5440 -0.7016  1.0915
 9176TIP3    H248944   2.467   1.973   1.140 -0.4605 -1.6366 -1.7534
 9177TIP3   OH248945   1.986   0.548  12.658  0.3396  0.4235  0.5888
 9177TIP3    H148946   2.045   0.543  12.583  0.5209 -0.0576  0.7591
 9177TIP3    H248947   1.983   0.458  12.692 -0.3688  0.4794  0.6739
 9178TIP3   OH248948   3.231   3.255   2.926  0.6556 -0.2045 -0.1855
 9178TIP3    H148949   3.172   3.180   2.929 -1.3855  1.3751  1.4217
 9178TIP3    H248950   3.241   3.282   3.017  1.1768  1.5995 -0.7338
 9179TIP3   OH248951   4.812   4.246  15.887  0.0611 -0.5649  0.5905
 9179TIP3    H148952   4.857   4.312  15.833  0.6986 -0.1254  1.6365
 9179TIP3    H248953   4.868   4.235  15.963 -1.9366  0.5569  2.3305
 9180TIP3   OH248954   4.187   2.807   0.007 -0.3623  0.0283 -0.0856
 9180TIP3    H148955   4.223   2.783  -0.078 -0.3415  0.7477 -0.2804
 9180TIP3    H248956   4.108   2.857  -0.014 -0.3622  0.1980  0.3237
 9181TIP3   OH248957   4.025   4.378   5.283 -0.7819 -0.0762 -0.3276
 9181TIP3    H148958   4.021   4.360   5.189 -1.3463  2.4312 -0.8726
 9181TIP3    H248959   4.085   4.453   5.290 -1.3150  0.2448  1.2234
 9182TIP3   OH248960   1.952   0.530   1.229 -0.6264  1.0510  0.3113
 9182TIP3    H148961   1.981   0.618   1.250  1.2511  0.3733  0.7737
 9182TIP3    H248962   2.018   0.496   1.168 -0.5300 -0.4954  1.2182
 9183TIP3   OH248963   0.134   1.330  11.422 -0.1300 -0.0381  0.4526
 9183TIP3    H148964   0.212   1.323  11.367 -1.1206  0.8149 -1.1402
 9183TIP3    H248965   0.087   1.248  11.407 -0.2105  0.0268  0.3569
 9184TIP3   OH248966   0.872   0.608   1.259 -0.4652  0.1823 -0.3136
 9184TIP3    H148967   0.800   0.668   1.278  0.8036  1.2977  1.2724
 9184TIP3    H248968   0.929   0.614   1.336  2.7346  1.4704 -2.5729
 9185TIP3   OH248969   2.359   1.376   3.212 -0.0382 -0.2193  0.2122
 9185TIP3    H148970   2.316   1.444   3.263  0.2548 -0.8140  1.2818
 9185TIP3    H248971   2.448   1.372   3.248  0.6988  0.4511 -1.4293
 9186TIP3   OH248972   3.388   1.841  15.781 -0.8398  0.7049 -0.1487
 9186TIP3    H148973   3.432   1.925  15.785 -1.2974  0.9820 -0.6973
 9186TIP3    H248974   3.350   1.828  15.868 -0.2925  0.7986  0.1042
 9187TIP3   OH248975   5.576   4.497  10.441  0.0093  0.7291 -0.6395
 9187TIP3    H148976   5.599   4.575  10.491  1.8848  0.6000 -1.2541
 9187TIP3    H248977   5.541   4.531  10.358 -0.2611  0.9073 -0.4555
 9188TIP3   OH248978   5.449   4.921   3.262  0.6748  0.3807 -0.6909
 9188TIP3    H148979   5.528   4.959   3.302 -0.1957  1.1778  0.3319
 9188TIP3    H248980   5.400   4.996   3.230  0.9524 -0.1946 -2.6075
 9189TIP3   OH248981   3.863   6.226  11.796 -0.2472 -0.2516  0.3468
 9189TIP3    H148982   3.838   6.167  11.726 -1.6895 -0.0684  0.6828
 9189TIP3    H248983   3.953   6.252  11.774  0.0389 -1.7256 -0.3515
 9190TIP3   OH248984   0.919   0.511   2.109 -0.5849 -0.0777 -0.7837
 9190TIP3    H148985   0.842   0.491   2.056 -0.5253 -0.1499 -0.8420
 9190TIP3    H248986   0.885   0.565   2.181 -0.7770 -0.5600 -0.5082
 9191TIP3   OH248987   4.571   4.058   5.657 -0.0823  0.0255  0.0400
 9191TIP3    H148988   4.585   4.131   5.717 -0.0016  2.4418 -2.6854
 9191TIP3    H248989   4.478   4.065   5.633  0.1265 -0.2245 -0.8784
 9192TIP3   OH248990   3.539   2.669  17.163  0.2735 -0.2276 -0.3329
 9192TIP3    H148991   3.551   2.755  17.124 -0.1161 -0.9983 -2.3208
 9192TIP3    H248992   3.489   2.685  17.243 -1.5087  1.2785 -1.6405
 9193TIP3   OH248993   4.124   4.326   2.362 -0.0695 -0.4666 -0.6180
 9193TIP3    H148994   4.101   4.369   2.444  1.5103  0.3912 -0.5844
 9193TIP3    H248995   4.119   4.233   2.381 -0.9421 -0.2942  0.0787
 9194TIP3   OH248996   5.732   0.993  10.377  0.2061  0.5231 -0.1762
 9194TIP3    H148997   5.662   0.930  10.357 -1.5458  2.3895 -0.3272
 9194TIP3    H248998   5.785   0.996  10.297 -1.1042  0.9499 -1.0688
 9195TIP3   OH248999   2.767   5.078  14.494 -0.4127  0.4577 -0.7898
 9195TIP3    H149000   2.825   5.003  14.483  0.0385  0.6583  0.1938
 9195TIP3    H249001   2.679   5.042  14.483 -0.4258 -0.8498  2.6014
 9196TIP3   OH249002   3.844   3.587   0.299 -0.5738  0.3027 -0.2263
 9196TIP3    H149003   3.778   3.586   0.369  0.6233 -1.0837  0.9463
 9196TIP3    H249004   3.848   3.497   0.268  0.2367  0.5213 -0.7891
 9197TIP3   OH249005   5.861   1.120  16.428 -0.1553 -0.3191 -0.0494
 9197TIP3    H149006   5.876   1.040  16.378 -1.0452 -0.1864 -0.5437
 9197TIP3    H249007   5.868   1.093  16.520  0.1948 -0.8241 -0.2232
 9198TIP3   OH249008   3.062   2.914   0.791  0.4608 -0.1098  0.7117
 9198TIP3    H149009   3.125   2.853   0.831  1.0251 -1.0491 -1.4637
 9198TIP3    H249010   3.117   2.986   0.759  0.4142 -0.7439 -0.8476
 9199TIP3   OH249011   1.028   2.028  16.607  0.8706 -0.3268  0.7719
 9199TIP3    H149012   0.976   2.100  16.644  1.4972  0.1348  0.7742
 9199TIP3    H249013   1.119   2.055  16.622  1.1095 -0.9898  0.5122
 9200TIP3   OH249014   1.525   4.312   2.814  0.0418 -0.2685  0.1412
 9200TIP3    H149015   1.474   4.234   2.834  0.6240 -0.4396  1.0004
 9200TIP3    H249016   1.608   4.300   2.861  1.2866 -0.4410 -1.9351
 9201TIP3   OH249017   3.856   0.446  16.766  0.0514 -0.4571 -0.2148
 9201TIP3    H149018   3.818   0.443  16.678  0.3146  0.2272 -0.3593
 9201TIP3    H249019   3.788   0.487  16.820  0.5459  0.7045 -0.4594
 9202TIP3   OH249020   4.613   1.680  13.936  0.1007 -0.3447 -0.2377
 9202TIP3    H149021   4.531   1.730  13.931  0.3493  0.0616 -0.2250
 9202TIP3    H249022   4.620   1.654  14.027 -0.3774 -0.9966 -0.3708
 9203TIP3   OH249023   0.961   1.589   1.587  0.4355 -0.1306  0.1508
 9203TIP3    H149024   1.010   1.640   1.522 -1.3470  0.6591 -0.6468
 9203TIP3    H249025   1.001   1.503   1.585  1.3333  0.2801 -0.9898
 9204TIP3   OH249026   2.148   0.408  11.508 -0.3861 -0.2111  0.1772
 9204TIP3    H149027   2.057   0.408  11.537 -0.1554 -1.2979  0.9767
 9204TIP3    H249028   2.166   0.499  11.484 -1.5955  0.0644  0.2691
 9205TIP3   OH249029   5.703   3.596   1.680 -0.1635  0.8144 -0.2713
 9205TIP3    H149030   5.746   3.677   1.707  0.6322  0.3253 -0.0541
 9205TIP3    H249031   5.700   3.601   1.585  0.8028  0.6518 -0.3218
 9206TIP3   OH249032   5.193   0.359   3.624 -0.1020 -0.0586 -0.0345
 9206TIP3    H149033   5.150   0.283   3.662  2.6205 -1.8734 -0.2905
 9206TIP3    H249034   5.231   0.405   3.699  1.0109 -0.8365 -0.0921
 9207TIP3   OH249035   2.058   4.016  14.514 -0.0337 -0.2695 -0.6852
 9207TIP3    H149036   2.133   4.013  14.574 -0.0354 -0.5104 -0.6937
 9207TIP3    H249037   1.982   3.997  14.568  0.1756 -2.5960 -1.1072
 9208TIP3   OH249038   4.270   1.915   5.201 -0.0343  0.1603 -0.2841
 9208TIP3    H149039   4.307   1.959   5.125  0.8573 -0.7362 -0.3882
 9208TIP3    H249040   4.188   1.877   5.168 -1.1253  2.1427 -0.0512
 9209TIP3   OH249041   0.395   2.509  16.939 -0.5430 -0.2457  0.4273
 9209TIP3    H149042   0.381   2.603  16.926 -0.0841 -0.5335 -3.1324
 9209TIP3    H249043   0.373   2.469  16.854  0.4214 -3.2205  1.4454
 9210TIP3   OH249044   4.055   3.998  11.234 -0.3374 -0.4558  0.7807
 9210TIP3    H149045   4.081   3.907  11.242 -2.0767 -1.1645 -0.8460
 9210TIP3    H249046   4.099   4.042  11.307  0.3165 -2.6162  1.7757
 9211TIP3   OH249047   1.456   5.684  10.882  0.4318 -0.0396  0.0006
 9211TIP3    H149048   1.485   5.610  10.830  0.6652 -0.6272  0.9355
 9211TIP3    H249049   1.536   5.731  10.905  0.3287  0.2401 -0.2125
 9212TIP3   OH249050   4.079   6.575   4.268  0.4220  0.2223  0.6413
 9212TIP3    H149051   4.011   6.523   4.311 -0.6448 -1.2636 -2.5448
 9212TIP3    H249052   4.153   6.516   4.260 -0.2214 -0.3944 -1.5166
 9213TIP3   OH249053   4.787   0.952   4.866  0.3489  0.1404 -0.3787
 9213TIP3    H149054   4.697   0.930   4.839  0.4199  0.2914 -0.7445
 9213TIP3    H249055   4.842   0.910   4.800  0.4870  1.3488 -1.0582
 9214TIP3   OH249056   1.774   6.689   4.309 -0.1169  0.0261  0.3690
 9214TIP3    H149057   1.767   6.784   4.313  1.3258  0.1588  0.7087
 9214TIP3    H249058   1.686   6.658   4.289 -1.0141  1.3365  2.0043
 9215TIP3   OH249059   3.965   6.694   2.423  0.4512  0.4569  0.0649
 9215TIP3    H149060   4.046   6.707   2.472  0.0661  0.2623  0.7572
 9215TIP3    H249061   3.906   6.763   2.454  0.5034  0.8942 -0.7822
 9216TIP3   OH249062   5.646   6.098  15.551  0.4954 -0.1932 -0.2092
 9216TIP3    H149063   5.649   6.013  15.595 -0.5078  1.4336  3.3776
 9216TIP3    H249064   5.737   6.118  15.531  0.8800 -1.4919  0.1345
 9217TIP3   OH249065   6.492   5.546  14.156  0.1112  0.6575 -0.0093
 9217TIP3    H149066   6.510   5.635  14.187  0.8591  0.1778  0.9690
 9217TIP3    H249067   6.563   5.493  14.192  0.0117 -0.2409 -1.0978
 9218TIP3   OH249068   1.423   4.026  13.349 -0.7160  0.4588  0.0531
 9218TIP3    H149069   1.339   4.060  13.319 -0.9020 -1.8345 -2.3526
 9218TIP3    H249070   1.400   3.948  13.401 -0.1265  0.8973  0.9950
 9219TIP3   OH249071   3.728   3.375  15.236 -0.5107 -0.0340 -0.3178
 9219TIP3    H149072   3.708   3.312  15.306  0.5970 -2.4170 -1.9928
 9219TIP3    H249073   3.790   3.436  15.275 -0.4490 -0.8868  0.9656
 9220TIP3   OH249074   0.746   1.764  11.735  0.1868 -0.1332 -0.4740
 9220TIP3    H149075   0.758   1.770  11.830 -0.8079 -0.7484 -0.2855
 9220TIP3    H249076   0.712   1.850  11.710  0.8577  0.1740 -0.3505
 9221TIP3   OH249077   4.910   5.516  11.762  0.5379 -0.1770  0.4490
 9221TIP3    H149078   4.999   5.488  11.739  0.1779 -0.1614 -1.0754
 9221TIP3    H249079   4.853   5.454  11.717 -0.2459  1.5600 -1.0804
 9222TIP3   OH249080   6.520   4.855   6.020 -0.1319  0.5641 -0.2331
 9222TIP3    H149081   6.435   4.856   6.064 -0.0577 -2.3949  0.2042
 9222TIP3    H249082   6.572   4.792   6.069  0.6342 -1.4101 -3.2836
 9223TIP3   OH249083   6.732   4.585  12.535 -0.1370 -0.9876 -0.7614
 9223TIP3    H149084   6.660   4.622  12.587 -0.4178  0.3462 -2.0028
 9223TIP3    H249085   6.709   4.493  12.524 -2.1994 -0.4023 -1.8934
 9224TIP3   OH249086   5.611   2.019  12.875 -0.1490  0.3717 -0.0429
 9224TIP3    H149087   5.662   1.967  12.937  0.9582  0.4380 -0.8676
 9224TIP3    H249088   5.593   2.101  12.922  1.0151  0.5812  0.0748
 9225TIP3   OH249089   5.874   0.616  11.798 -0.1311 -0.3890 -0.0971
 9225TIP3    H149090   5.931   0.678  11.842 -0.4854  1.6645 -2.3492
 9225TIP3    H249091   5.802   0.601  11.860  1.0557 -0.2968  1.3476
 9226TIP3   OH249092   4.252   5.978  16.165  0.2932  0.3364 -0.1487
 9226TIP3    H149093   4.335   5.966  16.212  0.8728 -0.2878 -1.2834
 9226TIP3    H249094   4.220   6.064  16.195  0.0786 -0.4793  2.1602
 9227TIP3   OH249095   6.489   0.194  12.319  0.3720 -0.1277  0.7191
 9227TIP3    H149096   6.461   0.276  12.359  0.0174 -0.1467  0.5132
 9227TIP3    H249097   6.466   0.127  12.383 -1.0532 -0.2605  0.1232
 9228TIP3   OH249098   2.938   5.319  14.561 -0.8089 -0.0320  0.1131
 9228TIP3    H149099   2.866   5.359  14.610  1.0748  0.3554  2.8266
 9228TIP3    H249100   2.969   5.388  14.503 -0.8128  0.7865  1.0483
 9229TIP3   OH249101   2.871   3.500  14.491  0.0217 -0.3064 -0.4474
 9229TIP3    H149102   2.837   3.441  14.424  1.9693  0.2011 -1.9436
 9229TIP3    H249103   2.856   3.588  14.456 -1.3831  0.1007  1.0371
 9230TIP3   OH249104   5.851   3.135  13.004 -0.2239 -0.8012 -0.4166
 9230TIP3    H149105   5.850   3.047  13.041  0.4495 -0.3754  0.6733
 9230TIP3    H249106   5.759   3.164  13.007 -0.3760 -1.2886 -0.3546
 9231TIP3   OH249107   5.116   5.689   5.284 -0.9005  0.1493 -0.3494
 9231TIP3    H149108   5.133   5.740   5.363  3.0362 -1.9357  0.4319
 9231TIP3    H249109   5.102   5.600   5.315 -1.7750 -0.2988 -1.9111
 9232TIP3   OH249110   4.861   0.746  15.467  0.4272  0.0958  0.1511
 9232TIP3    H149111   4.949   0.741  15.504  0.6689 -0.3884 -0.4684
 9232TIP3    H249112   4.853   0.836  15.436  0.3522  0.4032  1.0442
 9233TIP3   OH249113   2.816   1.605   1.910  0.2396  0.0455  0.2669
 9233TIP3    H149114   2.824   1.637   1.820 -0.4656  1.1539  0.5765
 9233TIP3    H249115   2.746   1.539   1.905  0.8766 -0.6086 -0.1623
 9234TIP3   OH249116   0.801   3.852  12.038 -0.2676  0.3761  0.5519
 9234TIP3    H149117   0.842   3.766  12.026  0.0385  0.2003  2.4888
 9234TIP3    H249118   0.716   3.845  11.995 -0.4138 -1.0551  1.0200
 9235TIP3   OH249119   6.288   2.611  12.400 -0.0184 -0.6475 -0.4907
 9235TIP3    H149120   6.306   2.557  12.477  0.6471 -0.2463 -0.3654
 9235TIP3    H249121   6.358   2.590  12.339  0.8845  0.8793 -0.0152
 9236TIP3   OH249122   4.905   5.507  17.212  0.0935  0.3570 -0.3977
 9236TIP3    H149123   4.812   5.492  17.199  0.5401 -1.6490 -1.8052
 9236TIP3    H249124   4.927   5.455  17.289  0.0944  0.6972 -0.1651
 9237TIP3   OH249125   3.183   1.402  15.387  0.2980  0.1971 -0.1055
 9237TIP3    H149126   3.211   1.352  15.310  0.8624  1.5624 -0.8127
 9237TIP3    H249127   3.222   1.355  15.461 -0.6410 -1.4172 -0.5616
 9238TIP3   OH249128   5.871   2.949   3.826 -0.2675  0.0651 -0.3268
 9238TIP3    H149129   5.777   2.941   3.838 -0.0441 -0.1655  1.4288
 9238TIP3    H249130   5.906   2.862   3.844  0.4358  0.5655  0.8536
 9239TIP3   OH249131   3.096   3.814  16.768  0.1852 -0.7460 -0.2987
 9239TIP3    H149132   3.150   3.754  16.717 -0.6224 -0.7281 -1.1961
 9239TIP3    H249133   3.099   3.779  16.857  2.8357  0.0572  0.0093
 9240TIP3   OH249134   5.262   1.132  13.866 -0.7840  0.8660  0.4153
 9240TIP3    H149135   5.288   1.074  13.937  1.0273  0.9391 -0.1433
 9240TIP3    H249136   5.277   1.220  13.900  0.1802  0.8991 -0.0708
 9241TIP3   OH249137   4.230   2.517  12.409 -0.4338 -0.9325 -0.2622
 9241TIP3    H149138   4.205   2.585  12.346  1.0462  0.7787  0.9037
 9241TIP3    H249139   4.152   2.504  12.462  0.2020  2.6845  1.9016
 9242TIP3   OH249140   2.089   2.203  14.286 -0.2821 -0.0798 -0.3447
 9242TIP3    H149141   2.030   2.128  14.282  0.7693 -1.1352  2.0943
 9242TIP3    H249142   2.119   2.214  14.195 -1.4258 -1.7936 -0.9816
 9243TIP3   OH249143   4.666   3.312  16.985  0.2836  0.6156 -0.0637
 9243TIP3    H149144   4.742   3.309  16.927  0.1280  1.7544 -0.3501
 9243TIP3    H249145   4.591   3.295  16.927  0.2999 -0.5081  0.2175
 9244TIP3   OH249146   1.557   6.067   4.855  0.3865 -0.2540  0.3225
 9244TIP3    H149147   1.466   6.072   4.827  0.2081 -1.2333  0.6858
 9244TIP3    H249148   1.552   6.050   4.949  0.9731  2.7235  0.9677
 9245TIP3   OH249149   4.884   0.435  15.792  0.4158 -0.1509 -0.1900
 9245TIP3    H149150   4.804   0.383  15.784  1.3000 -1.8857  1.4385
 9245TIP3    H249151   4.913   0.449  15.701 -0.8952 -0.8082 -0.7371
 9246TIP3   OH249152   6.405   4.313   3.347  0.6365 -0.3373 -0.0725
 9246TIP3    H149153   6.379   4.317   3.439  0.5481 -0.7303 -0.0784
 9246TIP3    H249154   6.445   4.226   3.337 -0.0615 -0.6113 -0.5838
 9247TIP3   OH249155   3.952   6.737   5.702  0.2456 -0.0746  0.7243
 9247TIP3    H149156   3.932   6.815   5.754 -0.7641  1.0125 -1.1836
 9247TIP3    H249157   3.867   6.695   5.689  0.4240 -0.1088 -0.3582
 9248TIP3   OH249158   2.076   1.831   0.496 -0.2569  0.2879 -0.4065
 9248TIP3    H149159   2.122   1.852   0.415  0.3051 -1.6561 -0.6272
 9248TIP3    H249160   2.145   1.814   0.560 -0.6698  2.4218  0.7460
 9249TIP3   OH249161   1.726   3.758   3.910  0.4218 -0.0381 -0.0773
 9249TIP3    H149162   1.704   3.851   3.904 -1.1556 -0.4273 -0.8152
 9249TIP3    H249163   1.707   3.734   4.001  0.1715  0.2168 -0.0613
 9250TIP3   OH249164   6.354   2.599   4.289  0.6386  0.2781 -0.6344
 9250TIP3    H149165   6.333   2.665   4.356  0.6656 -0.0953 -0.2568
 9250TIP3    H249166   6.346   2.515   4.334  2.2464  0.0759 -0.6668
 9251TIP3   OH249167   6.512   2.964  14.882 -0.4547 -0.0988  0.5399
 9251TIP3    H149168   6.444   2.966  14.950 -1.1340 -0.2802 -0.1148
 9251TIP3    H249169   6.491   2.887  14.829 -0.7591  0.7921 -0.6875
 9252TIP3   OH249170   1.746   1.050  16.181  0.5350  0.2674  0.1675
 9252TIP3    H149171   1.679   1.088  16.239  0.8197  0.1774  0.5617
 9252TIP3    H249172   1.712   1.063  16.093  0.3325  0.8718  0.3305
 9253TIP3   OH249173   1.696   3.114   5.154  0.0276 -0.5414  0.2474
 9253TIP3    H149174   1.735   3.157   5.078  1.9168 -0.5161  1.1703
 9253TIP3    H249175   1.704   3.179   5.224  0.8916 -1.5803  1.1303
 9254TIP3   OH249176   4.472   6.292   1.466  0.2472 -0.4100  0.1444
 9254TIP3    H149177   4.485   6.201   1.440  0.8938 -0.7051  1.4214
 9254TIP3    H249178   4.389   6.317   1.425 -0.4280 -1.8761  0.5570
 9255TIP3   OH249179   5.710   5.870   0.513 -0.2385 -0.3834 -0.2288
 9255TIP3    H149180   5.636   5.854   0.571 -0.2328  0.5897  0.0595
 9255TIP3    H249181   5.721   5.965   0.514  1.2390 -0.5372  0.0150
 9256TIP3   OH249182   4.638   2.201   4.150  0.3720 -0.6154 -0.1600
 9256TIP3    H149183   4.565   2.260   4.170 -0.7178 -1.4250 -1.5675
 9256TIP3    H249184   4.699   2.255   4.099  0.2170 -0.2482  0.0380
 9257TIP3   OH249185   6.487   2.428  13.043  0.2013 -0.7219  0.0809
 9257TIP3    H149186   6.502   2.361  12.977 -0.2611 -0.2575 -0.5038
 9257TIP3    H249187   6.395   2.419  13.068 -0.5075  1.0792 -1.6116
 9258TIP3   OH249188   1.034   5.746  14.979  0.5714  0.2731  0.3586
 9258TIP3    H149189   0.946   5.784  14.980  0.6383  0.4514  1.5036
 9258TIP3    H249190   1.023   5.659  14.940 -0.8394 -1.2225  3.6310
 9259TIP3   OH249191   1.054   1.657   1.166 -0.0458 -0.1501 -0.5792
 9259TIP3    H149192   1.045   1.573   1.121 -0.6776 -0.3866 -0.0284
 9259TIP3    H249193   0.969   1.670   1.210  0.4882  0.1695  0.3824
 9260TIP3   OH249194   4.722   6.600   4.461  0.7015 -0.2183 -0.5000
 9260TIP3    H149195   4.723   6.625   4.369  2.2697 -1.1092 -0.7491
 9260TIP3    H249196   4.716   6.683   4.508 -0.0959  0.2459 -1.3820
 9261TIP3   OH249197   4.126   0.569  12.927 -0.0914  0.1135 -0.0349
 9261TIP3    H149198   4.045   0.571  12.978 -0.3275  0.2194 -0.4122
 9261TIP3    H249199   4.166   0.655  12.941 -0.4256  0.3411 -0.4582
 9262TIP3   OH249200   1.057   4.522   1.071  0.5799  0.0508 -0.0973
 9262TIP3    H149201   1.030   4.447   1.019  1.7201 -0.7155  0.3964
 9262TIP3    H249202   0.997   4.592   1.044 -1.3308 -1.3418  0.3463
 9263TIP3   OH249203   5.055   2.188   1.303  0.1633  0.3789  0.5028
 9263TIP3    H149204   5.059   2.209   1.396 -0.3261 -1.5116  0.9825
 9263TIP3    H249205   5.146   2.190   1.273  0.2981  1.2213  0.9485
 9264TIP3   OH249206   0.198   6.661  14.132 -0.4831  0.6545  0.1150
 9264TIP3    H149207   0.216   6.579  14.086 -0.6471  1.0746 -0.7158
 9264TIP3    H249208   0.159   6.717  14.065  0.9773  1.9318  0.2793
 9265TIP3   OH249209   2.624   1.107  14.975 -0.1463 -0.2643 -0.1485
 9265TIP3    H149210   2.665   1.192  14.989  0.6002 -0.9285  2.0604
 9265TIP3    H249211   2.616   1.069  15.062 -2.0796 -1.7512 -0.8875
 9266TIP3   OH249212   2.029   0.109  16.433  0.0452 -0.1282 -0.4165
 9266TIP3    H149213   2.117   0.074  16.419 -0.3243 -1.0483 -0.5053
 9266TIP3    H249214   2.001   0.138  16.346  0.6327  1.0946 -0.2164
 9267TIP3   OH249215   2.458   1.692   1.535 -0.2821 -0.2728  0.1052
 9267TIP3    H149216   2.462   1.653   1.622  1.0903 -0.4498 -0.0248
 9267TIP3    H249217   2.515   1.768   1.540 -0.0629 -0.3789 -0.6897
 9268TIP3   OH249218   3.242   0.139  14.164  0.4413  0.0787  0.4306
 9268TIP3    H149219   3.316   0.087  14.194  0.9125  0.6088  0.2263
 9268TIP3    H249220   3.165   0.090  14.190  0.8724 -0.8464  0.0132
 9269TIP3   OH249221   6.157   2.713   0.587  0.8596 -0.3335  0.0761
 9269TIP3    H149222   6.189   2.761   0.663  2.3496  0.2837 -0.8987
 9269TIP3    H249223   6.108   2.778   0.536 -0.9624 -0.9684  0.9184
 9270TIP3   OH249224   2.422   5.122   4.795  0.0188  0.5347  0.1055
 9270TIP3    H149225   2.493   5.095   4.737 -0.4927  1.5073 -1.0486
 9270TIP3    H249226   2.433   5.070   4.874  1.0666 -0.4670 -0.6684
 9271TIP3   OH249227   1.201   4.706   1.204 -0.4631 -0.2177 -0.7465
 9271TIP3    H149228   1.285   4.673   1.233  0.0325  0.5926 -1.1990
 9271TIP3    H249229   1.158   4.632   1.162  0.0788 -0.6004 -0.6233
 9272TIP3   OH249230   4.755   3.747  15.780  0.0490 -0.0521  0.6440
 9272TIP3    H149231   4.770   3.800  15.702  1.0490 -2.3278 -0.7985
 9272TIP3    H249232   4.833   3.761  15.834  0.7145 -0.7204 -0.1353
 9273TIP3   OH249233   2.543   4.671   3.985  0.2294  0.0049 -0.3726
 9273TIP3    H149234   2.540   4.618   4.065  0.8909  0.1180 -0.2672
 9273TIP3    H249235   2.457   4.659   3.945 -0.2127  0.1638  0.4981
 9274TIP3   OH249236   1.972   1.604  13.425  0.5875 -0.3905 -0.7405
 9274TIP3    H149237   1.930   1.639  13.503  3.3065  2.4501 -0.3768
 9274TIP3    H249238   2.043   1.549  13.458  2.6218  1.9072 -1.0345
 9275TIP3   OH249239   4.394   2.621   3.064  0.0262  0.4135  0.1894
 9275TIP3    H149240   4.478   2.664   3.051  0.2712  0.5197  1.9500
 9275TIP3    H249241   4.407   2.532   3.033 -0.0772  1.1370 -2.1849
 9276TIP3   OH249242   1.749   1.898   4.419 -0.2629  0.0279  0.3717
 9276TIP3    H149243   1.749   1.943   4.335 -2.6781 -1.3233 -0.4429
 9276TIP3    H249244   1.681   1.942   4.470  0.0065 -0.2541  0.9815
 9277TIP3   OH249245   3.300   4.434   3.922  0.0729 -0.0742  0.1656
 9277TIP3    H149246   3.325   4.352   3.965 -0.0768 -0.7673 -1.0586
 9277TIP3    H249247   3.248   4.480   3.988  0.1922 -0.9294  0.8782
 9278TIP3   OH249248   4.411   5.852   2.026  0.1865 -0.5585  0.2172
 9278TIP3    H149249   4.497   5.810   2.031 -0.3374 -2.0437 -1.9460
 9278TIP3    H249250   4.394   5.863   1.933 -1.8816 -0.0595  0.5907
 9279TIP3   OH249251   4.113   3.768  16.007  0.0472  0.2597 -0.3137
 9279TIP3    H149252   4.180   3.703  16.026  0.7512  1.3066  0.9265
 9279TIP3    H249253   4.076   3.790  16.093 -1.5284  0.0850 -0.9162
 9280TIP3   OH249254   3.850   6.306  15.642  0.3497 -0.8495 -0.2098
 9280TIP3    H149255   3.789   6.378  15.661  0.8044 -0.4127 -0.3594
 9280TIP3    H249256   3.819   6.271  15.558  1.2875  0.4992 -1.1848
 9281TIP3   OH249257   3.193   1.350   5.516  0.3402  0.0209  0.5419
 9281TIP3    H149258   3.134   1.288   5.474  1.9427 -0.8382 -0.5600
 9281TIP3    H249259   3.261   1.296   5.556  0.7604  1.0020  1.2120
 9282TIP3   OH249260   5.853   5.931  12.103 -0.3755  0.3846 -0.2121
 9282TIP3    H149261   5.929   5.988  12.113 -0.4906  0.3057  1.2979
 9282TIP3    H249262   5.780   5.991  12.089 -0.3943  0.6089  0.7340
 9283TIP3   OH249263   3.879   2.696   5.688  0.1814  0.7465 -0.4163
 9283TIP3    H149264   3.965   2.668   5.719  1.3998  2.3305 -2.2011
 9283TIP3    H249265   3.835   2.728   5.767  1.0986 -0.3159  0.5735
 9284TIP3   OH249266   5.793   3.627  14.865  0.4223  0.6914 -0.8646
 9284TIP3    H149267   5.847   3.577  14.804  1.6910  0.0992  0.6679
 9284TIP3    H249268   5.744   3.562  14.914 -1.0715  1.1895 -1.6278
 9285TIP3   OH249269   1.075   1.826   2.149  0.5595 -0.5697 -0.1565
 9285TIP3    H149270   1.137   1.823   2.222  1.2833  1.5888 -0.6002
 9285TIP3    H249271   1.000   1.876   2.183  0.9075  0.4559 -0.8536
 9286TIP3   OH249272   1.805   6.123   4.964 -0.4799 -0.0168 -0.5615
 9286TIP3    H149273   1.765   6.105   4.879 -1.9396 -1.5138  0.3575
 9286TIP3    H249274   1.819   6.036   5.002 -0.6939  0.6238  1.0670
 9287TIP3   OH249275   3.174   3.445  12.517  0.3481 -0.3245  0.0387
 9287TIP3    H149276   3.219   3.435  12.600  0.1559  1.2039  0.3602
 9287TIP3    H249277   3.088   3.481  12.540  0.9702  1.9446 -0.8852
 9288TIP3   OH249278   1.244   0.342   3.448  0.1522  0.3264 -0.2679
 9288TIP3    H149279   1.203   0.395   3.380  1.7074 -0.4615 -1.8973
 9288TIP3    H249280   1.178   0.276   3.470 -0.7418  1.2086 -0.2642
 9289TIP3   OH249281   2.833   1.108  13.439 -0.1907 -0.6795  0.0445
 9289TIP3    H149282   2.779   1.149  13.507 -0.4792 -0.7695 -0.1284
 9289TIP3    H249283   2.787   1.128  13.357  0.7412  0.3864 -0.2405
 9290TIP3   OH249284   2.165   4.405   4.874 -0.1064 -0.2098  0.2594
 9290TIP3    H149285   2.120   4.327   4.842 -1.7448  1.0967 -0.7214
 9290TIP3    H249286   2.205   4.444   4.796  0.4803  0.0856  0.6965
 9291TIP3   OH249287   3.256   0.373  16.501 -0.5334  0.2301 -0.5012
 9291TIP3    H149288   3.216   0.325  16.429 -0.1498  2.4084 -2.3044
 9291TIP3    H249289   3.204   0.453  16.508 -1.8435 -0.7423  3.1050
 9292TIP3   OH249290   6.620   4.264  15.906  0.0288 -0.9278  0.8004
 9292TIP3    H149291   6.605   4.273  15.812 -0.9486  2.7138  1.1471
 9292TIP3    H249292   6.541   4.222  15.939 -0.7771  0.0947  0.2339
 9293TIP3   OH249293   6.066   4.914  11.232 -0.2602  0.2983  0.5320
 9293TIP3    H149294   6.088   4.828  11.195  1.0515  0.5849  0.5978
 9293TIP3    H249295   6.076   4.902  11.326 -1.4538  0.1661  0.6612
 9294TIP3   OH249296   0.781   6.616  13.166  0.0206  0.3051  0.6685
 9294TIP3    H149297   0.776   6.521  13.167  1.1951  0.2283  1.0588
 9294TIP3    H249298   0.834   6.639  13.243 -1.8525  1.4096  1.6939
 9295TIP3   OH249299   6.316   1.850  11.477  0.5052  0.0343  0.7458
 9295TIP3    H149300   6.238   1.854  11.534 -0.9446 -2.1190 -0.9392
 9295TIP3    H249301   6.331   1.941  11.452 -2.3216  0.4427  0.1230
 9296TIP3   OH249302   2.769   1.775   4.586 -0.1762 -0.2264  0.3152
 9296TIP3    H149303   2.706   1.746   4.652 -0.0337  1.4636  1.2492
 9296TIP3    H249304   2.845   1.719   4.600 -0.7068 -0.9014  0.5636
 9297TIP3   OH249305   1.490   1.253   1.041 -0.2241 -0.3917 -0.2961
 9297TIP3    H149306   1.482   1.294   0.955 -0.1160 -1.1986 -0.6949
 9297TIP3    H249307   1.488   1.327   1.103 -1.2419  0.1292 -0.9262
 9298TIP3   OH249308   2.191   3.182   6.028  0.3661  0.2030 -0.4688
 9298TIP3    H149309   2.124   3.149   6.087  1.5063 -1.6814 -0.1690
 9298TIP3    H249310   2.188   3.123   5.953  0.6942  1.0176 -1.1462
 9299TIP3   OH249311   3.435   5.292  14.549  0.3709 -0.1434  0.1873
 9299TIP3    H149312   3.374   5.341  14.495  0.0690 -0.2306  0.4460
 9299TIP3    H249313   3.390   5.209  14.566 -0.0059  0.2998  1.4724
 9300TIP3   OH249314   5.427   5.120   6.693 -1.2671 -0.2966 -0.1085
 9300TIP3    H149315   5.520   5.103   6.704 -1.2224 -0.6854 -1.0254
 9300TIP3    H249316   5.385   5.037   6.714 -1.3235 -0.4456 -0.7878
 9301TIP3   OH249317   3.325   6.138   2.164 -0.1588 -0.2696 -0.6668
 9301TIP3    H149318   3.374   6.079   2.221 -0.1740 -0.2216 -0.6041
 9301TIP3    H249319   3.268   6.081   2.113 -0.0235 -0.3282 -0.7548
 9302TIP3   OH249320   5.865   5.769   2.001  0.1092 -0.6298 -0.2009
 9302TIP3    H149321   5.857   5.859   2.034 -1.2136 -0.8133  0.0559
 9302TIP3    H249322   5.858   5.715   2.080  0.1651 -0.9809 -0.4365
 9303TIP3   OH249323   0.326   6.020  11.358 -0.4758  0.5513  0.1215
 9303TIP3    H149324   0.306   5.932  11.328  0.0661  0.7434 -0.8317
 9303TIP3    H249325   0.413   6.039  11.321 -0.0496  1.0262  1.3190
 9304TIP3   OH249326   1.476   6.561   5.399  0.4363  0.3417 -0.1907
 9304TIP3    H149327   1.425   6.570   5.318  0.7650  1.8401 -0.2590
 9304TIP3    H249328   1.562   6.532   5.370  0.1024 -0.6698 -0.2155
 9305TIP3   OH249329   5.303   1.065  14.556 -0.0172  0.0463 -0.2673
 9305TIP3    H149330   5.372   1.059  14.490  2.3234 -0.7283  2.0627
 9305TIP3    H249331   5.245   0.991  14.538  1.2853 -0.8880 -0.7108
 9306TIP3   OH249332   6.470   2.952  13.618 -0.8339 -0.6194 -0.1251
 9306TIP3    H149333   6.449   2.861  13.598 -1.1821 -0.6512  0.3777
 9306TIP3    H249334   6.396   3.002  13.583  0.0522 -0.3711 -1.7651
 9307TIP3   OH249335   1.373   2.667   3.553 -0.1491  0.3409  0.1887
 9307TIP3    H149336   1.454   2.632   3.516 -0.7163 -0.4674 -0.3367
 9307TIP3    H249337   1.318   2.685   3.477 -0.2755  1.3710  0.5193
 9308TIP3   OH249338   4.508   2.234  16.613 -0.7371 -0.3554 -0.6207
 9308TIP3    H149339   4.466   2.267  16.692  0.1427 -0.1587 -0.2228
 9308TIP3    H249340   4.596   2.272  16.615 -1.2080  0.9478 -2.5258
 9309TIP3   OH249341   1.681   0.586   2.350  0.7078 -0.4460 -0.0487
 9309TIP3    H149342   1.645   0.614   2.266 -0.2433  1.7116  1.0076
 9309TIP3    H249343   1.658   0.493   2.356 -0.5560 -0.2669 -1.5150
 9310TIP3   OH249344   1.085   1.252   6.451 -0.1422 -0.0421 -0.1408
 9310TIP3    H149345   1.059   1.207   6.531  0.7107 -0.2351  0.0440
 9310TIP3    H249346   1.154   1.312   6.479 -1.1778  1.3090 -0.4104
 9311TIP3   OH249347   0.994   1.133  13.752 -0.0966 -0.6819 -0.2723
 9311TIP3    H149348   0.974   1.117  13.660 -0.5848  1.6361 -0.6234
 9311TIP3    H249349   0.915   1.171  13.788  0.5762 -0.2050  0.7488
 9312TIP3   OH249350   4.973   1.249  16.672  0.1642  0.1391 -0.0244
 9312TIP3    H149351   4.920   1.169  16.678 -0.1969  0.4754  1.6713
 9312TIP3    H249352   5.052   1.230  16.723 -0.6939  1.4152  1.8732
 9313TIP3   OH249353   0.867   4.355   4.241  0.1397  0.4582 -0.3526
 9313TIP3    H149354   0.963   4.362   4.247  0.0515  0.1672  3.1281
 9313TIP3    H249355   0.836   4.444   4.259 -0.2374  0.1316  0.6889
 9314TIP3   OH249356   0.763   1.891  14.908 -0.1753  0.6070  0.6708
 9314TIP3    H149357   0.827   1.955  14.940  0.2621 -0.6228  2.3886
 9314TIP3    H249358   0.691   1.897  14.970 -1.2573  1.1405 -0.5807
 9315TIP3   OH249359   4.353   3.227  11.577  0.2767  0.4051 -0.0150
 9315TIP3    H149360   4.327   3.144  11.617  0.5523 -0.9253 -2.3989
 9315TIP3    H249361   4.287   3.290  11.607 -0.4899 -0.8807  1.1102
 9316TIP3   OH249362   0.983   0.843   6.348 -0.0434 -0.0594  0.2199
 9316TIP3    H149363   0.924   0.891   6.406 -0.7000  0.3141 -0.7243
 9316TIP3    H249364   1.034   0.911   6.303 -1.7904 -0.0855 -1.9954
 9317TIP3   OH249365   5.742   3.471   0.196 -0.1814  0.2332 -0.1161
 9317TIP3    H149366   5.830   3.471   0.158 -0.5045  1.0891 -0.9285
 9317TIP3    H249367   5.684   3.450   0.122 -0.6317 -0.7732  0.5060
 9318TIP3   OH249368   1.898   3.570   3.650 -0.2148  0.0697  0.4535
 9318TIP3    H149369   1.857   3.647   3.612 -2.3141  0.1358  2.6475
 9318TIP3    H249370   1.850   3.554   3.731  3.3830 -0.5656  2.7085
 9319TIP3   OH249371   4.249   6.536  14.603  0.5739  0.1640 -0.5405
 9319TIP3    H149372   4.243   6.549  14.508  0.7726 -0.7377 -0.6871
 9319TIP3    H249373   4.192   6.604  14.640 -2.5733 -1.7477 -1.4451
 9320TIP3   OH249374   5.850   1.038   2.342  0.2375 -0.6251 -0.6431
 9320TIP3    H149375   5.777   1.049   2.282  0.3295  0.4938 -0.5717
 9320TIP3    H249376   5.873   0.946   2.335 -1.2584 -1.0315 -0.5638
 9321TIP3   OH249377   0.866   5.299  11.534  0.1377  0.4676 -0.4106
 9321TIP3    H149378   0.799   5.366  11.549 -1.1720 -0.7027 -0.8709
 9321TIP3    H249379   0.877   5.257  11.619 -0.2853  0.1593 -0.5038
 9322TIP3   OH249380   5.338   5.452  13.049  1.1421 -0.2152 -0.1796
 9322TIP3    H149381   5.361   5.511  13.120 -1.4853  2.5130 -1.3570
 9322TIP3    H249382   5.390   5.482  12.974  1.0383 -0.4909 -0.3659
 9323TIP3   OH249383   5.429   4.297   3.441 -0.2591  0.3410  0.0356
 9323TIP3    H149384   5.426   4.392   3.439  1.0713  0.3949 -1.9050
 9323TIP3    H249385   5.521   4.276   3.454 -0.5666 -0.6972  0.6504
 9324TIP3   OH249386   1.300   1.732   1.471 -0.6450 -0.2231  0.0465
 9324TIP3    H149387   1.302   1.655   1.527 -4.2800 -0.3074  0.2784
 9324TIP3    H249388   1.374   1.786   1.501  0.5749 -2.5088  1.4255
 9325TIP3   OH249389   0.816   1.186   1.777  0.1478 -0.2126 -0.0194
 9325TIP3    H149390   0.802   1.236   1.857 -0.7103 -0.9056  0.2818
 9325TIP3    H249391   0.745   1.121   1.777  0.4458 -0.5534 -1.0745
 9326TIP3   OH249392   1.497   1.393  13.879 -0.2835 -0.2527 -0.3449
 9326TIP3    H149393   1.582   1.378  13.922  0.0841  1.1731 -0.5173
 9326TIP3    H249394   1.520   1.416  13.789 -0.9532 -1.4204 -0.8312
 9327TIP3   OH249395   6.718   3.864   6.228 -0.0874  0.4673  0.5969
 9327TIP3    H149396   6.671   3.923   6.286 -0.7242 -0.3260  0.9026
 9327TIP3    H249397   6.673   3.780   6.237  0.9947 -0.1509  0.4148
 9328TIP3   OH249398   6.275   3.800   3.233  0.2328 -0.3976  0.0609
 9328TIP3    H149399   6.343   3.844   3.183 -0.1569 -2.6539 -2.7827
 9328TIP3    H249400   6.199   3.857   3.225  0.5204 -0.1298 -0.9849
 9329TIP3   OH249401   5.858   6.024  14.699 -0.1786  0.3482  0.2371
 9329TIP3    H149402   5.783   6.021  14.640 -0.4461  1.0189  0.5379
 9329TIP3    H249403   5.868   5.934  14.731 -0.1748  0.0311 -0.6461
 9330TIP3   OH249404   6.387   0.517   5.037 -0.4733 -0.4972  0.0760
 9330TIP3    H149405   6.301   0.526   4.995 -0.9981 -3.4999  0.2214
 9330TIP3    H249406   6.450   0.533   4.967 -1.0995  1.6946 -0.0461
 9331TIP3   OH249407   1.190   0.675  12.413  0.0708  0.3393  0.2968
 9331TIP3    H149408   1.187   0.652  12.320  0.1698  0.6218  0.2229
 9331TIP3    H249409   1.106   0.718  12.430  0.2422  0.7053  0.2263
 9332TIP3   OH249410   3.567   4.186   4.075  0.3558  0.2103 -0.5571
 9332TIP3    H149411   3.605   4.245   4.010  0.4795 -0.7390 -1.3653
 9332TIP3    H249412   3.593   4.098   4.047 -1.0959 -0.3549 -0.2300
 9333TIP3   OH249413   1.814   3.242   4.369  0.5158 -0.5734 -0.3646
 9333TIP3    H149414   1.826   3.199   4.284 -0.1375  0.7526 -1.1517
 9333TIP3    H249415   1.724   3.221   4.394  0.8077 -1.2338  0.1871
 9334TIP3   OH249416   4.654   5.386   3.022  0.1603 -0.1262  0.0955
 9334TIP3    H149417   4.636   5.439   3.100 -1.6784  3.1162 -2.2610
 9334TIP3    H249418   4.669   5.451   2.952  0.8774 -2.8227 -2.4642
 9335TIP3   OH249419   5.523   3.476  15.453  0.7474  0.0723 -0.4442
 9335TIP3    H149420   5.597   3.445  15.503 -0.7928 -0.3404  1.7124
 9335TIP3    H249421   5.548   3.563  15.422  2.8646 -0.8741 -1.5616
 9336TIP3   OH249422   5.826   1.750  14.423 -0.1435 -0.1494  0.3442
 9336TIP3    H149423   5.813   1.714  14.335 -0.7842  2.7141 -0.8412
 9336TIP3    H249424   5.877   1.683  14.468  0.3466 -1.6777 -2.2306
 9337TIP3   OH249425   4.128   1.357  11.593 -0.3160  0.0211 -0.5596
 9337TIP3    H149426   4.134   1.445  11.555  0.9805 -0.2028 -0.9602
 9337TIP3    H249427   4.056   1.361  11.655 -0.5117  1.2598 -0.8491
 9338TIP3   OH249428   5.602   4.893  14.744  0.4614 -0.1435  0.1090
 9338TIP3    H149429   5.657   4.947  14.801 -0.2454  0.5736  0.1342
 9338TIP3    H249430   5.664   4.846  14.688  1.1281 -0.1361  0.8195
 9339TIP3   OH249431   6.247   4.759  15.813 -0.3124  0.3631 -0.1866
 9339TIP3    H149432   6.184   4.821  15.777  0.6365  0.0465 -2.5700
 9339TIP3    H249433   6.207   4.673  15.798 -0.4418  0.2573  0.6914
 9340TIP3   OH249434   1.765   0.100  11.076  0.4016 -0.3831  0.1703
 9340TIP3    H149435   1.834   0.154  11.114  2.2417 -2.8149  0.5566
 9340TIP3    H249436   1.714   0.069  11.151 -0.3515  0.4039 -0.0056
 9341TIP3   OH249437   4.941   6.680  12.319  0.8090 -0.1524  0.2318
 9341TIP3    H149438   5.013   6.693  12.256  0.0075  0.1166 -0.6455
 9341TIP3    H249439   4.982   6.634  12.392  1.7202 -0.6773 -0.5842
 9342TIP3   OH249440   5.094   3.735  13.439  0.2964  0.2895 -0.2934
 9342TIP3    H149441   5.097   3.753  13.345  1.2238 -0.5951 -0.4515
 9342TIP3    H249442   5.133   3.812  13.479 -2.5082  1.8939 -0.3940
 9343TIP3   OH249443   6.114   3.605   0.407  0.5578  0.1060  0.1324
 9343TIP3    H149444   6.025   3.585   0.437 -0.1783  2.2928 -0.4638
 9343TIP3    H249445   6.102   3.654   0.326  2.3182  0.4617  0.0483
 9344TIP3   OH249446   1.545   1.366   1.863  0.0907 -0.3418  0.1079
 9344TIP3    H149447   1.601   1.289   1.855 -1.0946 -1.2229 -0.0156
 9344TIP3    H249448   1.483   1.344   1.933 -0.9700  0.0276 -0.6885
 9345TIP3   OH249449   3.472   2.327  16.909  0.0250  0.2036 -0.8185
 9345TIP3    H149450   3.551   2.276  16.891  0.3020  0.8705 -1.5343
 9345TIP3    H249451   3.402   2.280  16.862  0.2632  0.4457 -1.4116
 9346TIP3   OH249452   1.627   3.922   2.845 -0.0204 -0.2333  0.2930
 9346TIP3    H149453   1.555   3.985   2.835  2.0321  2.1660 -0.5032
 9346TIP3    H249454   1.674   3.951   2.923  0.4988 -1.3050  0.3903
 9347TIP3   OH249455   0.170   5.974   2.696  0.2690 -0.1822 -0.1477
 9347TIP3    H149456   0.200   6.044   2.637  2.2300  0.2763  1.2839
 9347TIP3    H249457   0.111   5.922   2.643  0.6437  1.1772 -2.0103
 9348TIP3   OH249458   2.019   0.360   2.330 -0.3581 -0.2599 -0.0515
 9348TIP3    H149459   2.098   0.406   2.360 -0.2238 -0.5537  0.0484
 9348TIP3    H249460   1.961   0.361   2.406 -1.0488  1.2392 -0.5527
 9349TIP3   OH249461   0.507   1.446  10.879  0.2329 -0.0051 -0.0926
 9349TIP3    H149462   0.591   1.448  10.923  1.1095  0.0354 -1.7019
 9349TIP3    H249463   0.523   1.484  10.793 -1.2560 -0.6702 -0.7144
 9350TIP3   OH249464   5.514   4.525  12.624  0.0151 -0.3949  0.3073
 9350TIP3    H149465   5.558   4.575  12.693  0.3036  0.5087 -0.5146
 9350TIP3    H249466   5.488   4.590  12.559  0.5956 -1.3072 -0.8995
 9351TIP3   OH249467   0.780   1.589  15.202  0.3565 -0.1575  0.2892
 9351TIP3    H149468   0.700   1.633  15.231 -0.6152 -0.0407 -2.3076
 9351TIP3    H249469   0.749   1.515  15.150  1.9805 -1.1947  0.7016
 9352TIP3   OH249470   2.447   6.374   6.453 -0.1844 -0.2353 -0.1493
 9352TIP3    H149471   2.530   6.401   6.412  0.4695 -1.3041  0.4268
 9352TIP3    H249472   2.425   6.446   6.511 -1.1368  1.3314 -2.3166
 9353TIP3   OH249473   4.337   2.063  14.125  0.7285 -0.6129  0.3803
 9353TIP3    H149474   4.422   2.078  14.167  1.2231  0.6776 -0.9620
 9353TIP3    H249475   4.336   2.126  14.052 -1.1169 -1.0585 -0.0136
 9354TIP3   OH249476   3.061   0.711   3.246 -0.0483 -0.2418  0.0778
 9354TIP3    H149477   3.026   0.650   3.181  1.7254 -0.1825 -1.0220
 9354TIP3    H249478   3.060   0.796   3.202  0.8600 -0.1431  0.2238
 9355TIP3   OH249479   5.012   5.947  12.764 -0.0443 -0.2671 -0.0390
 9355TIP3    H149480   4.952   5.940  12.839  1.3721  0.5849  1.2456
 9355TIP3    H249481   5.098   5.924  12.800  0.7211  0.4162 -1.3372
 9356TIP3   OH249482   4.656   1.271   5.158  0.5143  0.2820  0.1324
 9356TIP3    H149483   4.662   1.318   5.240  0.1071 -1.3167  1.1316
 9356TIP3    H249484   4.632   1.337   5.093 -0.0934  1.4115  1.4669
 9357TIP3   OH249485   0.792   5.135  11.330  0.0293  0.1959 -0.5725
 9357TIP3    H149486   0.805   5.194  11.404 -1.6532 -0.5270  0.3571
 9357TIP3    H249487   0.749   5.190  11.264 -0.4600  0.3217 -0.1590
 9358TIP3   OH249488   0.275   5.538  12.397  0.4764 -0.0821  0.5860
 9358TIP3    H149489   0.194   5.588  12.389  1.0353  0.9213  1.0126
 9358TIP3    H249490   0.302   5.521  12.306 -0.6058 -1.1181  0.4392
 9359TIP3   OH249491   5.889   1.638   3.121 -0.4884 -0.5761 -0.6959
 9359TIP3    H149492   5.812   1.625   3.065 -1.3633 -1.6419  0.6963
 9359TIP3    H249493   5.958   1.590   3.078 -1.0284 -0.9881 -1.1158
 9360TIP3   OH249494   1.298   5.725   0.117 -0.0613 -0.3257 -0.1361
 9360TIP3    H149495   1.384   5.767   0.123 -0.2127 -0.1411  1.1769
 9360TIP3    H249496   1.318   5.633   0.099  0.3368 -0.0089 -1.3875
 9361TIP3   OH249497   1.643   1.449  14.337 -0.1583  0.2970  0.2934
 9361TIP3    H149498   1.573   1.383  14.345  0.7974 -0.8772 -0.7471
 9361TIP3    H249499   1.703   1.428  14.408  0.3101 -0.1675 -0.2352
 9362TIP3   OH249500   6.402   6.670  13.487  0.1148 -0.2183  0.8872
 9362TIP3    H149501   6.307   6.663  13.502 -0.1274  0.1076 -0.3940
 9362TIP3    H249502   6.423   6.759  13.515  0.6803 -1.2311  4.1769
 9363TIP3   OH249503   4.426   3.846  10.595  0.1028  0.0957  0.0777
 9363TIP3    H149504   4.356   3.827  10.532 -0.0882  1.1118 -0.0350
 9363TIP3    H249505   4.429   3.769  10.652 -0.0848 -0.6096 -0.8372
 9364TIP3   OH249506   3.739   0.236  14.540  0.0553  0.0523  0.0233
 9364TIP3    H149507   3.655   0.191  14.530  0.7460 -0.9173 -1.8127
 9364TIP3    H249508   3.794   0.175  14.588  0.2198 -0.0225 -0.2571
 9365TIP3   OH249509   0.521   2.665   2.299 -0.4744 -0.0288  0.7936
 9365TIP3    H149510   0.490   2.706   2.380 -1.6560 -0.7324  0.7107
 9365TIP3    H249511   0.470   2.706   2.230  1.4658  1.5630  0.1997
 9366TIP3   OH249512   1.943   2.974   6.049 -1.1860 -0.1664 -0.1707
 9366TIP3    H149513   1.994   2.895   6.067 -0.0878  0.6279  0.2316
 9366TIP3    H249514   1.864   2.963   6.103 -1.6225 -1.5370 -1.0248
 9367TIP3   OH249515   2.559   0.560   1.113 -0.5993 -0.3765  0.4712
 9367TIP3    H149516   2.515   0.496   1.169  0.5981 -1.0044  0.7138
 9367TIP3    H249517   2.576   0.634   1.171  0.2985 -0.8721  0.8477
 9368TIP3   OH249518   1.232   0.337  15.251  0.3028 -0.3042  0.0863
 9368TIP3    H149519   1.307   0.290  15.288  1.3234  0.2785 -1.1592
 9368TIP3    H249520   1.243   0.427  15.281 -0.1341 -0.3071  0.2533
 9369TIP3   OH249521   1.506   5.897  12.506 -0.8200 -0.3432  0.0382
 9369TIP3    H149522   1.585   5.891  12.560  0.3132  0.5944 -1.4359
 9369TIP3    H249523   1.530   5.957  12.436 -2.1378 -1.6998 -1.6505
 9370TIP3   OH249524   6.250   3.495  13.962 -0.0949  0.2847 -0.0798
 9370TIP3    H149525   6.281   3.416  13.917 -0.6565 -0.2094  0.3871
 9370TIP3    H249526   6.247   3.470  14.055 -2.5957  0.0405 -0.1620
 9371TIP3   OH249527   3.059   6.606  16.989  0.7281  0.5165  0.4291
 9371TIP3    H149528   2.984   6.552  17.015 -0.9279  2.9418  1.0866
 9371TIP3    H249529   3.086   6.648  17.071  2.1028  0.5221 -0.0186
 9372TIP3   OH249530   2.426   1.838  12.520  0.6368 -0.3642 -0.0660
 9372TIP3    H149531   2.411   1.899  12.447  0.9755  0.9485  0.9272
 9372TIP3    H249532   2.345   1.842  12.571  1.2977  0.5843  0.9346
 9373TIP3   OH249533   1.006   0.057  16.847 -0.4334  0.4612  0.3021
 9373TIP3    H149534   0.955   0.137  16.857 -0.6413  0.5133 -0.9965
 9373TIP3    H249535   1.036   0.058  16.756  1.6842  0.2918  0.9456
 9374TIP3   OH249536   3.113   6.477   4.793  0.1890 -0.0801  0.4664
 9374TIP3    H149537   3.168   6.399   4.793 -0.3467 -0.5342 -1.7263
 9374TIP3    H249538   3.024   6.443   4.801  0.0500  0.4690  1.4007
 9375TIP3   OH249539   3.885   1.652  12.218  0.5868 -0.0686 -0.3058
 9375TIP3    H149540   3.893   1.721  12.284  0.6480 -0.3608 -0.0098
 9375TIP3    H249541   3.885   1.570  12.267 -1.4815 -0.2213 -0.4855
 9376TIP3   OH249542   0.258   5.342  15.345 -0.3084 -0.1419  0.4387
 9376TIP3    H149543   0.294   5.421  15.304  1.9779 -1.5452 -0.4832
 9376TIP3    H249544   0.204   5.302  15.277 -0.5642  0.0649  0.5203
 9377TIP3   OH249545   1.708   0.484  17.124  0.8064  0.5489  0.9661
 9377TIP3    H149546   1.682   0.444  17.207 -0.0829  1.8209  1.3324
 9377TIP3    H249547   1.779   0.544  17.148  0.4087  1.0704  0.8508
 9378TIP3   OH249548   2.860   6.314   5.415  0.2666 -0.4570  0.0422
 9378TIP3    H149549   2.820   6.305   5.502  0.2366  0.4274  0.1334
 9378TIP3    H249550   2.848   6.229   5.373  1.0566 -1.1938  1.2327
 9379TIP3   OH249551   2.229   0.917   1.095  0.0071  0.0315 -0.2259
 9379TIP3    H149552   2.287   0.983   1.133 -0.0292  0.0637 -0.2260
 9379TIP3    H249553   2.149   0.965   1.074  0.2286  0.1316 -0.8530
 9380TIP3   OH249554   1.354   1.916   2.079 -0.0831  0.5143 -0.5569
 9380TIP3    H149555   1.354   1.970   2.158 -1.6219 -0.0654 -0.1101
 9380TIP3    H249556   1.406   1.965   2.016  0.5587  1.3522  0.5821
 9381TIP3   OH249557   5.607   5.035  13.859 -0.2105  0.3372 -0.3762
 9381TIP3    H149558   5.696   5.000  13.851 -0.4412 -0.1419 -0.9204
 9381TIP3    H249559   5.612   5.122  13.820 -0.1091  0.0864 -0.9285
 9382TIP3   OH249560   6.412   5.048   0.571  0.3537 -0.1271  0.0637
 9382TIP3    H149561   6.507   5.062   0.570  0.5355 -0.3429  3.2253
 9382TIP3    H249562   6.375   5.129   0.538  1.6478  0.7574  0.7097
 9383TIP3   OH249563   1.044   0.096  16.177  0.1173 -0.4350  0.3489
 9383TIP3    H149564   1.004   0.064  16.096  0.7902  2.5728 -1.3085
 9383TIP3    H249565   1.122   0.144  16.148  0.4902  0.5914  2.7997
 9384TIP3   OH249566   2.830   0.493   5.007 -0.6619 -0.1021  0.6173
 9384TIP3    H149567   2.817   0.588   5.011  1.3147  0.1850  1.8871
 9384TIP3    H249568   2.797   0.461   5.091  1.1020 -0.1209  1.3537
 9385TIP3   OH249569   4.010   2.465  13.143 -0.1184  0.1339 -0.1754
 9385TIP3    H149570   3.958   2.537  13.178  0.5307  0.2511  0.5781
 9385TIP3    H249571   4.045   2.499  13.060 -1.1623  0.0789 -0.6499
 9386TIP3   OH249572   3.735   3.278  11.517 -0.1709 -0.1969 -0.1569
 9386TIP3    H149573   3.742   3.188  11.548 -1.2574 -0.6196 -1.0573
 9386TIP3    H249574   3.733   3.331  11.597 -1.1363 -1.1071  0.4573
 9387TIP3   OH249575   5.257   5.553  16.870  0.5802  0.1154 -0.3485
 9387TIP3    H149576   5.172   5.582  16.904  0.1705 -0.8133 -0.5626
 9387TIP3    H249577   5.249   5.458  16.862  1.2972  0.1215 -1.3319
 9388TIP3   OH249578   2.036   1.285  16.823 -0.3957  0.0709 -0.0148
 9388TIP3    H149579   2.083   1.363  16.792 -0.7027  0.2344 -0.0661
 9388TIP3    H249580   1.968   1.271  16.758 -0.2324 -0.3471 -0.1006
 9389TIP3   OH249581   0.203   5.351  13.275  0.1677  0.6034 -0.0720
 9389TIP3    H149582   0.227   5.416  13.341 -0.6109  0.8665 -0.0468
 9389TIP3    H249583   0.110   5.365  13.259  0.3147  0.4607 -1.1407
 9390TIP3   OH249584   5.995   2.542   2.160 -0.0126 -0.1151 -0.3315
 9390TIP3    H149585   5.912   2.496   2.167  1.4062 -2.6414  3.6359
 9390TIP3    H249586   5.973   2.634   2.172 -2.3334 -0.4719 -1.3053
 9391TIP3   OH249587   1.400   5.857  14.171  0.1003  0.2200 -0.0473
 9391TIP3    H149588   1.428   5.947  14.186 -0.7337  0.5758 -0.5080
 9391TIP3    H249589   1.362   5.829  14.254 -1.7978  1.1413 -0.5425
 9392TIP3   OH249590   6.631   2.917   2.678  0.8551 -0.1419 -0.2405
 9392TIP3    H149591   6.646   3.007   2.708 -1.0809  0.3984 -0.7591
 9392TIP3    H249592   6.663   2.916   2.588  2.2065 -0.4136  0.2154
 9393TIP3   OH249593   3.758   5.561   1.171  0.1005  0.4249 -0.2706
 9393TIP3    H149594   3.679   5.581   1.220  1.0967  2.3759  0.6170
 9393TIP3    H249595   3.772   5.637   1.115  1.6512  0.3607 -0.0100
 9394TIP3   OH249596   4.247   5.997  11.796 -0.3817  0.2110 -0.0093
 9394TIP3    H149597   4.192   5.920  11.782 -1.7252  0.9609  0.8523
 9394TIP3    H249598   4.235   6.050  11.718 -0.9861  0.4280  0.2296
 9395TIP3   OH249599   5.725   3.774  16.239 -0.2867  0.0222 -0.2357
 9395TIP3    H149600   5.717   3.737  16.326 -0.8502  1.3821  0.3261
 9395TIP3    H249601   5.802   3.831  16.245 -1.3156  1.4449 -0.0896
 9396TIP3   OH249602   0.328   4.944  13.755  0.4385 -0.0753 -0.1604
 9396TIP3    H149603   0.389   5.010  13.787 -1.2052  1.8536 -0.8051
 9396TIP3    H249604   0.362   4.918  13.670  0.3825  0.9606 -0.5056
 9397TIP3   OH249605   2.523   3.266  13.330 -0.5300  0.1437 -0.1318
 9397TIP3    H149606   2.477   3.349  13.341 -2.7345 -0.9581 -0.4292
 9397TIP3    H249607   2.476   3.222  13.259  1.5391 -0.7391 -1.0248
 9398TIP3   OH249608   6.652   5.897  16.862 -0.2324 -0.0001  0.2816
 9398TIP3    H149609   6.732   5.942  16.889 -1.5097  1.4583  1.8742
 9398TIP3    H249610   6.616   5.953  16.793 -1.1199  0.7218  1.3039
 9399TIP3   OH249611   6.411   1.461   2.686  0.6388  0.4578 -0.1698
 9399TIP3    H149612   6.415   1.377   2.732  0.0256  0.1199 -0.7153
 9399TIP3    H249613   6.365   1.441   2.605 -0.9249  1.6179  0.3791
 9400TIP3   OH249614   0.906   4.427   1.328  0.1816 -0.4713 -0.6451
 9400TIP3    H149615   0.941   4.516   1.324 -2.0296  0.4726  0.0101
 9400TIP3    H249616   0.964   4.377   1.270  0.8648  1.5748 -1.8474
 9401TIP3   OH249617   6.376   0.012  16.466  0.7207 -0.7876 -0.3856
 9401TIP3    H149618   6.396   0.064  16.544 -1.1360 -1.7642  0.8249
 9401TIP3    H249619   6.455  -0.040  16.452  0.9858 -0.8328  1.0750
 9402TIP3   OH249620   6.256   6.199  17.099 -0.0758 -0.2023  0.0293
 9402TIP3    H149621   6.232   6.277  17.149 -0.7124 -0.7620  0.6181
 9402TIP3    H249622   6.236   6.126  17.158 -0.2787 -0.8468 -0.8252
 9403TIP3   OH249623   5.866   5.860   2.371 -0.1738  0.3854  0.8314
 9403TIP3    H149624   5.864   5.770   2.338 -1.6796  1.5978 -2.9643
 9403TIP3    H249625   5.780   5.874   2.410  0.0670  0.2058  1.4385
 9404TIP3   OH249626   6.326   0.269   6.203 -0.3648 -0.0308 -0.3345
 9404TIP3    H149627   6.234   0.281   6.229 -0.1597 -1.3206  1.1121
 9404TIP3    H249628   6.363   0.357   6.206 -1.5059  0.4905 -0.7709
 9405TIP3   OH249629   6.224   5.470   3.385  0.5229  0.6609 -0.1355
 9405TIP3    H149630   6.265   5.502   3.305  1.4136 -1.2018 -0.4755
 9405TIP3    H249631   6.250   5.378   3.390 -1.0466  0.2459  1.3201
 9406TIP3   OH249632   2.319   4.841  14.614 -0.4483  0.5500 -0.6611
 9406TIP3    H149633   2.352   4.901  14.681  0.7203  2.4395 -2.7621
 9406TIP3    H249634   2.233   4.815  14.646  0.0031  1.4711  1.4884
 9407TIP3   OH249635   6.747   0.127  12.634  0.1212 -0.4110  0.0968
 9407TIP3    H149636   6.836   0.162  12.639  1.0857 -2.5275 -0.9208
 9407TIP3    H249637   6.726   0.129  12.540 -0.5404 -0.7440  0.2333
 9408TIP3   OH249638   3.504   6.316   1.476  0.2900 -0.5863 -0.2351
 9408TIP3    H149639   3.469   6.235   1.440  1.4641 -1.6484  0.8774
 9408TIP3    H249640   3.541   6.362   1.401 -0.4386 -1.0569 -0.8937
 9409TIP3   OH249641   3.713   0.207   0.065 -0.0105 -0.6235  0.3068
 9409TIP3    H149642   3.683   0.270   0.131  0.4967 -0.7605  0.6782
 9409TIP3    H249643   3.751   0.136   0.116 -1.7051 -1.8440 -0.0618
 9410TIP3   OH249644   4.110   0.653  16.187  0.4341 -0.2579  0.2695
 9410TIP3    H149645   4.161   0.700  16.120  1.0326 -0.9014  0.2609
 9410TIP3    H249646   4.147   0.565  16.187 -0.5570 -0.6787  0.4152
 9411TIP3   OH249647   1.791   6.656   3.379 -0.1729  0.6738 -0.4294
 9411TIP3    H149648   1.765   6.564   3.383  1.0027  0.3405 -0.0319
 9411TIP3    H249649   1.858   6.665   3.447  0.1077  1.6913 -0.8167
 9412TIP3   OH249650   0.906   0.869  17.001  0.4261 -0.3154  0.4988
 9412TIP3    H149651   0.832   0.895  17.056 -0.3698 -0.8287 -0.2952
 9412TIP3    H249652   0.926   0.780  17.029  1.1973  0.0610  1.1728
 9413TIP3   OH249653   3.645   4.218  15.114 -0.5512  0.1840  0.0788
 9413TIP3    H149654   3.584   4.147  15.131  0.6533 -1.0064 -0.3990
 9413TIP3    H249655   3.609   4.264  15.039 -1.0587 -0.2496  0.0531
 9414TIP3   OH249656   6.309   4.010   1.599  0.0490 -0.1539  0.7726
 9414TIP3    H149657   6.394   3.971   1.578 -0.4428 -0.3208 -1.0523
 9414TIP3    H249658   6.245   3.952   1.559 -0.7608  1.7511 -0.9015
 9415TIP3   OH249659   0.960   0.719  13.996 -0.1699 -0.2225  0.3627
 9415TIP3    H149660   1.025   0.659  14.035 -1.8645 -2.5896 -0.2242
 9415TIP3    H249661   0.916   0.667  13.929 -1.4469  1.8785 -0.5390
 9416TIP3   OH249662   5.106   2.241   1.561 -0.3129 -0.0517 -0.1504
 9416TIP3    H149663   5.173   2.184   1.599  0.0122 -0.9541 -1.9415
 9416TIP3    H249664   5.137   2.330   1.579  1.7061 -0.4355 -1.4070
 9417TIP3   OH249665   2.004   0.088   2.603 -0.2148 -0.1672  0.3471
 9417TIP3    H149666   2.018   0.080   2.698 -0.6758 -1.4737  0.3330
 9417TIP3    H249667   1.942   0.018   2.583  0.1894 -0.1583 -0.9924
 9418TIP3   OH249668   0.414   6.652   2.561  0.0716 -0.1293 -0.1396
 9418TIP3    H149669   0.424   6.721   2.626  1.4559  0.1755 -0.6297
 9418TIP3    H249670   0.428   6.571   2.609  0.0940  0.0339  0.1279
 9419TIP3   OH249671   3.844   5.160  17.172 -0.0978 -0.7835 -0.0216
 9419TIP3    H149672   3.761   5.117  17.193  0.5533 -2.5525 -0.8639
 9419TIP3    H249673   3.848   5.160  17.076  0.3861  0.3171 -0.0227
 9420TIP3   OH249674   0.976   4.446   1.760 -0.6419  0.3188 -0.4648
 9420TIP3    H149675   0.964   4.538   1.782 -1.8088 -0.3081  1.8464
 9420TIP3    H249676   1.035   4.446   1.684  1.0269  2.8689  0.7281
 9421TIP3   OH249677   5.664   2.521  12.215 -0.4676  0.5305 -0.5778
 9421TIP3    H149678   5.589   2.463  12.222 -0.6839  0.8394 -0.3228
 9421TIP3    H249679   5.646   2.575  12.138 -0.5913  0.7290 -0.4085
 9422TIP3   OH249680   0.685   0.386   4.544 -0.3951 -0.5606 -0.2944
 9422TIP3    H149681   0.668   0.301   4.583  3.1343 -0.2396  2.3542
 9422TIP3    H249682   0.729   0.366   4.462 -0.1627 -1.2721 -0.0028
 9423TIP3   OH249683   6.139   6.113  15.184 -0.1723  0.1169  0.9612
 9423TIP3    H149684   6.156   6.099  15.091  1.1539 -1.3953  1.3906
 9423TIP3    H249685   6.051   6.076  15.197  0.2475 -1.0747  0.5796
 9424TIP3   OH249686   2.129   5.475   6.025  0.1533 -0.3849 -0.3687
 9424TIP3    H149687   2.181   5.548   5.992  1.8395 -1.1769  0.3923
 9424TIP3    H249688   2.090   5.507   6.106  0.4851 -0.1668 -0.2941
 9425TIP3   OH249689   4.054   1.090  16.617 -0.4739 -0.0078 -0.0421
 9425TIP3    H149690   4.006   1.116  16.538 -0.0487 -0.2616 -0.3900
 9425TIP3    H249691   4.095   1.006  16.593 -1.6085 -0.8899  0.9653
 9426TIP3   OH249692   2.904   5.182  11.772  0.1015 -0.2184 -0.0648
 9426TIP3    H149693   2.854   5.156  11.695  3.3465  0.8980 -2.7788
 9426TIP3    H249694   2.869   5.268  11.796 -0.4594 -0.2425 -0.7618
 9427TIP3   OH249695   1.129   3.610  16.582 -0.0561  0.7723  0.2161
 9427TIP3    H149696   1.037   3.635  16.588 -0.1789  1.1817 -2.5136
 9427TIP3    H249697   1.132   3.540  16.516  1.6207  0.9499  0.0488
 9428TIP3   OH249698   4.114   1.517   3.351  0.5284 -0.4339 -0.0429
 9428TIP3    H149699   4.088   1.428   3.330 -1.1882  0.3211 -1.3989
 9428TIP3    H249700   4.189   1.534   3.294 -0.2657 -0.4514 -1.1296
 9429TIP3   OH249701   3.626   4.997  17.129  0.3304  0.0828  0.0792
 9429TIP3    H149702   3.590   4.973  17.043  1.7709 -0.6777 -0.3394
 9429TIP3    H249703   3.583   4.938  17.190 -1.7796  1.5758  0.1246
 9430TIP3   OH249704   6.047   3.208  14.146  0.3071 -0.1037  0.7747
 9430TIP3    H149705   6.055   3.116  14.171 -1.0094 -0.4846 -0.0884
 9430TIP3    H249706   6.031   3.206  14.052  0.6985  1.0400  0.6693
 9431TIP3   OH249707   0.614   4.559  12.941 -0.5344  0.1741 -0.4747
 9431TIP3    H149708   0.701   4.577  12.907 -0.2345 -1.2938 -0.5261
 9431TIP3    H249709   0.555   4.609  12.883  0.3595  4.3842  1.8230
 9432TIP3   OH249710   4.217   3.967   0.161 -0.1162  0.6551  0.4868
 9432TIP3    H149711   4.291   3.953   0.220  0.4729 -1.8988 -0.6930
 9432TIP3    H249712   4.157   3.894   0.179  0.8292 -1.2035 -2.9547
 9433TIP3   OH249713   0.427   1.154  14.084  0.2076  0.2758 -0.0939
 9433TIP3    H149714   0.335   1.126  14.085  0.6720 -1.3234 -0.1287
 9433TIP3    H249715   0.467   1.110  14.158  1.6011 -1.5001 -1.7952
 9434TIP3   OH249716   0.521   1.236   4.986 -0.4176  0.0957 -0.0409
 9434TIP3    H149717   0.558   1.149   5.003  0.4121  0.3684 -0.3657
 9434TIP3    H249718   0.580   1.295   5.032 -2.2095  0.3715  2.0450
 9435TIP3   OH249719   2.758   2.441  16.170 -0.1962 -0.6172 -0.0358
 9435TIP3    H149720   2.739   2.391  16.091  1.1261  2.3823 -2.4697
 9435TIP3    H249721   2.853   2.430  16.183 -0.2103 -0.1829  0.4695
 9436TIP3   OH249722   5.735   4.364  11.875  0.0432 -0.2211  0.1561
 9436TIP3    H149723   5.661   4.317  11.914  0.6808  0.3794  2.2103
 9436TIP3    H249724   5.812   4.314  11.902  0.7464  1.9135  2.4819
 9437TIP3   OH249725   4.406   3.667  16.382  0.1709 -0.5320  0.5064
 9437TIP3    H149726   4.341   3.732  16.409 -0.2593 -0.1791 -1.2526
 9437TIP3    H249727   4.474   3.672  16.449 -1.0698 -0.1016  1.7693
 9438TIP3   OH249728   4.550   6.423   0.767 -0.5968 -0.1755 -0.0627
 9438TIP3    H149729   4.536   6.517   0.781  0.3042  0.0386 -0.5493
 9438TIP3    H249730   4.623   6.401   0.825  0.1655 -0.2513 -1.0320
 9439TIP3   OH249731   0.927   5.764  13.367 -0.4849  0.0181 -0.4242
 9439TIP3    H149732   0.838   5.768  13.401 -1.4022 -0.6896 -2.5452
 9439TIP3    H249733   0.920   5.705  13.292  1.5748  0.7660 -1.2496
 9440TIP3   OH249734   3.960   4.285  11.089 -0.2203 -0.4013 -0.5593
 9440TIP3    H149735   3.937   4.315  11.177 -0.7632 -0.3751 -0.7019
 9440TIP3    H249736   3.924   4.353  11.031 -0.0831 -0.5417 -0.8100
 9441TIP3   OH249737   2.361   0.562   5.879  0.3873  0.1159 -0.3568
 9441TIP3    H149738   2.280   0.611   5.890  1.4138  2.0556 -0.9449
 9441TIP3    H249739   2.422   0.625   5.839  2.5921 -0.8153  1.3103
 9442TIP3   OH249740   2.584   6.472   3.415 -0.3209  0.3942  0.4734
 9442TIP3    H149741   2.542   6.530   3.352 -0.4728  1.1279  1.2219
 9442TIP3    H249742   2.564   6.511   3.500  1.3858  0.4458  0.8827
 9443TIP3   OH249743   1.102   1.597   4.380 -0.4970 -0.1442 -0.0094
 9443TIP3    H149744   1.136   1.617   4.293  1.2913 -0.5444  0.5693
 9443TIP3    H249745   1.081   1.504   4.377  0.5842 -0.4066  0.2971
 9444TIP3   OH249746   5.285   6.002   4.721  0.1221 -0.7395 -0.5162
 9444TIP3    H149747   5.265   6.066   4.653  0.6328  0.5804  0.5141
 9444TIP3    H249748   5.343   5.939   4.679 -0.0865 -0.3150 -1.4615
 9445TIP3   OH249749   4.785   3.937  15.583 -0.2862  0.4673  0.2904
 9445TIP3    H149750   4.697   3.969  15.560  0.2776  1.0878 -1.1059
 9445TIP3    H249751   4.814   3.889  15.506  1.1629  1.4972  0.1622
 9446TIP3   OH249752   0.729   2.196  12.767 -0.3401 -0.2490 -1.0754
 9446TIP3    H149753   0.710   2.121  12.712  0.9443 -0.4639 -1.2701
 9446TIP3    H249754   0.816   2.178  12.803 -0.9275  0.1271  0.6293
 9447TIP3   OH249755   3.132   3.043  15.497  0.3105 -0.5387 -0.3368
 9447TIP3    H149756   3.082   3.085  15.567 -0.4170  0.4492 -1.4101
 9447TIP3    H249757   3.146   2.954  15.527  0.2558 -0.0610  1.1874
 9448TIP3   OH249758   6.522   5.631  17.189 -0.3201  0.6366 -0.3170
 9448TIP3    H149759   6.475   5.677  17.258 -0.7651  1.2200 -1.0035
 9448TIP3    H249760   6.454   5.579  17.144 -0.3653  1.6039 -1.4100
 9449TIP3   OH249761   1.704   0.891  15.282 -0.0993  0.2774  0.3996
 9449TIP3    H149762   1.786   0.921  15.322  0.3704 -1.3826  0.7538
 9449TIP3    H249763   1.721   0.897  15.188 -0.0564  1.1670  0.4525
 9450TIP3   OH249764   5.717   4.403   5.736 -0.1016  0.2673 -0.1644
 9450TIP3    H149765   5.741   4.313   5.717 -0.1260  0.7054 -2.6114
 9450TIP3    H249766   5.646   4.396   5.800 -0.5027 -1.4727 -0.7529
 9451TIP3   OH249767   2.653   4.767   1.568 -0.5063 -0.2903  0.0712
 9451TIP3    H149768   2.634   4.673   1.575  0.1854 -0.4719 -0.3458
 9451TIP3    H249769   2.570   4.807   1.544 -0.7042 -0.8617 -0.2098
 9452TIP3   OH249770   2.083   2.925   2.387  0.4866 -0.5100  0.2124
 9452TIP3    H149771   2.083   2.920   2.483  1.3646  0.4276  0.2826
 9452TIP3    H249772   1.992   2.913   2.362 -0.1532  1.5658  1.3329
 9453TIP3   OH249773   5.210   0.487   5.508 -1.0886  0.4283  0.0483
 9453TIP3    H149774   5.238   0.531   5.428 -2.8568 -0.2224 -0.9946
 9453TIP3    H249775   5.116   0.505   5.514 -1.2081 -0.4488  1.3941
 9454TIP3   OH249776   6.332   5.207   3.340  0.2919  0.1045 -0.5309
 9454TIP3    H149777   6.361   5.141   3.277  0.0352  1.4296 -2.0886
 9454TIP3    H249778   6.270   5.161   3.397  0.6235 -1.1520 -1.1595
 9455TIP3   OH249779   1.856   2.630  13.699 -0.1554 -0.3868  0.0983
 9455TIP3    H149780   1.906   2.553  13.673 -0.4325 -0.6672  0.3909
 9455TIP3    H249781   1.922   2.697  13.715  0.0028  0.1148 -2.3025
 9456TIP3   OH249782   4.328   0.437  15.303  0.0415  0.1228 -0.2709
 9456TIP3    H149783   4.356   0.436  15.395 -0.1148  3.1615 -0.0807
 9456TIP3    H249784   4.264   0.367  15.297 -0.5167  0.3190  2.1787
 9457TIP3   OH249785   0.359   6.648   5.998 -0.0916 -0.0833  0.1580
 9457TIP3    H149786   0.291   6.684   5.940  1.1179  0.2211 -1.1095
 9457TIP3    H249787   0.340   6.555   6.002  0.6317 -0.3783 -1.9498
 9458TIP3   OH249788   1.420   4.137  14.893  0.1741  0.2791  0.4157
 9458TIP3    H149789   1.351   4.201  14.878  0.0200 -0.0877 -0.5281
 9458TIP3    H249790   1.445   4.150  14.985 -2.0393 -0.4375  1.2016
 9459TIP3   OH249791   5.722   2.274  13.323  0.9489 -0.1734  0.3712
 9459TIP3    H149792   5.767   2.200  13.363 -1.3423 -2.2615 -0.6376
 9459TIP3    H249793   5.698   2.330  13.397  4.1089  0.4984  1.0108
 9460TIP3   OH249794   6.259   0.693   1.491 -0.2473  0.2305 -0.0377
 9460TIP3    H149795   6.215   0.707   1.575 -0.8603 -0.0569 -0.2964
 9460TIP3    H249796   6.194   0.720   1.425  0.3081  0.6654 -0.4120
 9461TIP3   OH249797   0.105   1.586   0.267 -0.0810  0.1233  0.3786
 9461TIP3    H149798   0.086   1.659   0.209 -0.2040 -1.2587 -1.3986
 9461TIP3    H249799   0.195   1.603   0.298 -0.4185  1.4362  0.7101
 9462TIP3   OH249800   3.215   1.334   0.587 -0.1870  0.2420  0.0365
 9462TIP3    H149801   3.223   1.426   0.563  0.5636 -0.1916 -1.5402
 9462TIP3    H249802   3.200   1.335   0.681 -0.0404  1.9663  0.0796
 9463TIP3   OH249803   3.080   4.399  16.463  0.3798  0.0308 -0.1090
 9463TIP3    H149804   3.020   4.464  16.427  2.0972  1.3645 -0.6993
 9463TIP3    H249805   3.168   4.434  16.446  1.3480 -1.0362  2.1516
 9464TIP3   OH249806   0.607   6.388   0.297  0.3193 -0.4709  0.3232
 9464TIP3    H149807   0.595   6.416   0.388  1.6512  0.4547  0.2307
 9464TIP3    H249808   0.677   6.323   0.301  1.1983  0.4175 -0.1570
 9465TIP3   OH249809   2.813   3.881  14.152  0.0876 -0.3223 -0.0306
 9465TIP3    H149810   2.751   3.953  14.149 -0.7786 -1.0558 -0.1837
 9465TIP3    H249811   2.870   3.894  14.076  0.2864  0.4780  0.2406
 9466TIP3   OH249812   4.340   4.028  11.894 -0.3615 -0.3874 -0.5214
 9466TIP3    H149813   4.255   3.988  11.909 -0.5693 -0.8371 -2.5738
 9466TIP3    H249814   4.320   4.115  11.861  0.0463  0.2987  0.9605
 9467TIP3   OH249815   0.091   3.069   4.252  0.1137  0.5609  0.3639
 9467TIP3    H149816   0.149   2.993   4.250  1.4583  1.5242 -2.4671
 9467TIP3    H249817   0.134   3.131   4.311 -0.5214 -0.4927  1.9677
 9468TIP3   OH249818   0.423   3.066  14.648  0.2983  0.0339 -0.0587
 9468TIP3    H149819   0.367   3.129  14.694  1.2176  0.0196  1.1436
 9468TIP3    H249820   0.478   3.120  14.591 -0.5905  0.0843 -0.9026
 9469TIP3   OH249821   2.364   5.260  14.542  0.0067 -0.2964 -0.6280
 9469TIP3    H149822   2.287   5.262  14.599  0.9091 -0.8249  0.6336
 9469TIP3    H249823   2.394   5.351  14.538 -1.5432  0.2109 -2.3967
 9470TIP3   OH249824   3.892   2.179  16.304 -0.1773  0.7932  0.3189
 9470TIP3    H149825   3.921   2.240  16.372  1.0374 -0.1782  0.7131
 9470TIP3    H249826   3.973   2.141  16.270 -0.8938 -0.7763  0.2723
 9471TIP3   OH249827   0.880   0.039  15.386  0.2306  0.0257  0.3601
 9471TIP3    H149828   0.932   0.027  15.466  0.1223 -1.4651  0.2317
 9471TIP3    H249829   0.935   0.094  15.330  1.2911 -0.7614  0.5895
 9472TIP3   OH249830   6.228   0.276   5.389  0.6671 -0.2925  0.0030
 9472TIP3    H149831   6.153   0.268   5.331  1.0321 -2.0171 -0.2683
 9472TIP3    H249832   6.198   0.336   5.458 -1.3208 -1.6913  0.4530
 9473TIP3   OH249833   4.776   4.796  14.158  0.1074 -0.3458 -0.3045
 9473TIP3    H149834   4.788   4.796  14.063  1.2275 -0.2812 -0.1786
 9473TIP3    H249835   4.863   4.775  14.193 -0.7004 -2.3653  0.6603
 9474TIP3   OH249836   2.544   0.946  16.832  0.6526 -0.3298  0.7017
 9474TIP3    H149837   2.611   0.998  16.877  0.3920  0.8264 -0.1871
 9474TIP3    H249838   2.541   0.863  16.879  1.0007  0.5132  2.2587
 9475TIP3   OH249839   2.074   6.534   3.082  0.3007 -0.4264  0.3612
 9475TIP3    H149840   2.051   6.542   3.175  0.6234 -0.6629  0.4595
 9475TIP3    H249841   2.162   6.496   3.081 -0.4609 -2.2775 -0.0733
 9476TIP3   OH249842   3.696   5.684   3.358  0.8776  0.4625  0.5027
 9476TIP3    H149843   3.693   5.764   3.306  0.7928  1.1009  1.4672
 9476TIP3    H249844   3.625   5.694   3.422  1.0796 -0.2302  0.8445
 9477TIP3   OH249845   4.903   5.636  11.160  0.3988  0.4496  0.1086
 9477TIP3    H149846   4.895   5.548  11.123  2.1940  0.0880  0.4421
 9477TIP3    H249847   4.835   5.640  11.227 -1.9636  0.5982 -2.1393
 9478TIP3   OH249848   0.236   5.666  14.921 -0.3794  0.7139 -0.7369
 9478TIP3    H149849   0.283   5.690  14.841 -1.6161 -0.1972 -1.7729
 9478TIP3    H249850   0.147   5.649  14.892 -0.2843 -2.1883  0.3722
 9479TIP3   OH249851   5.339   6.471   2.614 -0.3460  0.3060 -0.1676
 9479TIP3    H149852   5.326   6.392   2.667  1.0069  0.6786  0.7587
 9479TIP3    H249853   5.250   6.498   2.590 -0.8548 -1.3141 -0.2502
 9480TIP3   OH249854   0.316   4.378   5.627 -0.0453  0.1435 -0.3310
 9480TIP3    H149855   0.340   4.460   5.583 -0.2737 -0.5640 -1.8331
 9480TIP3    H249856   0.222   4.387   5.646  0.2002  0.7380  0.7154
 9481TIP3   OH249857   1.868   6.328   6.056 -0.3908  0.0907  0.6777
 9481TIP3    H149858   1.864   6.242   6.097 -0.8963 -0.7457 -1.0588
 9481TIP3    H249859   1.776   6.351   6.041 -0.2088  0.2162 -0.2866
 9482TIP3   OH249860   4.797   1.502  14.188  0.3742 -0.2294  0.0467
 9482TIP3    H149861   4.702   1.507  14.193  0.4758  2.4699  0.8915
 9482TIP3    H249862   4.818   1.541  14.103  0.7802  2.7566  1.3846
 9483TIP3   OH249863   0.823   4.208   1.755 -0.2764  0.4072  0.3599
 9483TIP3    H149864   0.730   4.227   1.753 -0.3741  0.0575 -2.4488
 9483TIP3    H249865   0.864   4.290   1.781 -1.3202  0.7271  1.0568
 9484TIP3   OH249866   6.769   1.419   5.228 -0.4896  0.0861  0.1978
 9484TIP3    H149867   6.857   1.452   5.210 -0.3169 -0.0727  0.7293
 9484TIP3    H249868   6.776   1.324   5.214 -0.3569 -0.0377  1.0489
 9485TIP3   OH249869   4.132   3.724  15.459 -0.1954 -0.0214  0.5848
 9485TIP3    H149870   4.115   3.634  15.487 -1.4858  0.2198  0.6729
 9485TIP3    H249871   4.212   3.718  15.407  0.1906 -1.0786  1.2524
 9486TIP3   OH249872   4.320   5.000   0.695 -0.1836 -0.1056  0.6547
 9486TIP3    H149873   4.337   5.054   0.772  0.9409  0.5212 -0.0048
 9486TIP3    H249874   4.344   4.911   0.723  0.1495  0.1031  1.0558
 9487TIP3   OH249875   6.616   0.624  16.340 -0.6768 -0.2118 -0.1313
 9487TIP3    H149876   6.600   0.532  16.320  0.4149 -0.5391  0.3903
 9487TIP3    H249877   6.541   0.671  16.303 -1.3332 -1.3243 -0.2520
 9488TIP3   OH249878   4.366   2.637   1.032 -0.0790 -0.0568 -0.3157
 9488TIP3    H149879   4.377   2.685   0.950 -1.4050 -1.8687 -1.6287
 9488TIP3    H249880   4.442   2.662   1.085  0.5048  1.6067 -1.8337
 9489TIP3   OH249881   3.204   4.738   3.104 -0.1313  0.0557 -0.2381
 9489TIP3    H149882   3.145   4.671   3.139  0.7148  0.9541  3.2600
 9489TIP3    H249883   3.269   4.751   3.172  1.9091  1.8552 -2.3671
 9490TIP3   OH249884   5.660   5.301   3.478  0.3733  0.1284 -0.4013
 9490TIP3    H149885   5.736   5.350   3.509  0.7641 -1.1721  0.8321
 9490TIP3    H249886   5.634   5.345   3.397  1.6439  1.3814 -0.1732
 9491TIP3   OH249887   0.067   6.160  11.357  0.0681  0.3271 -0.1827
 9491TIP3    H149888   0.099   6.231  11.412 -0.4939 -0.4925  1.2607
 9491TIP3    H249889   0.146   6.121  11.319  0.3529  1.9457 -1.3419
 9492TIP3   OH249890   4.381   1.861   2.830  0.4760 -0.2505  0.1805
 9492TIP3    H149891   4.311   1.903   2.780  2.4644  3.2485  0.0147
 9492TIP3    H249892   4.371   1.894   2.919  0.8524 -1.1478  0.5648
 9493TIP3   OH249893   5.896   5.591  11.494  0.5311 -0.0257  0.3260
 9493TIP3    H149894   5.910   5.506  11.537  0.9840  1.5708  3.6643
 9493TIP3    H249895   5.810   5.583  11.455  0.4895 -1.9783  0.6674
 9494TIP3   OH249896   3.036   6.394   0.890  0.0014  0.2335 -0.4506
 9494TIP3    H149897   2.949   6.408   0.851 -0.7221  0.6634  1.2429
 9494TIP3    H249898   3.092   6.372   0.815 -1.4778  0.2957 -1.6311
 9495TIP3   OH249899   2.136   6.741  15.840 -0.4361 -0.2266 -0.1134
 9495TIP3    H149900   2.073   6.688  15.890 -0.5101  0.6675  0.7777
 9495TIP3    H249901   2.142   6.698  15.755  0.9522 -2.8140  1.1684
 9496TIP3   OH249902   4.411   3.869   3.692  0.1428  0.2908  0.4160
 9496TIP3    H149903   4.392   3.790   3.743  0.1972 -0.2067 -0.3197
 9496TIP3    H249904   4.447   3.836   3.610  2.0671  1.1244  0.8675
 9497TIP3   OH249905   1.013   5.367  11.999  0.5787  0.5211  0.5402
 9497TIP3    H149906   1.051   5.317  12.071  1.9845  1.1161  0.2437
 9497TIP3    H249907   1.083   5.374  11.934 -0.2744  1.0234 -0.3709
 9498TIP3   OH249908   4.315   2.995   1.388  0.0622 -0.0653 -0.5525
 9498TIP3    H149909   4.235   2.942   1.392 -1.2131  1.5612 -2.4285
 9498TIP3    H249910   4.377   2.950   1.445 -2.5814 -0.7105  2.0616
 9499TIP3   OH249911   0.166   1.618   4.100  0.3033 -0.1825 -0.3826
 9499TIP3    H149912   0.120   1.684   4.048  0.0953 -1.4050 -1.8405
 9499TIP3    H249913   0.096   1.565   4.138  0.4531  0.8227  1.3689
 9500TIP3   OH249914   2.477   3.543  10.452 -0.3038  0.0769  0.1173
 9500TIP3    H149915   2.439   3.627  10.477 -0.0953 -0.4430  2.3419
 9500TIP3    H249916   2.545   3.565  10.388  0.6657  1.7466  1.6654
 9501TIP3   OH249917   6.300   3.151  12.690 -0.1131  0.0828  0.1219
 9501TIP3    H149918   6.207   3.168  12.705 -0.2462  0.6822 -1.2952
 9501TIP3    H249919   6.345   3.220  12.739 -0.2552 -1.5809  2.8336
 9502TIP3   OH249920   5.408   5.798   4.153 -0.0988 -0.0650 -0.1667
 9502TIP3    H149921   5.445   5.727   4.206  1.1426  0.5803 -0.1366
 9502TIP3    H249922   5.341   5.836   4.209 -0.4908 -0.9354 -0.0181
 9503TIP3   OH249923   3.818   3.645  11.512  0.5175  0.1057  0.0937
 9503TIP3    H149924   3.754   3.648  11.583  1.6136 -3.3890  1.4134
 9503TIP3    H249925   3.766   3.641  11.432 -0.7919  0.9564  0.8788
 9504TIP3   OH249926   5.507   4.325   0.922 -0.4209 -0.2144  0.0066
 9504TIP3    H149927   5.428   4.271   0.914 -0.6438  0.2422 -0.9865
 9504TIP3    H249928   5.576   4.262   0.941 -0.8428 -0.7393 -0.1627
 9505TIP3   OH249929   4.410   2.620   2.736  0.1306 -0.2690  0.4981
 9505TIP3    H149930   4.432   2.653   2.649  0.0602 -0.7025  0.3126
 9505TIP3    H249931   4.486   2.567   2.761 -1.2877 -3.1793 -0.8575
 9506TIP3   OH249932   3.793   4.911  16.367 -0.0785 -0.0819  0.2070
 9506TIP3    H149933   3.854   4.841  16.390  0.0531 -0.3227 -0.8394
 9506TIP3    H249934   3.707   4.871  16.374 -0.0262 -0.2259  0.0098
 9507TIP3   OH249935   1.302   6.128   6.114 -0.2777  0.2805 -0.8299
 9507TIP3    H149936   1.289   6.036   6.136 -0.8538  0.4750 -0.3336
 9507TIP3    H249937   1.363   6.160   6.180  0.2132  0.1633 -1.2263
 9508TIP3   OH249938   3.103   5.616   5.661  0.5101 -0.0255 -0.3599
 9508TIP3    H149939   3.065   5.551   5.602 -0.7692 -0.2375  0.6370
 9508TIP3    H249940   3.190   5.634   5.625  0.0912 -0.7497 -1.8163
 9509TIP3   OH249941   3.612   4.840   4.279 -0.0423  0.2187 -0.4152
 9509TIP3    H149942   3.680   4.873   4.338 -1.9027  1.9744  0.8386
 9509TIP3    H249943   3.558   4.783   4.333 -1.6726  1.7132 -0.3899
 9510TIP3   OH249944   1.035   3.523   6.525 -0.3126  0.3079  0.3154
 9510TIP3    H149945   1.064   3.610   6.553 -0.2803  0.7786 -1.1019
 9510TIP3    H249946   1.110   3.466   6.545 -0.7048  0.3678  2.1900
 9511TIP3   OH249947   6.550   5.306  11.511  0.1948  0.9874 -0.2977
 9511TIP3    H149948   6.568   5.213  11.526 -1.6933  0.6716  0.2533
 9511TIP3    H249949   6.603   5.328  11.434  0.7618 -0.5157 -0.3773
 9512TIP3   OH249950   2.547   3.616  11.495  0.1599 -0.9669  0.3270
 9512TIP3    H149951   2.538   3.566  11.414 -1.9028  1.2898 -0.9973
 9512TIP3    H249952   2.597   3.694  11.470  1.1112 -1.1216  1.6899
 9513TIP3   OH249953   1.295   6.357   1.137 -0.4890 -0.0009 -0.3720
 9513TIP3    H149954   1.325   6.273   1.172 -1.4947 -0.1173  0.2482
 9513TIP3    H249955   1.369   6.416   1.149  0.3303 -0.8488 -1.0628
 9514TIP3   OH249956   0.040   6.309  16.520  0.3140 -0.2254  0.5007
 9514TIP3    H149957  -0.027   6.342  16.580 -0.0657  0.5465 -0.3382
 9514TIP3    H249958   0.120   6.356  16.546  0.2032 -0.0633  0.5516
 9515TIP3   OH249959   4.634   0.201  13.788  0.1401  0.0435  0.0643
 9515TIP3    H149960   4.727   0.222  13.798  0.4861 -0.4095 -1.9041
 9515TIP3    H249961   4.590   0.286  13.789  0.7579  0.3806 -0.5272
 9516TIP3   OH249962   1.730   3.446  11.972  0.4036  0.6984  0.4466
 9516TIP3    H149963   1.638   3.471  11.964  0.0486 -0.6895 -0.2196
 9516TIP3    H249964   1.770   3.477  11.891  0.4755  1.0979  0.6329
 9517TIP3   OH249965   6.411   4.041   3.146  0.3494 -0.3002  0.1061
 9517TIP3    H149966   6.470   4.021   3.073 -1.4284 -1.0972 -1.1955
 9517TIP3    H249967   6.344   4.097   3.107 -1.5574 -2.0683  0.6591
 9518TIP3   OH249968   0.315   4.972  16.032  0.4744  0.4563  0.0919
 9518TIP3    H149969   0.321   4.909  15.960 -0.3989  1.3088 -0.7418
 9518TIP3    H249970   0.236   4.947  16.080  0.4905  0.5164  0.1498
 9519TIP3   OH249971   3.646   3.681  11.053  0.6631  0.5360  0.0443
 9519TIP3    H149972   3.579   3.695  11.120  0.4197  1.3076 -0.3526
 9519TIP3    H249973   3.660   3.587  11.053 -0.6327  0.3240 -0.0686
 9520TIP3   OH249974   6.584   1.059  14.392 -0.4762  0.3407  0.6166
 9520TIP3    H149975   6.625   1.139  14.360 -0.6778  0.6954  1.2466
 9520TIP3    H249976   6.585   1.067  14.487 -0.8815 -0.2134  0.6744
 9521TIP3   OH249977   2.119   1.009  11.895  0.0545  0.7083 -0.4998
 9521TIP3    H149978   2.183   0.957  11.943 -0.2395 -0.4519 -1.3271
 9521TIP3    H249979   2.035   0.969  11.917 -0.5012  2.5077  0.9627
 9522TIP3   OH249980   6.316   4.934  14.496 -0.0832 -0.2754 -0.0670
 9522TIP3    H149981   6.273   4.879  14.562  0.4463  1.3808  1.7665
 9522TIP3    H249982   6.268   5.017  14.499  0.3654  0.0478 -1.3334
 9523TIP3   OH249983   4.670   5.809  15.524  0.7892 -0.1814  0.4391
 9523TIP3    H149984   4.591   5.839  15.569  0.5534  0.3445 -0.3101
 9523TIP3    H249985   4.739   5.866  15.556  0.4610  0.7911 -0.4868
 9524TIP3   OH249986   0.026   0.774   4.132 -0.2910  0.3730  0.0274
 9524TIP3    H149987  -0.017   0.691   4.110  1.9071 -0.8049 -0.1071
 9524TIP3    H249988   0.023   0.824   4.050 -0.3886 -0.1556 -0.3036
 9525TIP3   OH249989   5.199   2.115  13.500 -0.1980  0.0269  0.5057
 9525TIP3    H149990   5.144   2.181  13.543 -0.1010  0.5254 -0.1321
 9525TIP3    H249991   5.214   2.049  13.568  0.7234  1.2568  1.5371
 9526TIP3   OH249992   0.164   6.316  13.113 -0.1922 -0.1235  0.2178
 9526TIP3    H149993   0.232   6.370  13.071 -0.4855  0.0977  0.0253
 9526TIP3    H249994   0.141   6.251  13.047  0.1391 -0.4693  0.4393
 9527TIP3   OH249995   3.638   3.514   3.089  0.0452 -0.4855  0.2416
 9527TIP3    H149996   3.609   3.428   3.118  1.7505 -1.0985  0.2327
 9527TIP3    H249997   3.680   3.553   3.166 -1.0986  0.5518  0.3789
 9528TIP3   OH249998   2.391   2.988  10.951  0.0475  0.4020  0.2121
 9528TIP3    H149999   2.437   3.043  10.887 -0.6821  1.4113  0.5212
 9528TIP3    H250000   2.303   2.978  10.915 -0.2886  0.7595  0.9200
 9529TIP3   OH250001   4.170   1.922   2.547  0.0366  0.4832 -0.0038
 9529TIP3    H150002   4.118   1.866   2.604 -1.1475 -1.0161 -2.3900
 9529TIP3    H250003   4.128   1.916   2.461  1.8441  2.4111 -1.1509
 9530TIP3   OH250004   1.544   4.283  13.133  0.6761  0.0416 -1.1069
 9530TIP3    H150005   1.612   4.253  13.072  0.1637 -1.8772 -0.7873
 9530TIP3    H250006   1.549   4.222  13.207  0.0489  1.2051 -0.0664
 9531TIP3   OH250007   1.906   0.036   0.741  0.2755  0.5531 -0.6706
 9531TIP3    H150008   1.869   0.006   0.824 -0.1881  1.1773 -0.6393
 9531TIP3    H250009   1.845   0.002   0.675 -0.2824  1.4304 -0.6314
 9532TIP3   OH250010   5.174   1.522   5.405  0.3572  0.2050 -0.1868
 9532TIP3    H150011   5.269   1.513   5.398  0.1575 -2.0253 -0.7310
 9532TIP3    H250012   5.159   1.548   5.496  1.4750  0.3054 -0.0185
 9533TIP3   OH250013   1.071   5.476   5.564  0.2366 -1.1333 -0.0988
 9533TIP3    H150014   1.008   5.526   5.616  0.8058 -0.0647 -0.3926
 9533TIP3    H250015   1.088   5.397   5.615 -2.1137 -1.9695 -0.5047
 9534TIP3   OH250016   5.806   3.579   0.795  0.4310 -0.0941  0.4058
 9534TIP3    H150017   5.858   3.598   0.874  1.0115  2.9547 -0.5713
 9534TIP3    H250018   5.720   3.555   0.829  0.8267  0.5798  2.0040
 9535TIP3   OH250019   5.565   2.482  16.196  0.4635 -0.4032 -0.0800
 9535TIP3    H150020   5.618   2.463  16.119  1.4256 -1.2105  0.7515
 9535TIP3    H250021   5.547   2.397  16.235 -2.1480 -0.2235 -0.7364
 9536TIP3   OH250022   2.489   6.766   0.192  0.2063 -0.0579  0.1812
 9536TIP3    H150023   2.408   6.817   0.196 -0.1272 -0.4780 -0.8306
 9536TIP3    H250024   2.537   6.802   0.117  0.5865 -0.3445  0.2826
 9537TIP3   OH250025   0.585   1.957   5.434  0.3927  0.0844  0.2585
 9537TIP3    H150026   0.659   1.984   5.379  1.0496  1.1157  1.5920
 9537TIP3    H250027   0.526   2.033   5.433 -1.4952 -1.2545 -2.0306
 9538TIP3   OH250028   2.257   0.995  10.846 -0.0903 -0.2696  0.1385
 9538TIP3    H150029   2.164   0.994  10.868 -0.2145 -0.9853 -0.3666
 9538TIP3    H250030   2.302   0.993  10.930 -0.5432 -0.7692  0.3747
 9539TIP3   OH250031   1.770   2.059  16.764 -0.3855 -0.0600  0.3687
 9539TIP3    H150032   1.855   2.072  16.805  0.0898  0.5377 -0.7837
 9539TIP3    H250033   1.784   1.990  16.699 -1.3031 -1.5333  1.6455
 9540TIP3   OH250034   4.005   2.894   0.592 -0.5671 -0.4092  0.3011
 9540TIP3    H150035   3.985   2.962   0.657  0.3157  1.3954 -1.2296
 9540TIP3    H250036   4.086   2.923   0.550 -0.8792 -1.7240 -1.3196
 9541TIP3   OH250037   3.621   0.295   5.515  0.3850 -0.1098 -0.0605
 9541TIP3    H150038   3.631   0.277   5.609  4.1851 -1.9023 -0.6182
 9541TIP3    H250039   3.647   0.386   5.505  0.1256  0.0442  0.6077
 9542TIP3   OH250040   2.963   0.027  16.129 -0.0056  0.1125  0.0342
 9542TIP3    H150041   3.038   0.086  16.125 -0.3529  0.4988 -1.4199
 9542TIP3    H250042   2.899   0.072  16.184 -0.4351  1.3350 -1.4102
 9543TIP3   OH250043   3.646   5.272   4.830 -0.0771 -0.0856  0.1742
 9543TIP3    H150044   3.637   5.336   4.900 -0.9390 -0.8917  0.8211
 9543TIP3    H250045   3.713   5.309   4.772 -0.2082  1.1521  0.7867
 9544TIP3   OH250046   3.495   3.817  13.828 -0.4523 -0.0715  0.0199
 9544TIP3    H150047   3.466   3.902  13.795 -0.3310  0.9188  2.2840
 9544TIP3    H250048   3.590   3.826  13.838 -0.2221 -1.0037 -1.0522
 9545TIP3   OH250049   4.157   0.027   1.998  0.1552 -0.2498 -0.1533
 9545TIP3    H150050   4.132   0.095   2.061 -0.8323 -0.3599 -0.4021
 9545TIP3    H250051   4.155  -0.054   2.049  1.9096 -0.0499  0.2877
 9546TIP3   OH250052   4.366   1.991   0.346 -0.1332  0.3494 -0.0037
 9546TIP3    H150053   4.344   2.071   0.299 -1.1763 -0.2594 -0.5948
 9546TIP3    H250054   4.329   1.921   0.293 -2.1968 -0.3263  2.1239
 9547TIP3   OH250055   5.836   2.329   2.594  0.0802  0.6728 -0.6273
 9547TIP3    H150056   5.888   2.367   2.665 -1.0601  0.7891  0.1762
 9547TIP3    H250057   5.755   2.380   2.593 -1.2584 -1.2856  0.0974
 9548TIP3   OH250058   5.438   2.396   4.224 -0.3601 -0.4186  0.2476
 9548TIP3    H150059   5.415   2.410   4.315 -3.2291 -0.0554 -0.4534
 9548TIP3    H250060   5.422   2.303   4.209 -0.3006 -0.3890 -0.0129
 9549TIP3   OH250061   5.760   2.254   5.335 -0.6081  0.2486  0.5171
 9549TIP3    H150062   5.740   2.341   5.300 -0.7096  0.8904  2.1216
 9549TIP3    H250063   5.852   2.259   5.361 -0.2334 -0.5594 -0.5560
 9550TIP3   OH250064   4.884   0.235   0.824 -0.3914  0.0768  0.1669
 9550TIP3    H150065   4.809   0.259   0.770 -0.5596 -0.6261  0.0797
 9550TIP3    H250066   4.954   0.294   0.795  0.0848 -1.4939 -2.2143
 9551TIP3   OH250067   3.685   5.861   2.425  0.3811  0.1364  0.1002
 9551TIP3    H150068   3.744   5.907   2.484  0.2303  0.4902 -0.0200
 9551TIP3    H250069   3.690   5.769   2.452 -0.3749  0.4117  1.2487
 9552TIP3   OH250070   2.554   3.943  15.881 -0.8402 -0.6828 -0.4423
 9552TIP3    H150071   2.572   4.021  15.934  1.1048 -1.3102 -0.0968
 9552TIP3    H250072   2.517   3.977  15.800  0.4163  0.6763 -0.4970
 9553TIP3   OH250073   3.036   1.865   0.790 -0.0307 -0.0132  0.0742
 9553TIP3    H150074   3.074   1.809   0.858 -1.4793  1.1975  1.9934
 9553TIP3    H250075   3.096   1.938   0.783 -0.4106  0.4024  0.9104
 9554TIP3   OH250076   2.250   2.057  16.493  0.5916 -0.2985  0.3316
 9554TIP3    H150077   2.307   2.098  16.558  1.4983  0.4263 -0.8699
 9554TIP3    H250078   2.252   1.963  16.515  1.0688 -0.0966  1.1987
 9555TIP3   OH250079   0.422   5.222  14.964 -0.4770 -0.3692 -0.7628
 9555TIP3    H150080   0.404   5.138  14.920  2.4213 -1.1953 -0.6046
 9555TIP3    H250081   0.492   5.261  14.912  1.4276 -0.2603  1.7167
 9556TIP3   OH250082   5.600   4.388   5.982  0.5868 -0.4577  0.1859
 9556TIP3    H150083   5.525   4.437   5.948  0.9705 -0.9440 -1.4245
 9556TIP3    H250084   5.560   4.312   6.026  0.1093 -0.3086  0.0199
 9557TIP3   OH250085   4.910   1.626   1.555  0.0532 -0.1745  0.0302
 9557TIP3    H150086   4.937   1.611   1.646 -1.5904 -0.9769  0.4224
 9557TIP3    H250087   4.816   1.640   1.560 -0.0572 -0.1519 -1.5601
 9558TIP3   OH250088   0.036   1.935   2.767  0.7834 -0.4447  0.3783
 9558TIP3    H150089  -0.022   1.962   2.838  0.3282  0.8140 -0.4339
 9558TIP3    H250090   0.121   1.921   2.809  0.5793  0.5115  1.1328
 9559TIP3   OH250091   5.058   2.969  13.235 -0.4437 -0.1583 -0.1353
 9559TIP3    H150092   5.089   2.902  13.296  0.4991 -0.1276 -0.5652
 9559TIP3    H250093   5.083   3.052  13.275 -0.6837 -0.1004 -0.1040
 9560TIP3   OH250094   3.235   6.469   1.381 -0.2819  0.4242 -0.3007
 9560TIP3    H150095   3.185   6.388   1.389 -0.3263  0.3213 -1.3910
 9560TIP3    H250096   3.229   6.491   1.288 -1.2793  2.3296  0.1513
 9561TIP3   OH250097   1.950   4.937  16.021  0.2912 -0.5786  0.4748
 9561TIP3    H150098   1.881   4.884  16.063 -0.3262  0.7495  1.2307
 9561TIP3    H250099   1.919   4.950  15.932 -0.7622  0.4602  0.9571
 9562TIP3   OH250100   5.526   6.194  15.324  0.0008  0.2424  0.1727
 9562TIP3    H150101   5.561   6.159  15.405  1.1406  2.0407  0.5104
 9562TIP3    H250102   5.591   6.259  15.296 -0.4467 -0.1920 -2.0859
 9563TIP3   OH250103   1.761   0.405   5.070 -0.4970  0.6087  0.2628
 9563TIP3    H150104   1.752   0.349   4.993 -1.3722  0.2698  0.5930
 9563TIP3    H250105   1.714   0.485   5.047 -0.4379  0.6563  0.3070
 9564TIP3   OH250106   5.485   2.258   1.452 -0.3806 -0.1241  0.5457
 9564TIP3    H150107   5.566   2.222   1.489  0.2398 -0.2150 -0.8256
 9564TIP3    H250108   5.454   2.191   1.391 -0.4305  0.6820 -0.3565
 9565TIP3   OH250109   2.655   3.595   0.644  0.0705 -0.9291  0.5431
 9565TIP3    H150110   2.697   3.525   0.693 -1.0180 -2.6468 -0.8678
 9565TIP3    H250111   2.709   3.605   0.565  0.1449 -0.2296  0.6697
 9566TIP3   OH250112   2.767   6.288   3.137  0.1527 -0.5647  0.2977
 9566TIP3    H150113   2.830   6.353   3.168 -0.3871 -0.6580  1.6581
 9566TIP3    H250114   2.813   6.242   3.066  0.9318  0.5627  0.0464
 9567TIP3   OH250115   3.475   6.275   2.467  0.0652  0.2452 -0.0630
 9567TIP3    H150116   3.439   6.190   2.442  2.2923 -0.8790  0.3179
 9567TIP3    H250117   3.400   6.323   2.501 -1.0848 -2.0141  0.8305
 9568TIP3   OH250118   4.394   4.498   5.868  0.3654 -0.5394 -0.3552
 9568TIP3    H150119   4.315   4.454   5.900 -1.0609  2.2243  0.2761
 9568TIP3    H250120   4.366   4.542   5.788  0.7924  1.6159  0.6040
 9569TIP3   OH250121   4.443   3.340  13.475 -0.8959  0.5486 -0.1375
 9569TIP3    H150122   4.422   3.430  13.500  1.6691  0.8022  1.3933
 9569TIP3    H250123   4.526   3.347  13.428 -1.2308 -0.9185 -0.9896
 9570TIP3   OH250124   5.337   1.897  11.737 -0.2156 -0.1619  0.1313
 9570TIP3    H150125   5.280   1.835  11.691  0.1957  0.1294 -0.8029
 9570TIP3    H250126   5.363   1.960  11.669  1.7765 -0.6724  0.3677
 9571TIP3   OH250127   6.719   6.451  15.065 -0.5346  0.3215 -0.8639
 9571TIP3    H150128   6.806   6.450  15.025  0.1322 -0.7093  0.5007
 9571TIP3    H250129   6.658   6.436  14.993  0.3065  2.1117 -2.0100
 9572TIP3   OH250130   0.598   3.012   3.996 -0.1786 -0.6423 -0.0451
 9572TIP3    H150131   0.635   3.014   4.084 -0.8035  0.1341  0.2131
 9572TIP3    H250132   0.533   3.083   3.996 -0.8172 -1.2122 -0.8452
 9573TIP3   OH250133   0.410   6.032   3.520  0.7410  0.0484  0.0176
 9573TIP3    H150134   0.415   6.063   3.611  0.6627 -0.1660  0.0961
 9573TIP3    H250135   0.319   6.004   3.510  0.5264  0.8497 -0.3869
 9574TIP3   OH250136   6.140   1.793   1.007 -1.0632 -0.0452  0.2051
 9574TIP3    H150137   6.089   1.728   1.056  0.3860 -0.1719  1.6348
 9574TIP3    H250138   6.225   1.797   1.053  0.6131 -0.5729 -2.6301
 9575TIP3   OH250139   0.347   5.161   1.145 -0.6775 -0.1814 -0.6160
 9575TIP3    H150140   0.328   5.165   1.239  0.4381 -0.5556 -0.3571
 9575TIP3    H250141   0.321   5.072   1.119 -0.2881 -0.3356 -0.4897
 9576TIP3   OH250142   1.062   1.705  12.953  0.1018 -0.2500 -0.1445
 9576TIP3    H150143   1.036   1.716  12.861 -1.2612 -0.4137  0.2005
 9576TIP3    H250144   0.980   1.708  13.002  0.8596  0.4173  1.1407
 9577TIP3   OH250145   1.501   0.070   5.137 -0.4908 -0.1265 -0.4775
 9577TIP3    H150146   1.458   0.097   5.056  0.4259 -0.4144 -1.0735
 9577TIP3    H250147   1.462  -0.015   5.158 -1.8023  0.6012  0.2176
 9578TIP3   OH250148   5.155   3.132  11.062 -0.6015  0.0207  0.0689
 9578TIP3    H150149   5.089   3.145  10.994 -0.3396 -2.5761 -0.8172
 9578TIP3    H250150   5.202   3.053  11.034 -0.1183 -0.8306  2.9959
 9579TIP3   OH250151   0.670   6.122  15.486 -0.1222  0.4069  0.1234
 9579TIP3    H150152   0.586   6.138  15.442  0.7442  0.0579 -1.7518
 9579TIP3    H250153   0.664   6.031  15.516 -0.1719  0.1607 -0.6046
 9580TIP3   OH250154   3.838   2.833  11.756 -0.3815 -0.3618 -0.1231
 9580TIP3    H150155   3.781   2.757  11.758 -1.1380  0.2186  1.2716
 9580TIP3    H250156   3.885   2.831  11.839 -1.0980  1.1796  0.3495
 9581TIP3   OH250157   2.719   3.900  11.693 -0.4864 -0.7635  0.0549
 9581TIP3    H150158   2.671   3.921  11.613  0.3310 -1.5591 -0.6736
 9581TIP3    H250159   2.691   3.811  11.715 -0.1051 -0.8464  0.2046
 9582TIP3   OH250160   4.259   2.983  12.098  0.5858 -0.3432  0.5098
 9582TIP3    H150161   4.334   3.007  12.043 -1.2789  0.5871 -1.7979
 9582TIP3    H250162   4.226   3.067  12.131 -0.4038 -0.5881  0.1643
 9583TIP3   OH250163   6.743   0.655   0.499 -0.8607 -0.4203 -0.1392
 9583TIP3    H150164   6.691   0.732   0.476 -0.8668  0.1242  1.5374
 9583TIP3    H250165   6.809   0.689   0.560 -0.3373 -1.5949 -0.0435
 9584TIP3   OH250166   4.789   4.000  14.517 -0.1599  0.5572 -0.3563
 9584TIP3    H150167   4.732   3.966  14.585 -0.5644  0.2984 -0.8165
 9584TIP3    H250168   4.748   3.973  14.435  1.3792 -0.9485 -0.7111
 9585TIP3   OH250169   1.188   6.027   3.829 -0.4041  0.8597 -0.5271
 9585TIP3    H150170   1.098   6.019   3.860  0.0329 -1.1929  0.3522
 9585TIP3    H250171   1.186   5.990   3.740  0.0847 -2.2880  0.6412
 9586TIP3   OH250172   0.511   4.664  11.360  0.1714  0.1289 -0.6436
 9586TIP3    H150173   0.427   4.626  11.337  0.1518 -0.8037  0.8476
 9586TIP3    H250174   0.505   4.756  11.333 -1.7363  0.3560  0.4099
 9587TIP3   OH250175   2.185   5.565   2.984  0.2045 -0.3663  0.0323
 9587TIP3    H150176   2.273   5.538   3.011  0.1519 -0.4812  0.0864
 9587TIP3    H250177   2.151   5.490   2.936  1.0537  0.5132 -2.0882
 9588TIP3   OH250178   4.225   5.681  14.511  0.5767 -0.4107  0.2480
 9588TIP3    H150179   4.295   5.729  14.556 -0.1112  0.3934  0.4865
 9588TIP3    H250180   4.177   5.749  14.463 -0.4733 -0.8442  0.6624
 9589TIP3   OH250181   2.479   4.633  11.621  0.4083  0.6442  0.7606
 9589TIP3    H150182   2.571   4.633  11.646  0.4430  0.8837  0.6319
 9589TIP3    H250183   2.441   4.561  11.671  1.0722 -0.7619 -0.6662
 9590TIP3   OH250184   0.627   4.622   5.626  0.3030  0.2008  0.4292
 9590TIP3    H150185   0.547   4.646   5.578  0.9529  3.5248  0.7897
 9590TIP3    H250186   0.606   4.638   5.718  0.7151 -1.0804  0.7639
 9591TIP3   OH250187   0.366   3.283  11.062  0.2059 -0.2864  0.0596
 9591TIP3    H150188   0.386   3.219  10.993  2.0467 -0.8610  1.0538
 9591TIP3    H250189   0.427   3.355  11.047  0.7789 -0.5094  1.1753
 9592TIP3   OH250190   1.440   5.400   4.850  0.2949 -0.1325  0.0681
 9592TIP3    H150191   1.348   5.384   4.831  0.5577 -1.7118 -0.0184
 9592TIP3    H250192   1.443   5.417   4.944 -0.2580  1.5971 -0.1923
 9593TIP3   OH250193   3.431   0.081  15.620 -0.2471 -0.3654  0.2998
 9593TIP3    H150194   3.441   0.153  15.682  1.1043  0.2896 -0.6122
 9593TIP3    H250195   3.516   0.038  15.620 -0.1134 -0.1551 -1.2972
 9594TIP3   OH250196   5.507   1.730  14.245 -0.7030  0.6957  0.3456
 9594TIP3    H150197   5.522   1.726  14.340  1.2667 -0.1346  0.0584
 9594TIP3    H250198   5.502   1.638  14.218 -1.1537  0.9289 -0.3786
 9595TIP3   OH250199   1.813   5.712   3.927 -0.0653  0.4005  0.7365
 9595TIP3    H150200   1.729   5.752   3.950 -0.0148  0.7115  0.4029
 9595TIP3    H250201   1.793   5.620   3.910 -0.3305  0.4633  0.7053
 9596TIP3   OH250202   1.419   3.015  12.077  0.2226  0.0556  0.1219
 9596TIP3    H150203   1.444   2.934  12.031  0.8871 -0.2472  0.9739
 9596TIP3    H250204   1.478   3.081  12.042  0.0489  0.0507 -0.1819
 9597TIP3   OH250205   5.755   3.028   2.662 -0.5736  0.4044  0.4780
 9597TIP3    H150206   5.762   2.959   2.595 -0.2316 -1.1510  2.0491
 9597TIP3    H250207   5.661   3.039   2.676 -0.7972  2.5285 -1.9412
 9598TIP3   OH250208   5.005   3.970  14.689  0.1624  0.9494  0.2170
 9598TIP3    H150209   4.934   3.966  14.625  1.4377 -1.6832 -1.2007
 9598TIP3    H250210   5.073   4.023  14.647  0.6013  0.0658 -0.2104
 9599TIP3   OH250211   2.419   3.393  13.050 -0.4185 -0.4266  0.0980
 9599TIP3    H150212   2.411   3.421  12.959  3.2138  0.2788 -0.1559
 9599TIP3    H250213   2.373   3.309  13.054 -3.0594  0.7913 -1.5955
 9600TIP3   OH250214   0.199   1.591  16.614  0.2121  0.3277 -0.4073
 9600TIP3    H150215   0.169   1.640  16.691 -0.9541 -0.5520 -0.2670
 9600TIP3    H250216   0.277   1.545  16.644 -1.7357 -2.1995  1.1783
 9601TIP3   OH250217   4.760   3.166  14.211 -0.0768  0.0827  0.4830
 9601TIP3    H150218   4.756   3.071  14.221 -0.9910  0.1750  1.0206
 9601TIP3    H250219   4.804   3.179  14.126 -4.3396 -0.9213 -2.1731
 9602TIP3   OH250220   2.203   2.971  13.223 -0.0013  0.2194  0.1298
 9602TIP3    H150221   2.246   2.992  13.306 -0.3383 -1.3862  0.7448
 9602TIP3    H250222   2.121   2.928  13.249  1.1603 -2.9316 -0.9161
 9603TIP3   OH250223   0.134   3.565  13.906  0.4299  0.4146  0.4778
 9603TIP3    H150224   0.089   3.644  13.876 -0.2018 -0.5326 -1.1805
 9603TIP3    H250225   0.136   3.507  13.830  2.2290 -0.5927  1.2161
 9604TIP3   OH250226   3.347   5.392   2.703  0.4514 -0.6302 -0.0283
 9604TIP3    H150227   3.271   5.355   2.659 -0.0461 -1.5998  1.5466
 9604TIP3    H250228   3.313   5.467   2.751  0.8532  0.0128 -0.7286
 9605TIP3   OH250229   0.210   4.896  13.434 -0.4336 -0.2797 -0.5451
 9605TIP3    H150230   0.299   4.863  13.443 -0.6763 -1.5502 -2.2298
 9605TIP3    H250231   0.156   4.818  13.421 -1.6365  0.5265 -0.6426
 9606TIP3   OH250232   4.649   4.939  17.101 -0.1799 -0.0939 -0.6508
 9606TIP3    H150233   4.626   4.865  17.157  0.7120  1.1473  1.4773
 9606TIP3    H250234   4.590   4.932  17.027  0.0473 -3.0617 -0.6668
 9607TIP3   OH250235   0.036   0.177  15.607 -0.0091  0.0737  1.1781
 9607TIP3    H150236   0.129   0.178  15.583 -0.5319 -0.6339 -1.1226
 9607TIP3    H250237   0.018   0.265  15.639  0.9781  0.9114 -0.4549
 9608TIP3   OH250238   6.189   2.769  11.832 -0.0624 -0.2918  0.4992
 9608TIP3    H150239   6.174   2.713  11.908 -0.1508  1.5072  1.8749
 9608TIP3    H250240   6.102   2.793  11.801 -0.0281 -1.0445 -0.2253
 9609TIP3   OH250241   2.826   3.995  13.439 -0.1026  0.9285 -0.2930
 9609TIP3    H150242   2.892   4.023  13.375  0.0823  1.6691  0.2014
 9609TIP3    H250243   2.753   4.055  13.425 -0.1123  1.0126  0.0898
 9610TIP3   OH250244   2.976   6.745   4.334 -0.0775  0.0502 -0.8488
 9610TIP3    H150245   2.936   6.661   4.313 -1.7889  0.7537 -0.5656
 9610TIP3    H250246   3.039   6.725   4.404  0.4941 -1.1748 -1.6881
 9611TIP3   OH250247   6.606   6.111  17.035 -0.1758  0.1969 -0.4523
 9611TIP3    H150248   6.626   6.091  17.126 -2.1042  2.0804  0.4734
 9611TIP3    H250249   6.608   6.026  16.991  0.5720 -0.7932  1.3809
 9612TIP3   OH250250   1.841   5.032   3.239 -0.3701 -0.0262 -0.3661
 9612TIP3    H150251   1.805   5.109   3.285 -0.8298 -0.0582 -0.6670
 9612TIP3    H250252   1.793   5.029   3.157 -0.5118 -0.7716 -0.2609
 9613TIP3   OH250253   5.113   5.255   4.343  0.3875  0.0456 -0.4654
 9613TIP3    H150254   5.113   5.161   4.326 -1.4206 -0.1608  0.3784
 9613TIP3    H250255   5.158   5.293   4.268  0.1136 -1.4149 -1.4135
 9614TIP3   OH250256   3.887   1.605  15.704 -0.6335 -0.2318 -0.1532
 9614TIP3    H150257   3.947   1.678  15.689  1.8316 -2.0921 -0.0629
 9614TIP3    H250258   3.854   1.584  15.617  0.1866 -0.2142 -0.4822
 9615TIP3   OH250259   1.479   5.127   4.278  0.6780  0.0051 -0.0913
 9615TIP3    H150260   1.550   5.183   4.310  2.1907 -0.9434 -1.6021
 9615TIP3    H250261   1.522   5.044   4.256 -0.8573 -0.5233 -1.2792
 9616TIP3   OH250262   0.325   1.018   1.606  0.0664 -0.5935  0.0738
 9616TIP3    H150263   0.279   1.013   1.689  0.4178 -0.6384  0.2689
 9616TIP3    H250264   0.408   0.972   1.622  0.1518 -0.5653 -0.2864
 9617TIP3   OH250265   3.746   5.229   2.873  0.6145  0.5378  0.5161
 9617TIP3    H150266   3.725   5.149   2.825  1.6962  0.1338  0.7007
 9617TIP3    H250267   3.722   5.300   2.813  0.6869  0.0608 -0.0790
 9618TIP3   OH250268   5.118   5.736  16.565  0.4094 -0.1067  0.1465
 9618TIP3    H150269   5.071   5.753  16.647  0.7718  1.9185 -0.0178
 9618TIP3    H250270   5.059   5.766  16.496  0.2140 -1.5585 -0.3646
 9619TIP3   OH250271   2.185   6.104   1.956 -0.3519 -0.6939  0.5070
 9619TIP3    H150272   2.270   6.090   1.915 -0.5524 -0.2963 -0.0593
 9619TIP3    H250273   2.179   6.037   2.024 -0.3812 -1.9672 -0.7028
 9620TIP3   OH250274   1.191   3.822   4.952  0.4719  0.3950 -0.1477
 9620TIP3    H150275   1.212   3.763   4.880  0.5626 -1.2686  1.1841
 9620TIP3    H250276   1.096   3.831   4.950  0.4793  0.3961 -0.4934
 9621TIP3   OH250277   2.204   0.649   1.771 -0.3426  0.7729  0.0795
 9621TIP3    H150278   2.245   0.563   1.755  0.6014  1.3916 -0.9518
 9621TIP3    H250279   2.221   0.666   1.864  0.9787  0.6023 -0.1117
 9622TIP3   OH250280   4.226   1.132  11.732  0.3458 -0.4448  0.0896
 9622TIP3    H150281   4.212   1.187  11.654 -0.6364 -0.0218  0.5511
 9622TIP3    H250282   4.276   1.187  11.791 -1.0004  0.1552  0.7248
 9623TIP3   OH250283   2.356   5.683  13.140  0.1873 -0.2999 -0.6382
 9623TIP3    H150284   2.264   5.693  13.166  0.7543 -0.0771  1.4408
 9623TIP3    H250285   2.381   5.596  13.173  0.9856  0.0470 -0.2957
 9624TIP3   OH250286   5.748   5.170  15.627  0.7266  0.3052  0.6696
 9624TIP3    H150287   5.753   5.209  15.714  0.5467 -0.7671  1.1713
 9624TIP3    H250288   5.702   5.088  15.640  0.9304  0.0042 -0.4037
 9625TIP3   OH250289   3.327   4.657   0.714  0.3492 -0.0441 -0.5601
 9625TIP3    H150290   3.339   4.747   0.685  0.8623  0.4909  1.1764
 9625TIP3    H250291   3.406   4.636   0.763 -0.5432 -0.7653  0.6552
 9626TIP3   OH250292   3.420   3.694   5.803  0.8355  0.1183 -0.3755
 9626TIP3    H150293   3.379   3.714   5.887 -2.4085 -1.1915 -1.4844
 9626TIP3    H250294   3.472   3.616   5.819 -0.8877 -0.9603  0.2018
 9627TIP3   OH250295   5.003   4.539  16.545 -0.3217  0.3061 -0.2852
 9627TIP3    H150296   5.006   4.532  16.449 -1.4013  3.0248 -0.5921
 9627TIP3    H250297   4.991   4.632  16.562  2.4128  0.3163  2.6129
 9628TIP3   OH250298   0.854   6.409   5.907  0.0931 -0.1690 -0.3159
 9628TIP3    H150299   0.816   6.396   5.820 -0.0166  0.8927 -0.4397
 9628TIP3    H250300   0.779   6.412   5.966  0.0513  0.6957 -0.4006
 9629TIP3   OH250301   3.162   5.693   2.567 -0.0457  0.3073 -0.2865
 9629TIP3    H150302   3.133   5.781   2.547  0.1203  0.4003 -0.1200
 9629TIP3    H250303   3.081   5.644   2.586 -0.3016 -0.0314 -2.0992
 9630TIP3   OH250304   5.309   5.351   6.590  0.7756  0.4832 -0.2521
 9630TIP3    H150305   5.337   5.283   6.651 -0.0537  0.2937 -0.0795
 9630TIP3    H250306   5.259   5.304   6.523  1.2747  0.7529 -0.8292
 9631TIP3   OH250307   5.732   4.366   1.888 -0.7468  0.1099  0.3628
 9631TIP3    H150308   5.677   4.376   1.966 -2.1884 -0.6463 -0.5181
 9631TIP3    H250309   5.759   4.456   1.867  0.3246  0.2603  2.1434
 9632TIP3   OH250310   1.728   0.380   6.960 -0.3661 -0.5666 -0.5912
 9632TIP3    H150311   1.808   0.354   6.914  0.8709 -0.1955  1.2719
 9632TIP3    H250312   1.714   0.312   7.025 -0.6292  0.2067  0.1833
 9633TIP3   OH250313   5.938   1.047  11.825 -0.1024 -0.2424 -0.0472
 9633TIP3    H150314   6.013   1.092  11.786 -1.4734  1.6384 -0.6598
 9633TIP3    H250315   5.899   0.998  11.753 -1.5153  1.6993 -0.6877
 9634TIP3   OH250316   4.824   3.739  12.653  0.1859  0.2227  0.2220
 9634TIP3    H150317   4.885   3.754  12.581 -0.1814  1.1892  0.1012
 9634TIP3    H250318   4.825   3.644  12.665  2.8112  0.2745  1.1785
 9635TIP3   OH250319   1.679   0.412   0.102  0.2225  0.1697  0.8010
 9635TIP3    H150320   1.632   0.440   0.181  0.6942 -0.2370  1.2362
 9635TIP3    H250321   1.767   0.390   0.133 -0.4438 -3.0620  0.7738
 9636TIP3   OH250322   1.962   1.364  16.548 -0.2407  0.3169 -0.1116
 9636TIP3    H150323   2.025   1.336  16.481 -1.0811 -1.6395 -0.1478
 9636TIP3    H250324   1.878   1.366  16.501 -0.5315  0.8966  0.4253
 9637TIP3   OH250325   5.564   1.271  12.058  0.6428 -0.6192  0.5497
 9637TIP3    H150326   5.488   1.237  12.105  1.6509  0.5725  3.2776
 9637TIP3    H250327   5.634   1.207  12.076  1.3451  0.4384  1.8167
 9638TIP3   OH250328   6.574   1.211  15.774 -0.0827  0.2194  0.2070
 9638TIP3    H150329   6.519   1.181  15.846 -0.5368 -0.7322 -0.5195
 9638TIP3    H250330   6.553   1.304  15.766 -1.3379 -0.0470  0.1696
 9639TIP3   OH250331   1.023   0.989   4.175  1.1978 -0.1916  0.3494
 9639TIP3    H150332   1.014   1.027   4.262 -1.7940  1.5198 -0.5664
 9639TIP3    H250333   0.970   0.910   4.177  0.0242  0.5526 -0.2266
 9640TIP3   OH250334   1.990   5.649   4.143  0.2100  0.4768  0.2367
 9640TIP3    H150335   1.985   5.559   4.175 -1.7810 -0.1559 -1.6038
 9640TIP3    H250336   1.958   5.645   4.053  0.4231  2.9919 -0.0451
 9641TIP3   OH250337   5.094   0.396  15.548  0.1769  0.7858  0.1710
 9641TIP3    H150338   5.167   0.342  15.577  0.7069  0.4900 -1.5653
 9641TIP3    H250339   5.135   0.465  15.496 -0.7596  0.5306 -0.9504
 9642TIP3   OH250340   4.754   3.972   5.455  0.2711  0.1850 -0.4887
 9642TIP3    H150341   4.693   3.977   5.528  1.0070  1.0309  0.0824
 9642TIP3    H250342   4.715   4.025   5.386 -0.4708 -0.6927 -0.7678
 9643TIP3   OH250343   5.060   4.147  11.721  0.0543  0.2753 -0.9199
 9643TIP3    H150344   5.006   4.188  11.789  0.2274 -1.2819  0.2149
 9643TIP3    H250345   4.997   4.119  11.654 -0.8080 -2.4203  0.8461
 9644TIP3   OH250346   0.739   3.619  16.355  0.7528  0.0133  0.9810
 9644TIP3    H150347   0.716   3.601  16.446  0.8031  2.1789  1.4610
 9644TIP3    H250348   0.737   3.714  16.347 -2.4436 -0.0971 -2.1083
 9645TIP3   OH250349   5.729   6.301   0.922  0.3495 -0.4419 -0.3074
 9645TIP3    H150350   5.771   6.245   0.988 -0.7873 -1.4213 -0.3930
 9645TIP3    H250351   5.664   6.351   0.971 -0.5376 -1.2142 -0.6795
 9646TIP3   OH250352   6.558   0.078   1.655 -0.5365 -0.0669  0.4295
 9646TIP3    H150353   6.617   0.152   1.669 -0.6686  0.3524 -0.9763
 9646TIP3    H250354   6.543   0.041   1.742  1.2802  0.1956  0.8789
 9647TIP3   OH250355   1.067   2.849  16.758 -0.5973  0.6360  0.0036
 9647TIP3    H150356   1.141   2.793  16.782  0.3014  0.7365 -2.2710
 9647TIP3    H250357   0.990   2.798  16.784  0.2242 -0.8817 -0.3826
 9648TIP3   OH250358   4.469   4.612  11.228 -0.1046 -0.3836  0.4100
 9648TIP3    H150359   4.554   4.633  11.191 -0.3379 -0.3968 -0.1381
 9648TIP3    H250360   4.487   4.597  11.321  0.2346  1.2119  0.6385
 9649TIP3   OH250361   2.035   2.914  16.574  0.4159 -0.2700  0.2450
 9649TIP3    H150362   2.041   2.985  16.638  0.6076 -1.2663  1.3699
 9649TIP3    H250363   2.118   2.867  16.582 -0.6689 -2.1341  1.3955
 9650TIP3   OH250364   0.572   4.591  13.235  0.2304 -0.1234  0.0603
 9650TIP3    H150365   0.655   4.638  13.228 -0.0466  0.2611 -0.8518
 9650TIP3    H250366   0.536   4.592  13.146  1.0643 -3.6954 -0.4815
 9651TIP3   OH250367   5.015   2.387  11.171  0.0981 -0.2051 -0.3147
 9651TIP3    H150368   5.070   2.410  11.096 -0.6637  0.1516 -0.7792
 9651TIP3    H250369   4.926   2.413  11.144 -0.2397 -0.4346  0.5567
 9652TIP3   OH250370   1.015   1.959  13.212 -0.3301 -0.7359  0.6205
 9652TIP3    H150371   0.989   1.867  13.208  0.4892 -0.9287 -0.9953
 9652TIP3    H250372   0.933   2.007  13.225 -0.9708 -1.6032 -0.1219
 9653TIP3   OH250373   1.078   0.638   1.083  0.3568 -0.1660  0.6923
 9653TIP3    H150374   1.088   0.732   1.096  0.4165 -0.2002  0.9016
 9653TIP3    H250375   1.014   0.612   1.150  0.3773 -0.2827  0.6664
 9654TIP3   OH250376   6.173   0.458   5.598 -0.4526 -0.3854  0.1619
 9654TIP3    H150377   6.125   0.449   5.680  1.5379 -0.9318  1.3236
 9654TIP3    H250378   6.253   0.504   5.622 -0.5098  0.8629 -1.7849
 9655TIP3   OH250379   5.512   2.831  12.463 -0.3628  0.6528  0.6127
 9655TIP3    H150380   5.538   2.772  12.534  0.2263  0.3399  0.1505
 9655TIP3    H250381   5.491   2.774  12.390 -0.9150  0.9749  0.5124
 9656TIP3   OH250382   3.021   2.672   3.309 -0.1755  0.6421 -0.1335
 9656TIP3    H150383   3.086   2.605   3.288 -0.2389  0.2617  0.8351
 9656TIP3    H250384   3.007   2.719   3.226  1.4901  0.8775 -0.3010
 9657TIP3   OH250385   2.904   6.142   2.925 -0.2096  0.6926 -0.3494
 9657TIP3    H150386   2.970   6.075   2.944 -1.0672 -0.1727 -0.3484
 9657TIP3    H250387   2.849   6.103   2.857 -1.8035  0.6466  0.8961
 9658TIP3   OH250388   3.906   5.064   2.460  0.1156 -0.0623 -0.0074
 9658TIP3    H150389   3.911   5.041   2.367  0.2595 -0.7657  0.1682
 9658TIP3    H250390   3.812   5.072   2.478  0.1117  0.8980 -0.4008
 9659TIP3   OH250391   4.594   1.310  11.925  0.2905  0.2980  0.8537
 9659TIP3    H150392   4.519   1.333  11.869 -0.3841 -2.7716  0.2735
 9659TIP3    H250393   4.564   1.328  12.014 -0.6983  0.2931  0.5356
 9660TIP3   OH250394   5.251   6.464  16.435 -0.4805  0.2630 -0.5274
 9660TIP3    H150395   5.266   6.369  16.436  1.4290  0.5059  0.8415
 9660TIP3    H250396   5.194   6.481  16.510 -0.5046  0.2111 -0.5337
 9661TIP3   OH250397   5.005   3.917   5.347  0.2601 -0.1796 -0.1456
 9661TIP3    H150398   5.077   3.959   5.392  0.3005  1.2637 -1.4595
 9661TIP3    H250399   4.927   3.941   5.397  0.1809  2.2588 -1.3110
 9662TIP3   OH250400   3.807   0.798   4.120 -0.1529 -0.2340 -0.1186
 9662TIP3    H150401   3.815   0.759   4.206  0.5552  0.4773  0.1567
 9662TIP3    H250402   3.895   0.833   4.101 -0.3866 -0.0660 -0.9674
 9663TIP3   OH250403   0.637   2.350  14.751  0.3773 -0.1321  0.8941
 9663TIP3    H150404   0.655   2.402  14.673 -0.2769 -0.5449  0.4563
 9663TIP3    H250405   0.557   2.301  14.730  0.6932 -0.9336  1.4798
 9664TIP3   OH250406   4.250   5.729   2.197 -0.2811 -0.1956  0.4743
 9664TIP3    H150407   4.307   5.781   2.141  0.5404 -2.2839 -0.7372
 9664TIP3    H250408   4.274   5.753   2.287 -0.4329  1.9536 -0.0110
 9665TIP3   OH250409   6.051   3.283   6.447 -0.0335  0.4018 -0.6457
 9665TIP3    H150410   5.960   3.294   6.419 -0.5140 -0.9425  0.3140
 9665TIP3    H250411   6.053   3.315   6.537 -0.4858 -2.9724  0.6883
 9666TIP3   OH250412   4.862   3.059  15.743  0.0135  0.0913  0.6609
 9666TIP3    H150413   4.940   3.094  15.701  0.9386 -1.0909  1.3267
 9666TIP3    H250414   4.807   3.029  15.671  0.7125 -0.1521  0.2225
 9667TIP3   OH250415   2.397   3.695   1.824  0.2012  0.3426  0.3789
 9667TIP3    H150416   2.419   3.773   1.875 -1.0279  1.1810 -0.3389
 9667TIP3    H250417   2.324   3.722   1.768 -2.5321 -2.1496  2.4106
 9668TIP3   OH250418   0.699   1.598  13.489  0.2238 -0.9840 -0.1917
 9668TIP3    H150419   0.648   1.613  13.569  1.8721 -1.7966  1.0535
 9668TIP3    H250420   0.633   1.586  13.421 -1.2268  0.5831  0.8537
 9669TIP3   OH250421   4.058   4.983   1.712 -0.4488  0.5278 -0.0608
 9669TIP3    H150422   4.063   4.990   1.807  1.9353 -0.7793 -0.0282
 9669TIP3    H250423   4.033   5.071   1.683 -1.7197  0.8294  1.7482
 9670TIP3   OH250424   3.300   1.666  11.237 -0.0723  0.2107 -0.0429
 9670TIP3    H150425   3.225   1.675  11.178 -0.3317 -0.5568  0.1685
 9670TIP3    H250426   3.349   1.591  11.203  1.5944  1.7454 -1.2493
 9671TIP3   OH250427   4.081   4.508  14.823 -0.5463  0.2758  0.2762
 9671TIP3    H150428   4.159   4.524  14.876 -1.2742  0.9463  1.1815
 9671TIP3    H250429   4.022   4.460  14.881 -1.2573  0.7974  0.0060
 9672TIP3   OH250430   1.254   3.787   1.731  0.4567 -0.7095 -0.5240
 9672TIP3    H150431   1.246   3.756   1.640  0.0472 -1.1714 -0.3379
 9672TIP3    H250432   1.246   3.882   1.725  3.9972 -0.3082 -1.3804
 9673TIP3   OH250433   5.436   0.702  13.884  0.5775 -0.0336 -0.1106
 9673TIP3    H150434   5.413   0.740  13.969  1.1129 -0.0785  0.0577
 9673TIP3    H250435   5.478   0.774  13.836 -1.6601  0.6727 -1.2010
 9674TIP3   OH250436   0.560   6.380  15.942 -0.0280 -0.0151 -0.3977
 9674TIP3    H150437   0.590   6.344  15.859 -0.4571 -0.2376 -0.4599
 9674TIP3    H250438   0.465   6.388  15.931  0.1593  2.2382 -0.8394
 9675TIP3   OH250439   0.463   4.139  12.860  0.1290 -0.0349 -0.4628
 9675TIP3    H150440   0.487   4.050  12.885  2.2733  1.1298  2.1372
 9675TIP3    H250441   0.451   4.136  12.765  1.2771 -2.8256 -0.6008
 9676TIP3   OH250442   3.162   2.119   0.840 -0.5328 -0.2681  0.3477
 9676TIP3    H150443   3.246   2.126   0.796 -0.2608  0.8965  1.0121
 9676TIP3    H250444   3.153   2.201   0.889 -1.5906 -0.7987  1.0946
 9677TIP3   OH250445   0.293   2.234   5.761  0.4829 -0.3294 -0.4304
 9677TIP3    H150446   0.295   2.329   5.758  2.0195 -0.3045  0.2657
 9677TIP3    H250447   0.280   2.207   5.670  1.9446  0.5541 -0.9351
 9678TIP3   OH250448   4.758   5.002   5.577 -0.0213  0.1283 -0.3108
 9678TIP3    H150449   4.746   5.092   5.609  0.4030  0.5320 -1.2323
 9678TIP3    H250450   4.688   4.990   5.514 -0.6129 -0.5178  0.4563
 9679TIP3   OH250451   3.167   3.641   4.078  0.7729 -0.4395 -0.1674
 9679TIP3    H150452   3.075   3.623   4.060 -0.2661  3.0172  0.7926
 9679TIP3    H250453   3.191   3.581   4.149 -0.2985 -2.2864 -1.3182
 9680TIP3   OH250454   4.467   5.640  17.020  0.1284 -0.2669 -0.2919
 9680TIP3    H150455   4.496   5.722  16.980 -0.3937 -0.7177 -1.6592
 9680TIP3    H250456   4.428   5.667  17.104  2.2794  0.5761  0.5033
 9681TIP3   OH250457   4.911   5.040  13.274  0.3969 -0.2151  0.0694
 9681TIP3    H150458   4.985   5.062  13.331 -0.2190  0.8691  0.4851
 9681TIP3    H250459   4.872   4.962  13.313  0.8522 -0.3294  0.2962
 9682TIP3   OH250460   1.603   6.679  13.743 -0.4539  0.6180 -0.0158
 9682TIP3    H150461   1.641   6.608  13.692 -0.9487  1.4987 -1.6648
 9682TIP3    H250462   1.545   6.725  13.683 -0.3010  2.3211  1.0380
 9683TIP3   OH250463   6.337   6.617   0.716 -0.7650 -0.0013 -0.3240
 9683TIP3    H150464   6.377   6.688   0.766  0.1839 -1.0543  0.4889
 9683TIP3    H250465   6.359   6.538   0.766 -0.8971 -0.9688 -1.7263
 9684TIP3   OH250466   6.333   2.148   2.588  0.1951 -0.0055  0.1780
 9684TIP3    H150467   6.420   2.113   2.606  0.8055  0.9291 -0.8019
 9684TIP3    H250468   6.347   2.242   2.575 -0.5328 -0.1686 -2.3689
 9685TIP3   OH250469   6.684   2.717  14.773 -0.1421  0.2253  0.9904
 9685TIP3    H150470   6.707   2.792  14.828  1.6202 -0.9530  1.9782
 9685TIP3    H250471   6.756   2.712  14.709 -0.6432 -0.1570  0.4487
 9686TIP3   OH250472   2.040   4.831  13.127 -0.0012  0.0741  0.4761
 9686TIP3    H150473   1.958   4.796  13.161 -0.4534  0.3681 -0.2927
 9686TIP3    H250474   2.014   4.895  13.061  0.8074  1.6809  1.6287
 9687TIP3   OH250475   2.794   3.759   2.204  0.0690  0.3912 -0.4049
 9687TIP3    H150476   2.744   3.752   2.285 -0.4762  1.0138 -0.6852
 9687TIP3    H250477   2.815   3.668   2.182  0.9393  0.2571  0.8571
 9688TIP3   OH250478   5.620   2.336  15.033 -0.0184  0.0887 -0.6048
 9688TIP3    H150479   5.565   2.261  15.008  0.0697  0.0383 -0.6445
 9688TIP3    H250480   5.660   2.365  14.952 -1.6741  1.5019 -0.9833
 9689TIP3   OH250481   5.971   4.152  16.577  0.2035 -0.2948 -0.5002
 9689TIP3    H150482   6.050   4.128  16.626 -0.8193 -1.7548  0.5131
 9689TIP3    H250483   5.905   4.088  16.604 -1.6428  1.4657 -0.5491
 9690TIP3   OH250484   5.272   2.146  15.267  0.7019 -0.2725  0.2021
 9690TIP3    H150485   5.257   2.123  15.359  0.2973  0.6711  0.3817
 9690TIP3    H250486   5.185   2.150  15.229  0.8207  0.1551 -0.0217
 9691TIP3   OH250487   6.712   1.725  12.130  0.4470  0.2433  0.7108
 9691TIP3    H150488   6.620   1.741  12.152 -0.6976 -0.2887 -2.9480
 9691TIP3    H250489   6.722   1.630  12.136  0.6202  0.2550  0.6144
 9692TIP3   OH250490   2.217   4.174  14.353  0.0150  0.1988 -0.5091
 9692TIP3    H150491   2.212   4.118  14.275  0.3427  1.4614 -1.4634
 9692TIP3    H250492   2.147   4.141  14.410 -0.7178 -0.2844 -1.6502
 9693TIP3   OH250493   1.150   0.969  11.763 -0.2270  0.1133 -0.2151
 9693TIP3    H150494   1.102   0.894  11.797  0.7648  0.4904  2.2071
 9693TIP3    H250495   1.083   1.027  11.727 -1.2530 -0.7301  0.2934
 9694TIP3   OH250496   3.687   2.817   6.380 -0.2090  0.5186 -0.4251
 9694TIP3    H150497   3.624   2.780   6.318 -0.1367 -0.7413  0.2380
 9694TIP3    H250498   3.644   2.895   6.414 -1.0188  0.1885 -0.6691
 9695TIP3   OH250499   0.350   3.684  12.224  0.4030 -0.6258  0.3162
 9695TIP3    H150500   0.303   3.622  12.279 -0.1020  0.4310  1.0997
 9695TIP3    H250501   0.325   3.770  12.257  1.1244  0.0066 -0.7187
 9696TIP3   OH250502   1.704   0.559  15.949  0.0848 -0.2246 -0.5046
 9696TIP3    H150503   1.750   0.559  15.865  1.2327  0.8042  0.1069
 9696TIP3    H250504   1.652   0.639  15.949  0.4368  0.0030 -0.0390
 9697TIP3   OH250505   5.332   5.455   3.835  0.4579 -0.1785  0.0477
 9697TIP3    H150506   5.274   5.403   3.780  0.0171  1.6834 -1.3399
 9697TIP3    H250507   5.416   5.410   3.830 -0.5887 -2.4124  1.3625
 9698TIP3   OH250508   5.160   5.670   5.780  0.1557  0.0128 -0.3565
 9698TIP3    H150509   5.102   5.741   5.809 -0.2526  0.2998 -1.7957
 9698TIP3    H250510   5.143   5.599   5.841 -1.7223  0.0942 -0.7038
 9699TIP3   OH250511   0.440   4.715  14.703  0.0498 -0.2559  0.6167
 9699TIP3    H150512   0.434   4.751  14.614 -1.2558 -1.4148  0.2094
 9699TIP3    H250513   0.350   4.697  14.728  0.5547 -2.1099  1.2571
 9700TIP3   OH250514   4.503   3.065   0.294  0.2009  0.4886  0.3736
 9700TIP3    H150515   4.550   3.070   0.378  0.1276 -0.1203  0.4498
 9700TIP3    H250516   4.520   3.150   0.253  3.7251 -0.6382 -0.8542
 9701TIP3   OH250517   4.569   4.438   5.350  0.2173 -0.0666 -0.5720
 9701TIP3    H150518   4.664   4.447   5.362  0.1050  0.0007  0.3204
 9701TIP3    H250519   4.544   4.366   5.408 -0.3944  0.4572 -0.1675
 9702TIP3   OH250520   5.843   0.768   5.952  0.7183  0.2706 -0.1549
 9702TIP3    H150521   5.908   0.700   5.975  0.8554  0.3797 -0.2177
 9702TIP3    H250522   5.786   0.773   6.029 -1.4446 -2.3759 -1.3972
 9703TIP3   OH250523   0.838   1.803   4.080  0.4468  0.5239 -0.0070
 9703TIP3    H150524   0.830   1.867   4.009  0.4559 -0.9159 -1.3742
 9703TIP3    H250525   0.755   1.757   4.081  1.1920 -0.9082 -0.5749
 9704TIP3   OH250526   1.087   5.700   3.995  0.1717 -0.5487  0.1805
 9704TIP3    H150527   1.073   5.606   3.987  0.0268 -0.6019  0.9527
 9704TIP3    H250528   1.000   5.738   3.997  0.2266 -0.2318 -1.6487
 9705TIP3   OH250529   3.022   3.405   2.269  0.7252 -0.0200 -0.0041
 9705TIP3    H150530   2.954   3.446   2.216 -0.1558 -1.2045  0.1682
 9705TIP3    H250531   2.993   3.416   2.359  1.1396  0.0997  0.1194
 9706TIP3   OH250532   1.280   1.350   0.224 -0.0198  0.5902  0.0676
 9706TIP3    H150533   1.215   1.417   0.242 -1.2090 -1.0204  2.2610
 9706TIP3    H250534   1.289   1.302   0.306  1.1849 -1.5799 -1.2205
 9707TIP3   OH250535   0.649   2.814  11.646 -0.1558 -0.1208  0.0607
 9707TIP3    H150536   0.727   2.814  11.702 -0.4685 -1.8493  0.5298
 9707TIP3    H250537   0.593   2.745  11.682 -0.2826 -1.4504 -2.4925
 9708TIP3   OH250538   6.370   1.285   0.760  0.2590  0.1030  0.1983
 9708TIP3    H150539   6.335   1.219   0.701  1.6220 -1.4492  1.0336
 9708TIP3    H250540   6.451   1.314   0.718  0.4231  0.1371  0.5299
 9709TIP3   OH250541   3.437   3.392   2.793  0.4714 -0.2245  0.0172
 9709TIP3    H150542   3.404   3.462   2.850  0.4202  1.0479 -1.5170
 9709TIP3    H250543   3.382   3.316   2.815  1.2688 -0.1657  2.5197
 9710TIP3   OH250544   0.827   4.673  13.249  0.3480 -0.1654  0.0633
 9710TIP3    H150545   0.906   4.656  13.300 -0.0374 -0.9040  0.4167
 9710TIP3    H250546   0.847   4.754  13.202  0.6883  0.5665  1.4084
 9711TIP3   OH250547   3.164   0.042  15.325 -0.3423 -0.1631  0.1930
 9711TIP3    H150548   3.162   0.022  15.419 -0.8534 -0.0523  0.2127
 9711TIP3    H250549   3.230   0.109  15.316  3.0780 -3.2684 -0.1814
 9712TIP3   OH250550   2.266   5.483  13.917 -0.1539  0.0912  0.7622
 9712TIP3    H150551   2.249   5.570  13.881 -1.0834 -0.3388  0.1393
 9712TIP3    H250552   2.246   5.423  13.846  0.8990 -0.6239  1.0512
 9713TIP3   OH250553   5.542   4.522  17.197  0.1692 -0.2602 -0.4820
 9713TIP3    H150554   5.491   4.594  17.160  0.0505  0.3574  0.8107
 9713TIP3    H250555   5.632   4.554  17.198 -0.0146  0.3049  0.9974
 9714TIP3   OH250556   3.769   0.414  16.484  0.2019  0.3912 -0.4312
 9714TIP3    H150557   3.818   0.482  16.437 -1.2682  2.1385  0.4521
 9714TIP3    H250558   3.680   0.421  16.450 -0.3951  0.2122  1.0462
 9715TIP3   OH250559   1.467   4.074   3.592  0.3963 -0.1280  0.0765
 9715TIP3    H150560   1.505   3.989   3.571  1.0534  0.5773 -1.8387
 9715TIP3    H250561   1.439   4.066   3.683  0.3000 -2.4261 -0.0848
 9716TIP3   OH250562   4.424   1.261   3.511  0.3219 -0.3596  0.2916
 9716TIP3    H150563   4.508   1.215   3.503  0.1191 -0.4369 -2.1660
 9716TIP3    H250564   4.377   1.214   3.579  1.5994 -1.4476  0.4475
 9717TIP3   OH250565   6.657   5.475  13.271 -0.3971 -0.2519  0.0411
 9717TIP3    H150566   6.642   5.567  13.292 -0.3850 -0.5221  1.3264
 9717TIP3    H250567   6.706   5.441  13.346 -2.7001 -1.9262  0.8977
 9718TIP3   OH250568   0.035   6.161  15.100  0.2078  0.3470  0.0203
 9718TIP3    H150569   0.063   6.087  15.046  1.5483  1.6496 -1.1355
 9718TIP3    H250570   0.055   6.238  15.048 -0.2432  1.5933  1.6127
 9719TIP3   OH250571   4.986   6.610  13.174  0.2232  0.5570  0.0181
 9719TIP3    H150572   4.991   6.596  13.268  1.8225  0.0766 -0.1082
 9719TIP3    H250573   4.979   6.705  13.164 -0.9393  0.5604  0.6162
 9720TIP3   OH250574   5.953   1.380  16.391 -0.1970  0.3052 -0.8363
 9720TIP3    H150575   5.892   1.451  16.413 -1.3032 -0.5830 -0.9188
 9720TIP3    H250576   5.901   1.301  16.401  1.5545 -0.6899  1.3342
 9721TIP3   OH250577   3.076   4.601   2.754 -0.2434 -0.0370 -0.1298
 9721TIP3    H150578   3.103   4.575   2.666 -0.6801  0.1603 -0.3232
 9721TIP3    H250579   3.089   4.522   2.807 -1.1006 -0.5125 -0.6138
 9722TIP3   OH250580   3.467   6.109   3.431 -0.3996  0.0415 -0.3474
 9722TIP3    H150581   3.417   6.153   3.363 -0.6878  2.8297  1.4708
 9722TIP3    H250582   3.419   6.127   3.512  1.1945 -0.9890  0.9020
 9723TIP3   OH250583   3.240   2.380   0.663  0.2175 -0.0849 -0.3943
 9723TIP3    H150584   3.276   2.383   0.574  1.3338 -1.3094 -0.0214
 9723TIP3    H250585   3.302   2.429   0.716  1.0114 -1.5734  0.1265
 9724TIP3   OH250586   3.651   1.488  14.498 -0.1820  0.5362 -0.4054
 9724TIP3    H150587   3.564   1.479  14.536  0.2884 -0.4079  0.5064
 9724TIP3    H250588   3.676   1.399  14.472 -0.2696  1.0703 -2.5168
 9725TIP3   OH250589   2.884   1.301  12.888 -0.3101 -0.1144 -0.0468
 9725TIP3    H150590   2.976   1.290  12.864 -0.6435 -1.4752 -0.8202
 9725TIP3    H250591   2.836   1.295  12.805 -1.2187 -1.0291  0.5205
 9726TIP3   OH250592   2.724   4.729   4.575 -0.1748  0.6732 -0.0234
 9726TIP3    H150593   2.763   4.751   4.659  1.7249 -0.0682 -0.6549
 9726TIP3    H250594   2.797   4.725   4.514 -1.3530  0.0555 -1.4842
 9727TIP3   OH250595   4.124   0.682  11.510  0.4199 -0.1911  0.0348
 9727TIP3    H150596   4.104   0.733  11.588  0.6108 -1.6503  1.0937
 9727TIP3    H250597   4.064   0.716  11.443  0.9496  1.7783  0.4956
 9728TIP3   OH250598   0.122   3.182  11.656  0.4425 -0.2517 -0.3416
 9728TIP3    H150599   0.192   3.246  11.667  1.8216 -1.7553  0.0126
 9728TIP3    H250600   0.043   3.235  11.647  1.6319  1.5136 -1.0316
 9729TIP3   OH250601   5.778   6.493  16.646  0.2501 -0.3566 -0.3501
 9729TIP3    H150602   5.841   6.473  16.577 -0.4597 -1.1086 -0.8075
 9729TIP3    H250603   5.747   6.407  16.676  0.1483 -0.0213  0.5269
 9730TIP3   OH250604   4.948   4.563   5.124  0.4728 -0.9150 -0.3874
 9730TIP3    H150605   5.001   4.587   5.048  0.9117 -2.2088 -0.5107
 9730TIP3    H250606   4.916   4.475   5.105 -2.5248  0.1189 -0.7286
 9731TIP3   OH250607   5.827   2.505   1.491 -0.4866 -0.1365  0.4833
 9731TIP3    H150608   5.867   2.526   1.406 -0.2675 -1.9888  0.0773
 9731TIP3    H250609   5.873   2.426   1.519 -1.3195 -0.1681  1.8258
 9732TIP3   OH250610   0.476   1.845  12.022 -0.2125 -0.2640 -0.5546
 9732TIP3    H150611   0.406   1.832  11.958  0.0852  2.4444 -1.5786
 9732TIP3    H250612   0.512   1.757  12.036 -2.7870 -1.5236 -1.1221
 9733TIP3   OH250613   3.065   4.644  17.078 -0.4145 -0.0880  0.6519
 9733TIP3    H150614   3.059   4.587  17.001 -0.8069  1.6643 -0.7048
 9733TIP3    H250615   3.050   4.732  17.043  2.9257  1.2439  2.1148
 9734TIP3   OH250616   1.529   5.063   0.100 -0.4144 -0.1122  0.0670
 9734TIP3    H150617   1.482   4.980   0.093  0.5499 -0.6085 -0.8010
 9734TIP3    H250618   1.497   5.115   0.026 -0.3000 -0.0881  0.0342
 9735TIP3   OH250619   3.796   1.114   0.866  0.3542 -0.0456  0.1924
 9735TIP3    H150620   3.752   1.186   0.911  0.3331 -0.5468  0.9991
 9735TIP3    H250621   3.727   1.051   0.848  0.4209  0.0072 -0.2564
 9736TIP3   OH250622   0.930   6.389   4.191 -0.0946  0.0139  0.0895
 9736TIP3    H150623   0.903   6.414   4.279 -1.3005  1.3987 -0.6109
 9736TIP3    H250624   0.984   6.462   4.160  0.4872 -0.5487 -0.2498
 9737TIP3   OH250625   6.091   4.031  16.903  0.1810 -0.1791  0.2795
 9737TIP3    H150626   6.186   4.038  16.916  0.0678 -1.0183  1.9247
 9737TIP3    H250627   6.054   4.084  16.974 -0.6121  1.0672 -1.0259
 9738TIP3   OH250628   5.151   4.811   1.463  0.6811 -0.1353 -1.1190
 9738TIP3    H150629   5.217   4.872   1.429 -0.0890  1.9773  0.8946
 9738TIP3    H250630   5.078   4.868   1.489  0.2968 -1.7787  1.7781
 9739TIP3   OH250631   4.213   2.014  11.457 -0.2741  0.8604  0.0136
 9739TIP3    H150632   4.211   2.108  11.441  1.6245  0.9475  0.0529
 9739TIP3    H250633   4.303   1.988  11.438 -1.0767 -1.2154 -1.3757
 9740TIP3   OH250634   3.614   3.187  14.485 -0.6768  0.7293 -0.2289
 9740TIP3    H150635   3.672   3.162  14.412 -1.3847 -0.0763 -0.5367
 9740TIP3    H250636   3.584   3.275  14.462 -2.3969 -0.2194 -1.9367
 9741TIP3   OH250637   4.084   1.421  16.089  0.1399  0.6995  0.5722
 9741TIP3    H150638   4.108   1.512  16.107  2.0101  0.5661 -1.0015
 9741TIP3    H250639   4.049   1.423  16.000  0.0011 -0.0979  0.6032
 9742TIP3   OH250640   1.881   0.280  11.514 -0.3798  0.2468 -0.0429
 9742TIP3    H150641   1.801   0.308  11.470  0.1668  3.2199  0.6246
 9742TIP3    H250642   1.947   0.279  11.445 -0.7127 -1.0236 -0.3645
 9743TIP3   OH250643   5.821   6.644   1.068 -0.0676 -0.2153  0.2009
 9743TIP3    H150644   5.879   6.630   1.143 -0.8712 -2.7625  0.4565
 9743TIP3    H250645   5.867   6.604   0.994  0.8074  2.4495 -0.8025
 9744TIP3   OH250646   6.277   1.761  14.605 -0.5982  0.0896 -0.4839
 9744TIP3    H150647   6.322   1.842  14.631 -0.4531  0.1370 -0.8754
 9744TIP3    H250648   6.301   1.749  14.513 -0.5204 -0.4654 -0.3939
 9745TIP3   OH250649   5.658   3.041   3.096  0.0438 -0.0885  0.3935
 9745TIP3    H150650   5.749   3.067   3.110 -0.2843 -0.1716  3.2946
 9745TIP3    H250651   5.664   2.962   3.043  1.6171  0.3150 -0.0724
 9746TIP3   OH250652   2.705   1.977  12.607 -0.0390 -0.3486  0.0165
 9746TIP3    H150653   2.800   1.972  12.598 -0.0625 -0.2605 -0.2930
 9746TIP3    H250654   2.672   1.898  12.564 -0.1098 -0.3302  0.0370
 9747TIP3   OH250655   3.179   4.465  14.671  0.1626  0.0329 -0.3960
 9747TIP3    H150656   3.185   4.541  14.728  0.1235 -1.4501  1.7048
 9747TIP3    H250657   3.088   4.464  14.642  0.2358  0.9154 -0.7037
 9748TIP3   OH250658   1.587   6.325   6.526 -0.0034  0.5611  0.5495
 9748TIP3    H150659   1.529   6.400   6.542 -0.8623  0.1197 -0.3591
 9748TIP3    H250660   1.673   6.365   6.510 -0.3228  1.3201  0.6619
 9749TIP3   OH250661   2.448   3.862  14.085  0.3469 -0.0569 -0.5918
 9749TIP3    H150662   2.451   3.801  14.158 -1.4256  0.2227 -0.2475
 9749TIP3    H250663   2.478   3.945  14.121  1.8706 -0.4613 -0.8363
 9750TIP3   OH250664   0.177   2.585  10.793 -0.5634 -0.4069 -0.1847
 9750TIP3    H150665   0.264   2.551  10.772 -1.1893 -1.4544 -1.2256
 9750TIP3    H250666   0.137   2.602  10.708 -1.6450 -0.6855  0.2527
 9751TIP3   OH250667   5.430   0.362  13.135 -0.8265  0.3696 -0.2945
 9751TIP3    H150668   5.369   0.436  13.127 -0.8700  0.4098  0.2975
 9751TIP3    H250669   5.374   0.284  13.130 -1.0541  0.4205  1.0945
 9752TIP3   OH250670   4.343   0.467   4.088 -0.3453 -1.1726 -0.2503
 9752TIP3    H150671   4.320   0.449   4.180 -0.8378 -1.2487 -0.3838
 9752TIP3    H250672   4.260   0.495   4.048  0.4945  2.4199  0.1678
 9753TIP3   OH250673   1.153   3.583  13.576 -0.8631 -0.7446 -0.2615
 9753TIP3    H150674   1.193   3.596  13.662 -0.9030 -0.5476 -0.2705
 9753TIP3    H250675   1.059   3.597  13.591 -0.8810 -0.8069 -0.3163
 9754TIP3   OH250676   1.019   4.720   4.678  0.0788 -0.3514 -0.0080
 9754TIP3    H150677   1.077   4.733   4.752  0.0221  0.1400 -0.0473
 9754TIP3    H250678   0.958   4.653   4.707 -0.0114 -0.0812  0.4348
 9755TIP3   OH250679   0.913   2.325   4.150 -0.0833  0.1065  0.0074
 9755TIP3    H150680   0.861   2.249   4.177  1.8569 -1.6174 -0.8791
 9755TIP3    H250681   0.888   2.341   4.059 -0.6169  0.6847  0.2441
 9756TIP3   OH250682   2.541   4.595   1.917  0.4330 -0.4419 -0.3852
 9756TIP3    H150683   2.544   4.691   1.920 -1.0060 -0.3722 -0.1821
 9756TIP3    H250684   2.449   4.575   1.900  0.8780 -1.7789 -1.3687
 9757TIP3   OH250685   1.611   1.292   0.415  0.0842 -0.0239  0.7228
 9757TIP3    H150686   1.632   1.264   0.326 -0.8705  2.9039 -0.5311
 9757TIP3    H250687   1.675   1.247   0.470  0.4779 -2.1988 -1.3613
 9758TIP3   OH250688   3.521   0.790  14.070 -0.5346  0.0680 -0.0494
 9758TIP3    H150689   3.537   0.788  13.975  1.1535 -1.7207  0.2111
 9758TIP3    H250690   3.480   0.706  14.089 -1.3657  0.6387  0.7664
 9759TIP3   OH250691   6.173   5.672  14.069  0.2109  0.0136  0.0874
 9759TIP3    H150692   6.177   5.586  14.026 -0.2928 -0.5869  1.1919
 9759TIP3    H250693   6.197   5.654  14.160  0.7842  1.1755  0.1844
 9760TIP3   OH250694   2.245   4.153   4.545 -0.3131  0.4013  0.0626
 9760TIP3    H150695   2.231   4.128   4.636 -1.2193  1.8662  0.3739
 9760TIP3    H250696   2.317   4.098   4.515 -0.1065 -0.2194  1.6123
 9761TIP3   OH250697   0.700   5.825  14.104  0.4178  0.1162 -0.3176
 9761TIP3    H150698   0.757   5.766  14.055  1.1601 -0.1006  0.7568
 9761TIP3    H250699   0.677   5.776  14.183 -0.2482  0.6743 -0.1599
 9762TIP3   OH250700   3.858   0.449  12.321 -0.1716  0.0648  0.1891
 9762TIP3    H150701   3.900   0.391  12.258  0.8177  0.3847  0.5356
 9762TIP3    H250702   3.913   0.528  12.322 -1.6035  1.1068 -0.4239
 9763TIP3   OH250703   5.479   4.882   6.491  0.4533  0.2108  0.0856
 9763TIP3    H150704   5.542   4.816   6.518  0.7217 -0.0004 -1.0109
 9763TIP3    H250705   5.510   4.911   6.405 -0.5694  0.5824 -0.1719
 9764TIP3   OH250706   6.374   0.639   4.694 -1.0121 -0.6172  0.2292
 9764TIP3    H150707   6.292   0.622   4.740 -1.6981 -0.4404 -0.8865
 9764TIP3    H250708   6.442   0.599   4.748 -1.8042 -0.5443  1.2973
 9765TIP3   OH250709   6.066   6.539  12.261  0.9514  0.2415  0.3180
 9765TIP3    H150710   6.019   6.579  12.188  0.7828  0.3075  0.4625
 9765TIP3    H250711   6.081   6.448  12.234 -1.2274 -0.4311  1.1925
 9766TIP3   OH250712   1.881   2.387  11.996  0.0448 -0.2554  0.2446
 9766TIP3    H150713   1.921   2.304  12.022 -1.6608 -1.0397  0.4803
 9766TIP3    H250714   1.815   2.404  12.063 -1.0793  0.1988 -0.9422
 9767TIP3   OH250715   3.007   0.437   2.316 -0.8356  0.1738 -0.1561
 9767TIP3    H150716   3.061   0.413   2.391 -0.8141  0.2671 -0.1409
 9767TIP3    H250717   3.033   0.377   2.247 -0.2141  0.6655 -0.3576
 9768TIP3   OH250718   6.690   1.755   5.172 -0.3694  0.4700  0.2902
 9768TIP3    H150719   6.705   1.754   5.266 -1.2450  0.6864  0.4431
 9768TIP3    H250720   6.670   1.846   5.151 -1.5671  0.1928  0.1441
 9769TIP3   OH250721   5.889   5.565  15.306 -0.3493  0.4025  0.0112
 9769TIP3    H150722   5.798   5.595  15.311 -0.9664 -1.1753 -0.8327
 9769TIP3    H250723   5.904   5.520  15.389 -1.3504 -1.8182 -0.9248
 9770TIP3   OH250724   2.415   4.442  13.671  0.3295 -0.0279 -0.5893
 9770TIP3    H150725   2.343   4.438  13.608 -0.5537 -0.2859  0.4018
 9770TIP3    H250726   2.461   4.524  13.652 -0.3144  0.2074 -1.1377
 9771TIP3   OH250727   0.752   2.328  15.903  0.0216  0.2169 -0.0908
 9771TIP3    H150728   0.729   2.420  15.915  0.7252  0.2880  0.7644
 9771TIP3    H250729   0.778   2.298  15.990  0.7880 -0.5189 -0.5576
 9772TIP3   OH250730   2.318   1.779   4.228 -0.4184  0.6931 -0.2424
 9772TIP3    H150731   2.351   1.860   4.189  0.1967  0.6884  0.2537
 9772TIP3    H250732   2.396   1.723   4.237 -0.2601  1.2112  2.2346
 9773TIP3   OH250733   4.467   3.939  15.649  0.2498 -0.3760  1.1538
 9773TIP3    H150734   4.388   3.898  15.683 -1.1512  2.3436  1.4221
 9773TIP3    H250735   4.482   4.015  15.705  2.5046 -0.2503  0.4940
 9774TIP3   OH250736   3.376   5.634   1.841 -0.7106 -0.3805  0.3755
 9774TIP3    H150737   3.296   5.657   1.792 -1.0056 -0.7428  0.6843
 9774TIP3    H250738   3.432   5.592   1.776 -0.5132  0.4194  0.0068
 9775TIP3   OH250739   3.513   5.004  11.355  0.0041 -0.2238 -0.4362
 9775TIP3    H150740   3.579   5.072  11.366  0.1620 -0.0654 -2.1690
 9775TIP3    H250741   3.442   5.047  11.307 -1.6087 -0.2623  1.7436
 9776TIP3   OH250742   0.341   3.426   0.470 -0.0364  0.4988 -0.0749
 9776TIP3    H150743   0.313   3.334   0.474  1.2497  0.1063  0.3689
 9776TIP3    H250744   0.363   3.448   0.561  1.1524  0.7584 -0.4207
 9777TIP3   OH250745   3.625   2.436   1.324 -0.2246  0.3639 -0.0725
 9777TIP3    H150746   3.685   2.363   1.335 -2.2004 -1.0150  2.7507
 9777TIP3    H250747   3.673   2.512   1.357  0.4163 -0.5002  1.0770
 9778TIP3   OH250748   3.737   1.798  11.532  0.3994 -0.8042  0.3369
 9778TIP3    H150749   3.769   1.865  11.592 -1.5879  0.3808  0.1324
 9778TIP3    H250750   3.799   1.800  11.459  0.1809  1.0989  0.1605
 9779TIP3   OH250751   1.550   5.187  10.748  0.7707 -0.3922 -0.0175
 9779TIP3    H150752   1.464   5.170  10.710 -0.4770  0.2051  2.3530
 9779TIP3    H250753   1.569   5.108  10.799  1.0469 -0.0147  0.4657
 9780TIP3   OH250754   4.759   0.842  14.020  0.5484 -0.2671  0.3783
 9780TIP3    H150755   4.751   0.759  14.069 -1.2150 -0.0981  0.4233
 9780TIP3    H250756   4.733   0.819  13.931  0.6478  0.1143  0.2530
 9781TIP3   OH250757   3.400   4.515   0.386  0.9511  0.0492 -0.2490
 9781TIP3    H150758   3.320   4.559   0.359  0.5506  0.3820  1.3238
 9781TIP3    H250759   3.447   4.581   0.438  1.0839 -0.8589  0.8425
 9782TIP3   OH250760   6.180   6.565   5.178  0.3004  0.2294 -0.6886
 9782TIP3    H150761   6.131   6.639   5.142 -0.3188  0.1518 -0.0268
 9782TIP3    H250762   6.233   6.602   5.248  0.2206  0.0993 -0.5583
 9783TIP3   OH250763   0.027   3.476  15.079 -0.0715 -0.2609 -0.1543
 9783TIP3    H150764   0.016   3.404  15.141 -0.5980 -1.2158 -1.3256
 9783TIP3    H250765  -0.051   3.473  15.025 -0.1259  1.2438 -0.2048
 9784TIP3   OH250766   1.940   2.013  17.180 -0.0143  0.2386  0.2192
 9784TIP3    H150767   1.912   2.044  17.267  1.4504 -0.6539  1.0400
 9784TIP3    H250768   1.866   1.960  17.149 -1.0922  1.6066  0.3199
 9785TIP3   OH250769   6.469   6.701  10.662 -0.1807  0.0114 -0.2349
 9785TIP3    H150770   6.456   6.772  10.599 -0.9759 -0.8220 -1.0481
 9785TIP3    H250771   6.399   6.639  10.642  1.4391 -1.7742 -0.6295
 9786TIP3   OH250772   0.168   4.318   1.295  0.0215  0.3108  0.1141
 9786TIP3    H150773   0.146   4.383   1.228  1.9607  0.9677  0.0701
 9786TIP3    H250774   0.083   4.295   1.334 -0.8358  2.0541 -0.5996
 9787TIP3   OH250775   5.902   3.582   2.075  0.5774  0.1393  0.1557
 9787TIP3    H150776   5.884   3.514   2.140 -2.1035  0.4137 -0.1984
 9787TIP3    H250777   5.922   3.534   1.995 -3.8773 -0.5178 -0.8247
 9788TIP3   OH250778   0.719   4.069  15.847 -0.1912  0.5062  0.1519
 9788TIP3    H150779   0.656   4.139  15.829  2.0969  2.8586  0.6982
 9788TIP3    H250780   0.760   4.094  15.930 -0.8435 -2.7523  1.6262
 9789TIP3   OH250781   0.776   0.826   1.996 -0.6278  0.1180 -0.0534
 9789TIP3    H150782   0.807   0.825   1.905 -1.8023 -0.2041 -0.4649
 9789TIP3    H250783   0.856   0.825   2.048  0.0813  0.9521 -1.0788
 9790TIP3   OH250784   0.866   6.405   4.964 -0.1390  0.7231  0.6156
 9790TIP3    H150785   0.811   6.329   4.985 -0.4646  0.8546  0.2389
 9790TIP3    H250786   0.866   6.457   5.044 -1.8205  1.4922  0.1614
 9791TIP3   OH250787   4.656   1.716   2.462 -0.5590  0.4060  0.1313
 9791TIP3    H150788   4.627   1.645   2.519  0.4093  0.9568  1.3576
 9791TIP3    H250789   4.579   1.772   2.452 -0.7410  0.2901  0.8705
 9792TIP3   OH250790   2.346   2.461  15.019  0.1057  0.6145 -0.5135
 9792TIP3    H150791   2.397   2.529  15.064  2.5638  0.4709 -2.8108
 9792TIP3    H250792   2.412   2.405  14.978 -1.8739 -2.3896  0.0913
 9793TIP3   OH250793   3.333   5.099   1.448 -0.0351 -0.3294 -0.2763
 9793TIP3    H150794   3.283   5.038   1.394  0.6350  1.0597 -2.6182
 9793TIP3    H250795   3.390   5.044   1.501 -1.0568 -1.7671 -0.6089
 9794TIP3   OH250796   5.993   3.372   3.700  0.1820  0.2127  0.0715
 9794TIP3    H150797   6.077   3.349   3.660 -1.1031 -2.5516 -1.2815
 9794TIP3    H250798   5.983   3.466   3.681  2.3239  0.2994 -0.9273
 9795TIP3   OH250799   3.639   2.408  17.201  0.4450 -0.8125  0.2913
 9795TIP3    H150800   3.587   2.355  17.141 -0.2953 -0.9872  1.0638
 9795TIP3    H250801   3.614   2.499  17.182  0.9985 -0.7907 -0.3731
 9796TIP3   OH250802   3.429   5.677  14.664 -0.1229  0.0405  0.2634
 9796TIP3    H150803   3.403   5.762  14.699 -0.5486 -0.6541  1.7186
 9796TIP3    H250804   3.381   5.669  14.582 -1.2206  0.5796  0.8293
 9797TIP3   OH250805   5.104   4.513  14.367  0.1559 -0.3743 -0.4192
 9797TIP3    H150806   5.186   4.503  14.415  0.4420 -2.2464 -1.1959
 9797TIP3    H250807   5.128   4.560  14.288  0.2227  0.2182 -0.0515
 9798TIP3   OH250808   6.703   1.443  12.199 -0.1626 -0.3880  0.0378
 9798TIP3    H150809   6.682   1.363  12.152  0.0365 -0.0936 -0.5744
 9798TIP3    H250810   6.670   1.429  12.288  1.7241 -1.9848  0.5626
 9799TIP3   OH250811   1.759   6.386   5.045 -0.0300 -0.8109 -0.0061
 9799TIP3    H150812   1.780   6.294   5.030 -1.2621 -1.0466 -0.4228
 9799TIP3    H250813   1.696   6.408   4.975 -1.0232 -0.1282  1.0634
 9800TIP3   OH250814   4.388   3.811   0.850  0.4207 -0.7071  0.2155
 9800TIP3    H150815   4.372   3.758   0.928  1.6815 -1.5278 -0.0437
 9800TIP3    H250816   4.439   3.885   0.881  1.5952 -1.4320  0.0914
 9801TIP3   OH250817   4.987   0.488  15.220 -0.2301  0.8840  0.0191
 9801TIP3    H150818   4.916   0.432  15.251 -0.2482  1.6872  1.5307
 9801TIP3    H250819   5.033   0.435  15.154 -2.6627  0.6341 -1.5742
 9802TIP3   OH250820   1.557   1.726  15.225 -0.5632 -0.1243 -0.3735
 9802TIP3    H150821   1.512   1.726  15.309 -0.4546  0.2775 -0.3130
 9802TIP3    H250822   1.486   1.716  15.160 -0.7265  0.3557 -0.2723
 9803TIP3   OH250823   1.319   0.790   2.964  0.2974  1.0084 -0.3472
 9803TIP3    H150824   1.413   0.809   2.966  0.3298  0.9578 -1.1767
 9803TIP3    H250825   1.277   0.876   2.971  0.4087  1.0468 -0.1598
 9804TIP3   OH250826   2.285   3.290  15.747  0.3404  0.5449  0.0558
 9804TIP3    H150827   2.344   3.329  15.682  0.1683 -0.5243 -0.7643
 9804TIP3    H250828   2.198   3.323  15.723  0.0932 -0.7904 -1.0575
 9805TIP3   OH250829   5.983   0.368   2.788  0.0021  0.4174  0.9752
 9805TIP3    H150830   5.976   0.278   2.755  1.1174 -0.0345  1.9098
 9805TIP3    H250831   5.919   0.417   2.737  0.9131 -0.4583 -1.1283
 9806TIP3   OH250832   1.673   1.313  14.057  0.4128  0.1366  0.1274
 9806TIP3    H150833   1.714   1.367  14.125 -0.4181  1.7767 -0.6022
 9806TIP3    H250834   1.612   1.257  14.104 -0.7834  1.8414  0.7333
 9807TIP3   OH250835   2.872   0.186  14.632  0.4879 -0.6009  0.6907
 9807TIP3    H150836   2.886   0.105  14.680  0.6649 -0.7543  0.3818
 9807TIP3    H250837   2.811   0.236  14.687  0.5898 -0.8249  1.0106
 9808TIP3   OH250838   0.382   5.922  12.676 -0.4402  0.1355  0.0150
 9808TIP3    H150839   0.464   5.872  12.678 -0.6754 -0.3745 -1.6097
 9808TIP3    H250840   0.314   5.856  12.669 -1.0471  0.5474  1.6615
 9809TIP3   OH250841   3.548   2.010   4.225  0.6946 -0.7744  0.3898
 9809TIP3    H150842   3.582   2.054   4.148 -0.1089  0.4357  0.6911
 9809TIP3    H250843   3.497   1.937   4.191  2.0188 -1.5004 -0.1208
 9810TIP3   OH250844   6.186   4.621  12.708 -0.7163 -0.4524  0.8145
 9810TIP3    H150845   6.188   4.683  12.781  0.9859 -1.7709  1.9824
 9810TIP3    H250846   6.178   4.676  12.630 -0.5309  1.1465  1.8682
 9811TIP3   OH250847   2.708   6.096   2.500  0.3251 -0.1449  0.1207
 9811TIP3    H150848   2.761   6.063   2.428 -0.6541 -1.9290  0.1475
 9811TIP3    H250849   2.632   6.137   2.457  0.9062  0.9667  0.1178
 9812TIP3   OH250850   3.702   6.001  16.055 -0.2676  0.1574 -0.0161
 9812TIP3    H150851   3.744   6.050  15.985 -0.1363  0.3093  0.1674
 9812TIP3    H250852   3.774   5.962  16.104 -0.3185  0.7544  0.5418
 9813TIP3   OH250853   6.516   1.092   5.321  0.1345  0.1423 -0.5836
 9813TIP3    H150854   6.457   1.044   5.264  0.1662  0.6307 -1.0417
 9813TIP3    H250855   6.499   1.058   5.409 -0.3072 -0.2284 -0.8110
 9814TIP3   OH250856   5.271   3.954   5.688 -0.5639  0.1248  0.2017
 9814TIP3    H150857   5.305   4.036   5.724  0.0228  0.3792 -0.9029
 9814TIP3    H250858   5.281   3.890   5.759  2.0317  0.2399  0.0277
 9815TIP3   OH250859   1.556   1.907  11.880 -0.1980  0.3075 -0.9367
 9815TIP3    H150860   1.623   1.974  11.894  0.2736 -0.5654  1.5186
 9815TIP3    H250861   1.531   1.917  11.789  3.7188  0.2835 -2.2192
 9816TIP3   OH250862   5.698   6.337  13.407  0.1040  0.7567  0.1418
 9816TIP3    H150863   5.743   6.331  13.323 -0.4191  1.0057 -0.1552
 9816TIP3    H250864   5.764   6.308  13.471  0.6172  0.9064 -0.3100
 9817TIP3   OH250865   4.347   4.023   5.935 -0.3815 -0.0711  0.0434
 9817TIP3    H150866   4.305   4.093   5.885 -0.7351 -1.1457 -1.2256
 9817TIP3    H250867   4.430   4.061   5.964 -0.0324  0.5431 -1.5992
 9818TIP3   OH250868   2.419   6.408   5.809 -0.0051  0.0952  0.5418
 9818TIP3    H150869   2.446   6.498   5.791 -1.2178  0.3621 -0.0182
 9818TIP3    H250870   2.438   6.395   5.902  0.7610  0.7123  0.4779
 9819TIP3   OH250871   4.371   3.424   2.848 -0.6178  0.4764  0.1072
 9819TIP3    H150872   4.431   3.396   2.917  0.2452  0.6912 -0.5315
 9819TIP3    H250873   4.340   3.343   2.808 -0.6311  0.3681  0.3403
 9820TIP3   OH250874   1.653   4.124   0.788  0.0739 -0.3901  0.3887
 9820TIP3    H150875   1.633   4.032   0.803  1.3251 -0.9232 -0.9774
 9820TIP3    H250876   1.567   4.167   0.785 -0.5171 -1.4683  1.1491
 9821TIP3   OH250877   5.090   1.974  12.331 -0.1125  0.2323 -0.0881
 9821TIP3    H150878   5.079   2.064  12.360 -0.3855  1.1066 -2.7155
 9821TIP3    H250879   5.149   1.979  12.256 -0.4655 -1.7165 -0.5685
 9822TIP3   OH250880   3.935   5.186   3.087  0.1775  0.0289 -0.0119
 9822TIP3    H150881   3.886   5.216   3.010  0.3566  0.0313 -0.1252
 9822TIP3    H250882   4.023   5.219   3.074 -0.2249  1.7200  1.1324
 9823TIP3   OH250883   4.153   5.470   2.290  0.5468 -0.2221  0.8178
 9823TIP3    H150884   4.198   5.393   2.255  0.3017 -0.5535  1.2214
 9823TIP3    H250885   4.193   5.544   2.245 -1.8294 -0.7751 -2.4950
 9824TIP3   OH250886   3.677   2.733   4.068  0.4417 -0.4845 -0.0398
 9824TIP3    H150887   3.653   2.664   4.006 -0.1612  0.0445 -0.4082
 9824TIP3    H250888   3.639   2.704   4.151 -2.1610  0.6454 -0.7422
 9825TIP3   OH250889   1.223   5.823   3.198 -0.9953  0.3953 -0.2686
 9825TIP3    H150890   1.260   5.818   3.110 -0.4196  0.1164 -0.0211
 9825TIP3    H250891   1.136   5.785   3.190 -1.1790  0.9163 -0.8359
 9826TIP3   OH250892   1.733   6.212  13.483  0.0986  0.0473  0.1248
 9826TIP3    H150893   1.732   6.168  13.397 -1.1400 -1.6474  0.9586
 9826TIP3    H250894   1.798   6.164  13.533 -0.2186  0.1125  0.5977
 9827TIP3   OH250895   2.231   3.495  14.711 -0.5003  0.2648  0.0509
 9827TIP3    H150896   2.293   3.445  14.765  0.4701  1.7748  0.4175
 9827TIP3    H250897   2.250   3.586  14.733 -0.7728  0.8904 -2.1185
 9828TIP3   OH250898   6.268   6.735  15.320  0.2478  0.3785  0.1635
 9828TIP3    H150899   6.307   6.802  15.264  0.1815 -1.2041 -1.9127
 9828TIP3    H250900   6.343   6.686  15.354  0.2408 -0.0972 -0.4762
 9829TIP3   OH250901   4.953   0.165   5.352  0.8665 -0.3772 -0.9058
 9829TIP3    H150902   4.909   0.245   5.380  0.7736 -0.1112 -1.7816
 9829TIP3    H250903   4.955   0.110   5.430  4.1043  1.8299  0.7604
 9830TIP3   OH250904   5.469   2.016   2.677  0.1431 -0.2014 -0.3531
 9830TIP3    H150905   5.453   2.079   2.606 -0.4120 -1.0416 -0.9985
 9830TIP3    H250906   5.555   2.041   2.712 -0.3360  1.2868 -0.1700
 9831TIP3   OH250907   6.546   3.100  15.959 -0.1421  0.3984 -0.3932
 9831TIP3    H150908   6.568   3.054  16.039  1.1283  0.4353 -0.7070
 9831TIP3    H250909   6.565   3.192  15.978 -2.9713  0.9369  0.3452
 9832TIP3   OH250910   4.633   2.192   1.844 -0.1186  0.2549  0.0328
 9832TIP3    H150911   4.651   2.286   1.837 -0.6640  0.3996  0.5837
 9832TIP3    H250912   4.710   2.151   1.805  1.2607  0.8880  1.9260
 9833TIP3   OH250913   5.429   4.120   2.900  0.3071 -0.4007  0.0555
 9833TIP3    H150914   5.340   4.155   2.903  0.3050 -0.4556  2.4947
 9833TIP3    H250915   5.468   4.159   2.821 -0.2017  3.8783  1.6768
 9834TIP3   OH250916   2.717   3.217  13.539  0.3917  0.0095  0.6497
 9834TIP3    H150917   2.693   3.155  13.608  1.9760 -2.0739 -0.5742
 9834TIP3    H250918   2.639   3.222  13.483  0.6365 -1.9232  0.0646
 9835TIP3   OH250919   2.827   3.326   5.298  0.1988 -0.1294  0.9117
 9835TIP3    H150920   2.754   3.285   5.343 -0.2596  0.6242  0.8724
 9835TIP3    H250921   2.905   3.300   5.348 -0.1170 -0.7449  1.0857
 9836TIP3   OH250922   4.588   2.666   3.344 -0.1688 -0.2287  0.0158
 9836TIP3    H150923   4.623   2.754   3.354  2.1741 -1.1347  0.2988
 9836TIP3    H250924   4.501   2.671   3.384  0.0333  1.8655  0.3089
 9837TIP3   OH250925   5.830   2.495  12.951  0.3017  0.5919  0.0807
 9837TIP3    H150926   5.776   2.487  12.872  1.3613 -1.2387 -0.5141
 9837TIP3    H250927   5.769   2.521  13.020 -1.4832 -1.7360 -0.4869
 9838TIP3   OH250928   3.876   5.508   2.071  0.6008  0.0493  0.5489
 9838TIP3    H150929   3.872   5.579   2.135  0.0032  1.1110 -0.6399
 9838TIP3    H250930   3.824   5.438   2.110 -0.2463  0.8917  0.9645
 9839TIP3   OH250931   4.281   1.659   3.151  0.1962  0.2423 -0.3187
 9839TIP3    H150932   4.251   1.730   3.208 -0.2549  1.1440 -1.6125
 9839TIP3    H250933   4.371   1.642   3.179  0.6302  1.9608 -0.5358
 9840TIP3   OH250934   0.829   5.025   6.154  0.3951  0.0478  0.3434
 9840TIP3    H150935   0.784   4.942   6.138 -1.8360  1.1964  0.1580
 9840TIP3    H250936   0.821   5.038   6.249  0.2994  0.2618  0.3072
 9841TIP3   OH250937   2.999   6.313  13.922  0.1249 -0.0250  0.2088
 9841TIP3    H150938   2.909   6.323  13.891  0.1083 -1.8053 -0.3989
 9841TIP3    H250939   3.046   6.275  13.848  1.0489 -0.4777  1.0151
 9842TIP3   OH250940   0.237   4.816  15.815 -0.2656 -0.5166 -0.5983
 9842TIP3    H150941   0.241   4.903  15.777  1.0889  0.0645  0.7752
 9842TIP3    H250942   0.238   4.756  15.740 -1.1158  0.6310 -1.5486
 9843TIP3   OH250943   5.110   2.438  13.964 -0.0356 -0.1668 -0.4681
 9843TIP3    H150944   5.149   2.496  14.029 -0.5867  0.1579 -0.4158
 9843TIP3    H250945   5.030   2.484  13.936 -0.1201 -0.5842 -0.9247
 9844TIP3   OH250946   1.883   1.642  12.283 -0.4087 -0.4092 -0.4310
 9844TIP3    H150947   1.825   1.576  12.321  1.2774 -1.7769 -0.0835
 9844TIP3    H250948   1.915   1.602  12.202  1.3973 -0.4941  0.2650
 9845TIP3   OH250949   6.728   0.260   3.255 -0.2822 -0.0644  0.1505
 9845TIP3    H150950   6.688   0.250   3.168  0.7364 -2.5211 -0.1094
 9845TIP3    H250951   6.745   0.354   3.262 -1.0462  0.3035 -1.9982
 9846TIP3   OH250952   1.690   4.825  16.569 -0.1984 -0.1284 -0.1264
 9846TIP3    H150953   1.667   4.741  16.609  0.5130 -0.6042 -0.6576
 9846TIP3    H250954   1.607   4.869  16.554 -0.5923 -0.7800  0.0984
 9847TIP3   OH250955   1.519   1.268  16.977 -0.6756  0.3479  0.3658
 9847TIP3    H150956   1.518   1.176  16.951  0.1331  0.7635 -1.2899
 9847TIP3    H250957   1.577   1.271  17.053  2.0002 -0.0851 -1.5374
 9848TIP3   OH250958   4.891   5.896  17.143  0.0671 -0.0088  0.3461
 9848TIP3    H150959   4.803   5.932  17.156 -0.1403 -0.3019 -0.1981
 9848TIP3    H250960   4.950   5.969  17.159 -0.2376 -0.0022  1.4726
 9849TIP3   OH250961   3.046   4.765   3.360 -0.1312  0.1386 -0.5669
 9849TIP3    H150962   3.059   4.736   3.450 -0.0077  1.1657 -0.2378
 9849TIP3    H250963   3.115   4.830   3.346 -0.2582  0.1115 -1.3426
 9850TIP3   OH250964   3.206   5.812   3.577  0.4510 -0.2062 -0.3196
 9850TIP3    H150965   3.205   5.756   3.654 -1.2784  0.6095  0.3180
 9850TIP3    H250966   3.246   5.759   3.509 -1.8486 -2.5887  0.0043
 9851TIP3   OH250967   5.471   0.073  13.351  0.4313 -0.1390  0.0153
 9851TIP3    H150968   5.442  -0.011  13.386 -0.6993 -0.1771 -0.9584
 9851TIP3    H250969   5.417   0.138  13.397 -1.2509 -0.2030 -1.7208
 9852TIP3   OH250970   3.013   5.214   2.250  0.6303 -0.6198 -0.1201
 9852TIP3    H150971   3.061   5.147   2.299  1.1092 -0.9267 -0.9868
 9852TIP3    H250972   2.934   5.168   2.220 -0.4259 -0.0097  1.6279
 9853TIP3   OH250973   6.331   1.990  12.776 -0.1316 -0.5161  0.1584
 9853TIP3    H150974   6.257   2.015  12.720  0.4374  0.6819 -0.0807
 9853TIP3    H250975   6.397   1.957  12.715  0.4379  0.6642  0.1127
 9854TIP3   OH250976   0.821   5.068   0.494  0.1547  0.3201  0.1331
 9854TIP3    H150977   0.732   5.064   0.457  0.2644  0.4985 -0.1495
 9854TIP3    H250978   0.878   5.038   0.423  0.1237 -2.3483  1.1090
 9855TIP3   OH250979   5.876   3.251  14.488 -0.1973  0.0104 -0.1187
 9855TIP3    H150980   5.850   3.182  14.428  0.5794 -1.6161  1.3189
 9855TIP3    H250981   5.806   3.316  14.483 -2.0256 -1.8671  0.0001
 9856TIP3   OH250982   1.620   2.782   6.565  0.1230  0.4309 -0.4523
 9856TIP3    H150983   1.660   2.723   6.629  0.2294  0.5150 -0.4407
 9856TIP3    H250984   1.691   2.839   6.537 -0.5332  2.4461  1.6387
 9857TIP3   OH250985   0.657   6.309  10.621  0.0223  0.3868 -0.3537
 9857TIP3    H150986   0.606   6.263  10.554 -0.5914  0.2347  0.2225
 9857TIP3    H250987   0.631   6.401  10.612  0.5523  0.4971 -0.8676
 9858TIP3   OH250988   6.701   4.978   4.928  0.0459 -0.8383 -0.6549
 9858TIP3    H150989   6.688   4.954   5.019 -2.0934 -2.4575 -1.3254
 9858TIP3    H250990   6.777   4.927   4.900  3.0539  2.2808  1.0203
 9859TIP3   OH250991   2.619   0.618   0.117 -0.2824 -0.3518  0.1251
 9859TIP3    H150992   2.533   0.618   0.076 -1.2651  0.3928  2.0223
 9859TIP3    H250993   2.675   0.666   0.056 -1.3586 -0.3255 -0.8713
 9860TIP3   OH250994   4.926   5.162  13.939 -0.3268  0.2529 -0.3385
 9860TIP3    H150995   4.949   5.160  14.032 -0.2091  1.1428 -0.3426
 9860TIP3    H250996   4.839   5.123  13.936 -0.7937  1.2025  0.2958
 9861TIP3   OH250997   3.892   0.538  15.257  0.3999  0.0411  0.1453
 9861TIP3    H150998   3.860   0.625  15.230 -0.6745  0.7264  3.1949
 9861TIP3    H250999   3.981   0.554  15.289 -0.3041  0.4112  2.0783
 9862TIP3   OH251000   3.066   1.133   6.102  0.0556 -0.5830 -0.0025
 9862TIP3    H151001   2.973   1.132   6.123  0.3234  0.2894  1.3527
 9862TIP3    H251002   3.089   1.041   6.088 -0.4952 -1.0977  2.1530
 9863TIP3   OH251003   1.578   0.079  16.151 -0.0465 -0.0735 -0.5493
 9863TIP3    H151004   1.487   0.098  16.173  0.4957  1.0207  0.9220
 9863TIP3    H251005   1.626   0.159  16.172  1.4254 -0.9867 -0.1800
 9864TIP3   OH251006   5.981   2.192   5.013  0.4191  0.0253  0.2141
 9864TIP3    H151007   5.908   2.130   5.011 -1.7000  2.3182 -2.4242
 9864TIP3    H251008   6.052   2.147   4.967  0.0425 -1.5595  1.1374
 9865TIP3   OH251009   1.334   5.662  12.579  0.4643  0.1967  0.1197
 9865TIP3    H151010   1.406   5.725  12.583  0.3471  0.2867  3.6731
 9865TIP3    H251011   1.376   5.580  12.551  2.1116  0.1632  2.4268
 9866TIP3   OH251012   4.863   6.122   5.680 -0.2177  0.0551 -0.2288
 9866TIP3    H151013   4.869   6.201   5.734 -0.2565  0.3833 -0.7018
 9866TIP3    H251014   4.841   6.154   5.593  0.2806 -0.4405 -0.5393
 9867TIP3   OH251015   4.274   1.085   3.673  0.2952 -0.3084  1.2334
 9867TIP3    H151016   4.226   1.105   3.753  1.2371  1.2417  1.4649
 9867TIP3    H251017   4.348   1.032   3.702  0.1249 -0.5377  1.2499
 9868TIP3   OH251018   0.928   3.439   1.327 -0.0961 -0.4374 -0.0276
 9868TIP3    H151019   0.876   3.504   1.375 -0.0172 -0.6816  0.3975
 9868TIP3    H251020   0.867   3.403   1.263  0.1942  0.8947 -1.0749
 9869TIP3   OH251021   2.315   4.135   3.256  0.3069 -0.7715  0.2599
 9869TIP3    H151022   2.262   4.078   3.200 -1.0518  0.6929 -0.0091
 9869TIP3    H251023   2.406   4.114   3.233 -0.1935 -1.4499 -1.2129
 9870TIP3   OH251024   0.219   6.743   3.609  0.0948 -0.2964 -0.5599
 9870TIP3    H151025   0.151   6.777   3.668  2.2444  1.4307  1.0928
 9870TIP3    H251026   0.186   6.764   3.521 -1.1733  1.1754  0.2110
 9871TIP3   OH251027   3.311   0.660  16.775 -0.3081 -0.2704  0.1255
 9871TIP3    H151028   3.339   0.741  16.733 -1.2492 -0.3066 -0.6172
 9871TIP3    H251029   3.325   0.675  16.869 -0.4428  0.7459 -0.0068
 9872TIP3   OH251030   5.386   6.013  14.900  0.8014 -0.1208 -0.2690
 9872TIP3    H151031   5.461   5.965  14.864 -0.2746 -1.2517 -1.1239
 9872TIP3    H251032   5.383   5.987  14.992  1.1581 -0.4726 -0.3540
 9873TIP3   OH251033   5.627   3.833   4.373 -0.2401  0.6990 -0.2574
 9873TIP3    H151034   5.649   3.919   4.338  1.0995  0.8365  0.8227
 9873TIP3    H251035   5.712   3.793   4.393 -0.8862  0.1351  1.5919
 9874TIP3   OH251036   0.479   5.425  15.518 -0.0478 -0.0382 -0.7211
 9874TIP3    H151037   0.422   5.489  15.561 -0.0073  0.7415 -1.7959
 9874TIP3    H251038   0.421   5.374  15.462  0.2588  0.6175 -1.6562
 9875TIP3   OH251039   2.735   0.261   3.473  0.3824  0.9435 -0.5377
 9875TIP3    H151040   2.691   0.336   3.512  1.0792  0.8708  0.4265
 9875TIP3    H251041   2.808   0.299   3.423  1.4811  0.8741  0.9501
 9876TIP3   OH251042   5.149   6.180   5.634 -0.1209  0.4436 -0.0472
 9876TIP3    H151043   5.110   6.093   5.639  1.8811 -0.6157 -1.6076
 9876TIP3    H251044   5.244   6.164   5.633  0.2809  2.5810 -1.1976
 9877TIP3   OH251045   0.291   1.006  12.425 -0.0950 -0.1005  0.7656
 9877TIP3    H151046   0.281   0.919  12.463 -1.4937  0.2700  1.2729
 9877TIP3    H251047   0.371   1.040  12.465  0.6758 -1.2677  0.2950
 9878TIP3   OH251048   5.727   0.181  15.128 -0.0991  0.1439  0.8995
 9878TIP3    H151049   5.677   0.258  15.101  0.5216  0.5239  0.8097
 9878TIP3    H251050   5.741   0.132  15.048  1.4142  1.0775  0.5534
 9879TIP3   OH251051   0.903   4.278   6.016 -0.0408  0.8058 -0.1786
 9879TIP3    H151052   0.866   4.366   6.009 -0.7845  0.4620 -0.6648
 9879TIP3    H251053   0.858   4.240   6.092  0.0627  0.7434 -0.1489
 9880TIP3   OH251054   3.258   1.312   3.884  0.0501  0.0391 -0.0746
 9880TIP3    H151055   3.294   1.390   3.841 -0.0991 -0.1555 -0.5559
 9880TIP3    H251056   3.166   1.332   3.897 -0.4874 -0.8629 -2.1197
 9881TIP3   OH251057   4.591   3.285   5.327 -0.1739 -0.0003  0.2633
 9881TIP3    H151058   4.523   3.248   5.384 -0.0760  0.8932  0.9937
 9881TIP3    H251059   4.609   3.216   5.263 -0.1722 -1.1178  1.4209
 9882TIP3   OH251060   0.964   0.304  13.190 -0.3290 -0.5911  0.0747
 9882TIP3    H151061   0.988   0.252  13.266 -1.2619  0.3387  1.0393
 9882TIP3    H251062   0.906   0.247  13.139 -0.1843 -1.0031  0.3644
 9883TIP3   OH251063   1.411   3.293  17.260  0.0611  0.2073  0.0778
 9883TIP3    H151064   1.479   3.227  17.251 -0.5372 -0.1373 -2.8044
 9883TIP3    H251065   1.330   3.242  17.270 -0.2572  0.5132 -0.8963
 9884TIP3   OH251066   5.684   1.006  15.404  0.1380 -0.6033  0.6844
 9884TIP3    H151067   5.670   1.027  15.497 -0.3933  0.1574  0.4403
 9884TIP3    H251068   5.652   1.083  15.357 -0.0251 -1.1716 -0.1568
 9885TIP3   OH251069   0.591   4.992   0.032 -0.0457  0.8038  0.4493
 9885TIP3    H151070   0.648   5.004  -0.044 -0.4090  0.4988  0.1235
 9885TIP3    H251071   0.649   5.005   0.107  0.8075 -0.9383  0.1590
 9886TIP3   OH251072   0.632   3.773  13.858 -0.4183  0.1897  0.3035
 9886TIP3    H151073   0.548   3.757  13.902 -0.0458  0.2965  1.0557
 9886TIP3    H251074   0.652   3.689  13.815 -0.5974 -0.0323  0.6510
 9887TIP3   OH251075   2.104   1.413   2.603 -0.1131 -0.6283  0.0120
 9887TIP3    H151076   2.096   1.475   2.676 -2.0941 -1.3350  0.4618
 9887TIP3    H251077   2.166   1.347   2.634 -0.2360 -0.4322  0.6867
 9888TIP3   OH251078   3.028   2.863   5.517  0.1914  0.1880  0.7560
 9888TIP3    H151079   3.076   2.901   5.443  2.7793 -0.0112  2.2080
 9888TIP3    H251080   3.037   2.927   5.587 -1.2638 -0.1200  1.2607
 9889TIP3   OH251081   5.811   4.931   2.326 -0.4343  0.3857 -0.4666
 9889TIP3    H151082   5.854   4.909   2.243 -1.5121 -2.6085 -0.3603
 9889TIP3    H251083   5.881   4.925   2.391 -0.1015  0.0506 -0.8466
 9890TIP3   OH251084   3.488   3.389  12.064  0.8190  0.9623 -0.1927
 9890TIP3    H151085   3.421   3.417  12.126  2.0735  1.3108  1.0430
 9890TIP3    H251086   3.542   3.466  12.048  0.9762  0.6794 -1.1338
 9891TIP3   OH251087   5.992   3.427   5.304  0.1075  0.2948 -0.0775
 9891TIP3    H151088   6.074   3.477   5.307  0.3088 -0.0101 -0.3931
 9891TIP3    H251089   5.927   3.486   5.340  0.0966  1.2677 -1.5881
 9892TIP3   OH251090   3.072   4.976   1.573 -0.1019  0.4498  0.2700
 9892TIP3    H151091   3.039   4.998   1.486  0.2565 -0.4369 -0.0953
 9892TIP3    H251092   3.167   4.987   1.567 -0.2022  2.1621  1.0810
 9893TIP3   OH251093   6.284   3.487   3.196  0.1804  0.4185  0.2384
 9893TIP3    H151094   6.204   3.435   3.193  1.5688 -1.9002 -2.5506
 9893TIP3    H251095   6.255   3.575   3.222 -3.0602 -0.5470  0.3565
 9894TIP3   OH251096   5.808   2.398   3.703 -0.2139 -0.2475  0.0551
 9894TIP3    H151097   5.731   2.347   3.678  0.4015 -1.3341  0.3126
 9894TIP3    H251098   5.838   2.437   3.621 -1.0242  0.1723 -0.0488
 9895TIP3   OH251099   6.402   0.947   3.479 -0.0920  0.1827 -0.0011
 9895TIP3    H151100   6.492   0.968   3.456 -0.2793  1.4390  0.3763
 9895TIP3    H251101   6.398   0.958   3.574 -1.0555  1.8336 -0.1971
 9896TIP3   OH251102   6.563   3.178   2.473  0.3518 -0.4177 -0.1914
 9896TIP3    H151103   6.588   3.101   2.422 -1.2126 -0.5242 -0.8470
 9896TIP3    H251104   6.475   3.200   2.443  0.4664  1.1912  0.5170
 9897TIP3   OH251105   5.833   5.136  17.070 -0.5155 -0.0960  0.5685
 9897TIP3    H151106   5.786   5.199  17.124 -1.1028 -0.4422  0.4695
 9897TIP3    H251107   5.926   5.161  17.080 -0.6344  0.0398  1.4755
 9898TIP3   OH251108   2.462   1.361   2.006  0.0459  0.1816 -0.4072
 9898TIP3    H151109   2.448   1.455   2.000 -2.3953  0.1808  2.6489
 9898TIP3    H251110   2.551   1.352   2.041 -1.2239  1.7477  3.7533
 9899TIP3   OH251111   4.587   6.216   4.621 -0.3130  0.7885  0.4930
 9899TIP3    H151112   4.608   6.180   4.535 -1.3560 -1.4992  1.1080
 9899TIP3    H251113   4.669   6.210   4.671 -0.3146 -0.2517  0.3932
 9900TIP3   OH251114   3.145   0.816   0.183  0.0316  0.0009  0.4108
 9900TIP3    H151115   3.232   0.777   0.192  0.3993  0.4303 -1.0030
 9900TIP3    H251116   3.163   0.904   0.149 -1.0166 -0.6838 -2.1390
 9901TIP3   OH251117   0.401   4.340  12.514  0.4647 -0.2256  0.3553
 9901TIP3    H151118   0.451   4.261  12.495  1.0658  0.5748 -1.6422
 9901TIP3    H251119   0.361   4.363  12.430  0.2524  1.5555  0.9179
 9902TIP3   OH251120   5.490   1.695  15.575 -0.2584 -0.5702 -0.4880
 9902TIP3    H151121   5.432   1.691  15.650  0.6891 -1.8270  0.2231
 9902TIP3    H251122   5.555   1.762  15.597 -0.6215 -0.1562 -0.6736
 9903TIP3   OH251123   0.312   5.384  16.045 -0.2073  0.9408 -0.1944
 9903TIP3    H151124   0.402   5.364  16.018 -0.1348  1.7653 -0.5811
 9903TIP3    H251125   0.274   5.428  15.969 -1.2802 -0.3419 -0.4350
 9904TIP3   OH251126   3.772   0.894   5.953  0.1968 -0.1205 -0.0807
 9904TIP3    H151127   3.786   0.871   5.861 -0.9543 -0.3641 -0.2150
 9904TIP3    H251128   3.741   0.985   5.951  0.2391 -0.1014  0.0747
 9905TIP3   OH251129   4.417   3.868   1.450 -0.3346 -0.0545 -0.7344
 9905TIP3    H151130   4.345   3.817   1.486  1.0111 -0.5654  1.4840
 9905TIP3    H251131   4.402   3.957   1.482 -1.1143  0.3440 -2.1354
 9906TIP3   OH251132   5.309   4.459  11.551  0.0382 -0.3289 -0.1898
 9906TIP3    H151133   5.320   4.444  11.457  0.6286 -0.5527 -0.0900
 9906TIP3    H251134   5.314   4.372  11.590 -0.6755 -0.2844  0.0066
 9907TIP3   OH251135   1.330   1.170   1.256 -0.3466  0.0814  0.3824
 9907TIP3    H151136   1.358   1.126   1.336  0.5995 -0.6257 -0.3202
 9907TIP3    H251137   1.404   1.162   1.196 -1.9389 -1.7984 -1.5294
 9908TIP3   OH251138   3.287   2.626   4.619  0.8788  0.1060  0.1105
 9908TIP3    H151139   3.254   2.714   4.598  0.2914 -0.0550  0.3550
 9908TIP3    H251140   3.209   2.572   4.625  1.2891 -0.6401 -0.9382
 9909TIP3   OH251141   3.225   1.603  14.896 -0.0435 -0.0967 -0.4409
 9909TIP3    H151142   3.215   1.526  14.840  1.7005  0.5906 -1.7405
 9909TIP3    H251143   3.136   1.619  14.929 -1.0560 -0.7698 -2.6570
 9910TIP3   OH251144   1.106   5.490   2.034  0.0626 -0.5302  0.1819
 9910TIP3    H151145   1.199   5.492   2.013  0.1676 -0.5116  0.6578
 9910TIP3    H251146   1.065   5.543   1.966  0.5136  0.3138  0.5670
 9911TIP3   OH251147   1.130   0.341   6.692  0.3130  0.2758  0.7370
 9911TIP3    H151148   1.177   0.285   6.630  0.3727  0.5986  0.4872
 9911TIP3    H251149   1.038   0.317   6.682  0.1741  1.1678 -0.3667
 9912TIP3   OH251150   4.346   6.272  12.706 -0.7443  0.2242 -0.2733
 9912TIP3    H151151   4.404   6.210  12.749 -1.2751  0.4859  0.8614
 9912TIP3    H251152   4.279   6.218  12.664 -1.4492  0.0159  1.0681
 9913TIP3   OH251153   3.221   1.134   5.209  0.2312  0.1300 -0.3445
 9913TIP3    H151154   3.273   1.085   5.146  0.7403  1.0260 -0.6499
 9913TIP3    H251155   3.250   1.225   5.199 -1.1671  0.6180 -0.3045
 9914TIP3   OH251156   6.081   5.126   5.712  0.2307 -0.5427  0.0546
 9914TIP3    H151157   6.040   5.153   5.630 -1.2324  1.7293  1.4091
 9914TIP3    H251158   6.108   5.036   5.697 -0.5040 -0.3966 -2.7028
 9915TIP3   OH251159   0.944   5.645  11.692  0.5181 -0.2415 -0.4835
 9915TIP3    H151160   0.866   5.602  11.657  0.4543 -0.9271  0.4619
 9915TIP3    H251161   0.914   5.733  11.714 -0.3608 -0.8990  1.0938
 9916TIP3   OH251162   1.433   2.949  14.358 -0.0708 -0.5160 -0.2747
 9916TIP3    H151163   1.514   2.924  14.403 -0.3481 -0.4189  0.2879
 9916TIP3    H251164   1.451   2.933  14.266  1.6369  2.2780 -0.5148
 9917TIP3   OH251165   4.581   4.802   3.483 -0.0723 -0.4029  0.0350
 9917TIP3    H151166   4.532   4.883   3.497  0.2196 -0.3827  1.0340
 9917TIP3    H251167   4.655   4.809   3.543  0.7987 -0.7353 -0.9583
 9918TIP3   OH251168   2.988   4.679   1.151  0.0315 -0.1803  0.2463
 9918TIP3    H151169   2.912   4.626   1.176  0.3020 -1.3095 -1.2061
 9918TIP3    H251170   3.002   4.659   1.058 -0.6587  3.4254 -0.8243
 9919TIP3   OH251171   3.033   5.412   5.470  0.4628 -0.1640 -0.0924
 9919TIP3    H151172   3.091   5.339   5.450  0.5173 -0.2929  0.5256
 9919TIP3    H251173   3.011   5.449   5.384  2.0564  0.3681 -0.2973
 9920TIP3   OH251174   1.008   5.812   2.080 -0.1441  0.2768  0.0386
 9920TIP3    H151175   0.918   5.784   2.095  0.4151 -0.8746  1.4572
 9920TIP3    H251176   1.013   5.900   2.117 -0.5310  0.0915  0.5444
 9921TIP3   OH251177   3.345   6.074  16.378  0.1388 -0.9232  0.7278
 9921TIP3    H151178   3.252   6.076  16.402  0.3707 -0.5318  1.6406
 9921TIP3    H251179   3.370   6.167  16.376  0.3237 -0.9908 -0.2703
 9922TIP3   OH251180   3.435   4.985   1.673  0.3957  0.0093 -0.4259
 9922TIP3    H151181   3.507   5.046   1.690 -0.0599  1.4695 -3.1623
 9922TIP3    H251182   3.375   4.999   1.746  2.0100  0.0389  0.9775
 9923TIP3   OH251183   4.884   6.671  16.557 -0.7449 -0.2581  0.1868
 9923TIP3    H151184   4.854   6.679  16.466 -1.5392 -1.9098  0.2720
 9923TIP3    H251185   4.855   6.753  16.598 -0.3753  0.5169 -1.0236
 9924TIP3   OH251186   5.489   0.250   4.927  0.0472  0.3125 -0.2166
 9924TIP3    H151187   5.473   0.155   4.934  2.9219 -0.2575 -0.3476
 9924TIP3    H251188   5.450   0.286   5.007  0.4630 -1.2300  0.7389
 9925TIP3   OH251189   1.376   4.732   2.393 -0.1203  0.4652  0.1296
 9925TIP3    H151190   1.421   4.814   2.414 -2.5128  1.8800  0.1595
 9925TIP3    H251191   1.434   4.687   2.332  2.2643  1.1229  1.8057
 9926TIP3   OH251192   3.208   5.139   6.701 -0.1929  0.4652 -0.0799
 9926TIP3    H151193   3.122   5.181   6.693  0.1306  1.1692  0.0829
 9926TIP3    H251194   3.201   5.085   6.780  0.5381  3.0728  1.8921
 9927TIP3   OH251195   5.430   2.350  15.516  0.1353 -0.4981  0.2556
 9927TIP3    H151196   5.431   2.368  15.422 -0.8205  0.6059  0.4363
 9927TIP3    H251197   5.347   2.306  15.531 -0.6947  1.2112  0.8838
 9928TIP3   OH251198   2.625   4.938   0.340 -0.0517  0.3635  0.5750
 9928TIP3    H151199   2.606   4.879   0.267  0.0721  1.0433 -0.0172
 9928TIP3    H251200   2.583   4.896   0.416  0.7825 -0.9372  0.3540
 9929TIP3   OH251201   3.949   0.401   2.664  0.8514  0.2754  0.2213
 9929TIP3    H151202   3.975   0.474   2.720 -0.0858  0.3314  0.5988
 9929TIP3    H251203   3.958   0.323   2.719  2.0238  0.0679 -0.2362
 9930TIP3   OH251204   3.916   0.460  14.545  0.4716  0.5096 -0.0574
 9930TIP3    H151205   3.920   0.441  14.451 -1.2667  0.1983 -0.0949
 9930TIP3    H251206   3.827   0.438  14.571  0.9549  0.4281  1.7188
 9931TIP3   OH251207   1.605   5.506  16.495 -0.0754  0.9731 -0.1685
 9931TIP3    H151208   1.541   5.437  16.510 -2.5048  3.2439  0.5284
 9931TIP3    H251209   1.664   5.500  16.570  1.3417 -1.8358 -1.3632
 9932TIP3   OH251210   5.231   0.313  17.109 -0.2863 -0.1585 -0.3785
 9932TIP3    H151211   5.229   0.362  17.192  1.3481  1.4798 -1.2325
 9932TIP3    H251212   5.147   0.335  17.067 -0.5925 -0.0100  0.2884
 9933TIP3   OH251213   1.943   6.442   1.566  0.2951  0.1298 -0.0370
 9933TIP3    H151214   1.995   6.385   1.623 -0.0329  0.7507  0.8993
 9933TIP3    H251215   1.889   6.382   1.515  0.9171 -0.4574 -0.0278
 9934TIP3   OH251216   4.593   6.212   1.844 -0.1752 -0.2996 -0.2645
 9934TIP3    H151217   4.543   6.193   1.764 -2.0146  2.8987 -0.0803
 9934TIP3    H251218   4.639   6.131   1.864  0.3033 -1.3184 -4.4744
 9935TIP3   OH251219   3.175   2.817   0.516  0.0041  0.3340  0.0589
 9935TIP3    H151220   3.263   2.793   0.486  0.8823 -0.3543  2.8861
 9935TIP3    H251221   3.170   2.784   0.605 -2.6296  1.6399  0.4972
 9936TIP3   OH251222   3.941   1.366   0.096  0.2134  0.1008  0.4264
 9936TIP3    H151223   3.880   1.358   0.022 -0.6092 -0.5613  1.1538
 9936TIP3    H251224   3.888   1.406   0.166  0.3514 -1.2519  1.3429
 9937TIP3   OH251225   5.099   0.667  13.499  0.2250  0.3999 -0.5204
 9937TIP3    H151226   5.064   0.716  13.425 -0.8217  1.8794  0.8685
 9937TIP3    H251227   5.146   0.733  13.551  1.5869 -0.7455 -0.2401
 9938TIP3   OH251228   6.260   4.110  13.734 -0.7700 -0.0525 -0.5120
 9938TIP3    H151229   6.183   4.069  13.774 -0.6003  0.7103  0.6404
 9938TIP3    H251230   6.224   4.184  13.685 -0.7690  0.3819  0.1333
 9939TIP3   OH251231   1.760   1.393   3.395 -0.3077 -0.0080  0.1599
 9939TIP3    H151232   1.801   1.454   3.334  0.6254  0.5700  1.3148
 9939TIP3    H251233   1.678   1.367   3.353  0.1685  0.5965 -1.1794
 9940TIP3   OH251234   4.523   1.430   4.782  0.2881  0.1234  0.5189
 9940TIP3    H151235   4.501   1.523   4.772  0.5786  0.2767  1.2460
 9940TIP3    H251236   4.605   1.419   4.733  0.0781  0.1692  0.1508
 9941TIP3   OH251237   4.954   0.836   5.704  0.2980  0.2370 -0.2174
 9941TIP3    H151238   4.930   0.925   5.679  1.0836  1.3109  2.4534
 9941TIP3    H251239   5.050   0.836   5.703  0.3058 -0.6679 -0.4271
 9942TIP3   OH251240   3.565   4.103   5.115 -0.6648 -0.0977 -0.1888
 9942TIP3    H151241   3.525   4.088   5.200  2.3475 -0.6511  1.2463
 9942TIP3    H251242   3.590   4.195   5.115 -0.0945 -0.2504 -0.2123
 9943TIP3   OH251243   2.919   5.646  13.453 -0.3466  0.3124  0.1789
 9943TIP3    H151244   2.969   5.574  13.414 -1.4140 -0.7825  0.7703
 9943TIP3    H251245   2.975   5.679  13.523  0.6600  0.8845 -0.8466
 9944TIP3   OH251246   6.523   5.029  16.821  0.2046 -0.1586  0.1216
 9944TIP3    H151247   6.475   5.067  16.894 -0.8000 -1.2253  0.0493
 9944TIP3    H251248   6.599   5.086  16.810  0.4851 -0.0704  2.1082
 9945TIP3   OH251249   6.244   5.536   5.983 -0.4478 -0.3534 -0.4781
 9945TIP3    H151250   6.192   5.457   6.003  0.2159 -0.4838  0.8657
 9945TIP3    H251251   6.333   5.512   6.007 -0.0839  0.5144 -0.9389
 9946TIP3   OH251252   2.743   5.765   5.030  0.3892  0.3256  0.0407
 9946TIP3    H151253   2.825   5.814   5.032  0.6242 -0.0745  0.3523
 9946TIP3    H251254   2.715   5.770   4.938  1.1207 -0.1108 -0.2187
 9947TIP3   OH251255   6.433   3.916  16.434  0.0827 -0.2509  0.3474
 9947TIP3    H151256   6.385   3.925  16.352 -0.3527  0.2965  0.6528
 9947TIP3    H251257   6.451   4.006  16.461  1.9259 -0.4387 -0.1126
 9948TIP3   OH251258   2.682   5.631  13.586 -0.5302 -0.4392  0.1048
 9948TIP3    H151259   2.750   5.636  13.520 -0.6534  1.9905  0.0480
 9948TIP3    H251260   2.608   5.681  13.549 -0.9975  0.0347  1.5851
 9949TIP3   OH251261   3.946   4.469   3.639  0.0886  0.4027 -0.3792
 9949TIP3    H151262   3.988   4.516   3.711  2.5397 -1.7131 -0.2601
 9949TIP3    H251263   3.974   4.516   3.560  1.4322 -0.0378 -0.1886
 9950TIP3   OH251264   6.179   5.965  14.194 -0.4064 -0.3372  0.2711
 9950TIP3    H151265   6.097   5.939  14.237 -1.8193  1.1750 -1.3604
 9950TIP3    H251266   6.169   5.936  14.103  2.0650 -2.5144  0.5715
 9951TIP3   OH251267   2.911   3.181  16.593 -0.1043 -0.1386 -0.2744
 9951TIP3    H151268   2.816   3.176  16.579 -0.0994  1.2397 -1.0832
 9951TIP3    H251269   2.926   3.274  16.611  0.9923 -0.5011  0.7279
 9952TIP3   OH251270   6.238   5.175   3.087  0.0376  0.1889  0.1665
 9952TIP3    H151271   6.260   5.217   3.170 -2.2087  2.1630 -0.1400
 9952TIP3    H251272   6.196   5.092   3.113 -1.1113  1.0171  1.0661
 9953TIP3   OH251273   1.663   1.923  14.405 -0.5422 -0.2963 -0.3776
 9953TIP3    H151274   1.649   1.885  14.492 -1.7479 -1.2557 -0.9642
 9953TIP3    H251275   1.591   1.984  14.394  1.5761  2.6042  0.7037
 9954TIP3   OH251276   2.730   3.690  16.614 -0.4766 -0.2040 -0.2884
 9954TIP3    H151277   2.757   3.687  16.706 -1.2244  0.2361 -0.0511
 9954TIP3    H251278   2.697   3.779  16.602  1.0070  0.2409 -1.3937
 9955TIP3   OH251279   0.384   1.307   1.462  0.0169 -0.3666 -0.2242
 9955TIP3    H151280   0.445   1.240   1.491  0.7030  0.0782 -0.6184
 9955TIP3    H251281   0.331   1.326   1.540  0.4755 -0.6503  0.1610
 9956TIP3   OH251282   3.436   1.939  10.761 -0.1407  0.0112 -0.0449
 9956TIP3    H151283   3.350   1.953  10.722 -1.0309  0.1019  1.8158
 9956TIP3    H251284   3.481   2.023  10.752 -1.0574  0.6160  0.7702
 9957TIP3   OH251285   2.259   4.217   1.433 -0.4514 -0.2576  0.0795
 9957TIP3    H151286   2.256   4.140   1.489  0.5806 -1.0776 -0.9603
 9957TIP3    H251287   2.299   4.187   1.351  0.0607  1.3849 -0.3258
 9958TIP3   OH251288   3.118   4.161   0.080  0.0711 -0.0545 -0.3662
 9958TIP3    H151289   3.075   4.151   0.165  0.0413 -0.2554 -0.4047
 9958TIP3    H251290   3.112   4.254   0.061  3.7648  0.8221  1.8098
 9959TIP3   OH251291   6.403   3.509  11.556  0.4870  0.0496 -0.3419
 9959TIP3    H151292   6.312   3.504  11.585 -0.1306  0.9674 -1.9497
 9959TIP3    H251293   6.421   3.603  11.551  1.5828 -0.1225  0.0728
 9960TIP3   OH251294   6.388   0.993  15.626 -0.3045  0.1896 -0.4763
 9960TIP3    H151295   6.382   1.029  15.715 -1.2571  1.7312 -1.1297
 9960TIP3    H251296   6.378   1.069  15.569  1.3246 -0.6184 -1.9332
 9961TIP3   OH251297   0.041   2.280  11.528  0.4944  0.0844  0.4177
 9961TIP3    H151298  -0.029   2.215  11.526  4.1795 -4.3550 -0.8556
 9961TIP3    H251299   0.059   2.299  11.436  1.2716  0.7778  0.6907
 9962TIP3   OH251300   5.819   1.517   2.753  0.1267  0.3208  0.5519
 9962TIP3    H151301   5.781   1.462   2.685  0.4550 -0.2492  0.8256
 9962TIP3    H251302   5.909   1.531   2.726 -0.0466  1.0365  0.3004
 9963TIP3   OH251303   5.313   5.892  11.474  0.0544 -0.1012 -0.1947
 9963TIP3    H151304   5.239   5.833  11.481  0.4498 -0.7179 -1.0543
 9963TIP3    H251305   5.300   5.938  11.391  0.1146  0.5150  0.1305
 9964TIP3   OH251306   3.818   3.976   5.006 -0.1878 -0.4273 -0.3222
 9964TIP3    H151307   3.888   3.960   5.068 -0.8019 -2.2248 -0.0228
 9964TIP3    H251308   3.774   4.055   5.038  1.1092  0.1774  0.0043
 9965TIP3   OH251309   3.050   4.090   3.253 -0.7355  0.2885 -0.2527
 9965TIP3    H151310   3.067   3.996   3.266 -0.1850  0.0691 -2.3174
 9965TIP3    H251311   3.129   4.124   3.212 -1.5474  1.3170 -1.0152
 9966TIP3   OH251312   4.492   4.616   4.704  0.6326  0.0659  0.1829
 9966TIP3    H151313   4.481   4.701   4.747  0.4958  0.4845 -0.6616
 9966TIP3    H251314   4.404   4.591   4.678  0.5010 -0.9194  1.4748
 9967TIP3   OH251315   5.910   6.281  17.032  0.0675 -0.7498 -0.6571
 9967TIP3    H151316   5.987   6.336  17.019  0.8127 -1.3510  0.9181
 9967TIP3    H251317   5.852   6.303  16.959  0.4924  1.8146 -0.3150
 9968TIP3   OH251318   0.449   2.416   2.191 -0.4161  0.2026  0.9910
 9968TIP3    H151319   0.367   2.456   2.221 -1.4761 -1.4990  0.5119
 9968TIP3    H251320   0.514   2.442   2.256 -1.6088  0.5732  2.0650
 9969TIP3   OH251321   2.365   0.768  16.090 -0.1897 -0.0659 -0.0632
 9969TIP3    H151322   2.302   0.726  16.031 -0.5844  1.8878 -1.1159
 9969TIP3    H251323   2.390   0.848  16.045  1.1432  0.4454  1.4983
 9970TIP3   OH251324   6.068   4.818  17.123 -0.2984  0.3302  0.2139
 9970TIP3    H151325   6.066   4.759  17.047  0.4838  1.8392 -1.0287
 9970TIP3    H251326   6.123   4.772  17.186 -1.5842 -1.3017  0.2142
 9971TIP3   OH251327   2.132   4.124   0.757  0.0890 -0.1598 -0.1229
 9971TIP3    H151328   2.184   4.169   0.690 -0.5678 -0.0134 -0.5503
 9971TIP3    H251329   2.157   4.032   0.748  2.7177  0.2403  1.8977
 9972TIP3   OH251330   6.736   5.632   5.586 -0.1722  0.6601 -0.4231
 9972TIP3    H151331   6.791   5.688   5.531 -0.7320  1.2084 -0.4460
 9972TIP3    H251332   6.762   5.543   5.565  0.1833  0.8938 -0.9810
 9973TIP3   OH251333   5.148   0.413  12.958 -0.0129  0.6431  0.0536
 9973TIP3    H151334   5.111   0.391  12.872 -0.3464  1.1777  0.0508
 9973TIP3    H251335   5.167   0.329  12.998  1.1868  0.3887 -0.9796
 9974TIP3   OH251336   3.016   4.470  16.855  0.3100 -0.1579 -0.0532
 9974TIP3    H151337   2.929   4.485  16.818  0.3915  0.8397  0.1411
 9974TIP3    H251338   3.047   4.390  16.811 -0.1480  0.2333 -1.1333
 9975TIP3   OH251339   2.215   0.428   3.229 -0.0203 -0.1593  0.0272
 9975TIP3    H151340   2.254   0.515   3.239 -0.9372  0.1481  1.1737
 9975TIP3    H251341   2.236   0.383   3.311 -1.8030 -0.0624  0.5852
 9976TIP3   OH251342   5.677   4.778  16.390 -0.1169 -0.6345  0.0439
 9976TIP3    H151343   5.731   4.773  16.469 -1.5443  2.7372  1.4249
 9976TIP3    H251344   5.643   4.689  16.379  0.6928 -1.3915  2.8118
 9977TIP3   OH251345   4.048   1.047   0.058 -0.5028 -0.0839 -0.2334
 9977TIP3    H151346   4.102   1.059   0.136  1.8061 -0.3414 -1.7005
 9977TIP3    H251347   4.063   1.125   0.005 -2.1173  0.1359 -0.4346
 9978TIP3   OH251348   3.171   6.352   0.032 -0.5968 -0.7808  0.4704
 9978TIP3    H151349   3.145   6.438  -0.001 -2.1964 -0.2912  2.7559
 9978TIP3    H251350   3.265   6.360   0.048 -0.6883  0.4953  0.4493
 9979TIP3   OH251351   3.150   6.080  16.951 -0.1462  0.2560 -0.6313
 9979TIP3    H151352   3.178   6.161  16.909  0.3461  0.7482  0.6112
 9979TIP3    H251353   3.093   6.108  17.022  1.0884 -0.3861  0.6598
 9980TIP3   OH251354   1.154   5.807  16.240 -0.4849  0.0253  0.0558
 9980TIP3    H151355   1.149   5.716  16.211  1.6474 -0.4190  0.8890
 9980TIP3    H251356   1.145   5.802  16.335  1.4138  0.4305  0.3015
 9981TIP3   OH251357   1.613   5.563   4.704  0.3987  0.2317  0.2739
 9981TIP3    H151358   1.530   5.546   4.749  0.5563  0.5310  0.6799
 9981TIP3    H251359   1.643   5.476   4.676 -0.4634  0.1986 -0.6209
 9982TIP3   OH251360   0.064   5.523  12.766 -0.3495 -0.4895 -0.2648
 9982TIP3    H151361   0.073   5.540  12.860  0.1555  0.7266 -0.5101
 9982TIP3    H251362  -0.029   5.532  12.748 -0.6803 -2.2872  0.3771
 9983TIP3   OH251363   1.017   0.834  13.481 -0.6017  0.4851  0.5533
 9983TIP3    H151364   1.078   0.761  13.471  0.4824  1.5983 -2.0345
 9983TIP3    H251365   1.037   0.870  13.567  0.7026 -0.6757  0.7763
 9984TIP3   OH251366   0.308   5.589  11.492 -0.2381 -0.0955  0.1338
 9984TIP3    H151367   0.384   5.641  11.520  0.2725 -0.5603 -0.3575
 9984TIP3    H251368   0.338   5.499  11.498 -0.9209 -0.3108  0.3977
 9985TIP3   OH251369   4.780   5.272   3.978  0.2271  0.4232  0.0525
 9985TIP3    H151370   4.742   5.221   4.049 -0.0880  0.6413  0.0460
 9985TIP3    H251371   4.732   5.355   3.980  0.6296  0.6618 -0.0323
 9986TIP3   OH251372   1.488   4.548   5.477 -0.3844 -0.2002  0.5398
 9986TIP3    H151373   1.413   4.572   5.422 -0.6234  0.1565  1.0137
 9986TIP3    H251374   1.450   4.497   5.549 -0.1813 -0.0050  0.7902
 9987TIP3   OH251375   1.323   2.073   0.500 -0.2536  0.2162 -0.1715
 9987TIP3    H151376   1.249   2.057   0.441 -1.2588 -0.0456  1.1287
 9987TIP3    H251377   1.284   2.111   0.578  1.0393  0.3909  0.4122
 9988TIP3   OH251378   5.045   0.379  16.802  0.2913 -0.0290 -0.5520
 9988TIP3    H151379   5.008   0.418  16.881  1.1835 -0.7612  0.2666
 9988TIP3    H251380   5.034   0.284  16.815  1.0126 -0.1821 -0.9969
 9989TIP3   OH251381   2.937   3.414   2.514 -0.3725  0.1544  0.4893
 9989TIP3    H151382   3.004   3.351   2.540 -0.1855  1.0307  2.3348
 9989TIP3    H251383   2.891   3.435   2.595 -2.6172 -0.0702 -0.6460
 9990TIP3   OH251384   6.246   4.732  11.613 -0.4165 -0.1396  0.3224
 9990TIP3    H151385   6.322   4.681  11.584 -0.6566  0.3622 -1.2740
 9990TIP3    H251386   6.190   4.669  11.658  0.7946 -0.5797  1.2542
 9991TIP3   OH251387   5.883   0.931   3.251  0.1704 -0.0416 -0.0062
 9991TIP3    H151388   5.871   0.876   3.328 -2.6744  0.3442 -0.0516
 9991TIP3    H251389   5.804   0.917   3.199  1.5783  0.4170 -2.4229
 9992TIP3   OH251390   3.828   6.642   3.199  0.3648 -0.6298 -0.4545
 9992TIP3    H151391   3.836   6.572   3.135 -0.2025  0.5845 -1.9018
 9992TIP3    H251392   3.768   6.704   3.159  1.4162  1.0433  0.4764
 9993TIP3   OH251393   4.204   5.455  17.259 -0.5022 -0.4308 -0.9586
 9993TIP3    H151394   4.188   5.426  17.169 -0.3785 -0.4770 -0.9657
 9993TIP3    H251395   4.121   5.438  17.304 -0.5663 -0.3992 -1.0662
 9994TIP3   OH251396   5.597   6.587   3.490 -0.4245  0.3002  0.2653
 9994TIP3    H151397   5.540   6.654   3.527 -0.5288  0.4928 -0.2260
 9994TIP3    H251398   5.669   6.579   3.552 -0.3795  0.9134  0.2965
 9995TIP3   OH251399   3.214   3.318   0.232 -0.0996  0.5970  0.1877
 9995TIP3    H151400   3.177   3.405   0.230  1.2367  1.2091  0.6430
 9995TIP3    H251401   3.209   3.287   0.142 -0.0270  1.3998 -0.0971
 9996TIP3   OH251402   5.909   5.787   4.520 -0.1947  0.5823 -0.6995
 9996TIP3    H151403   5.940   5.856   4.461  0.7895  0.4723 -0.3342
 9996TIP3    H251404   5.988   5.758   4.566 -0.7120 -0.3338 -0.3725
 9997TIP3   OH251405   3.822   1.709  11.170  0.4047  0.4283 -0.1627
 9997TIP3    H151406   3.875   1.731  11.093  0.0014 -0.4011 -0.6858
 9997TIP3    H251407   3.764   1.785  11.181  1.1426  0.9910 -0.0635
 9998TIP3   OH251408   1.512   4.517   0.229 -0.0771 -0.5664  0.5517
 9998TIP3    H151409   1.604   4.539   0.211 -0.0681 -1.4195 -0.5689
 9998TIP3    H251410   1.515   4.464   0.308  0.5643 -1.7578 -0.2439
 9999TIP3   OH251411   4.748   4.296   0.100 -0.2397 -0.0841 -0.4499
 9999TIP3    H151412   4.775   4.351   0.027  1.1823 -1.8972 -1.3904
 9999TIP3    H251413   4.667   4.255   0.070 -0.4564  0.2917 -0.3863
10000TIP3   OH251414   6.223   1.876   2.831  0.0332  0.2181 -0.1797
10000TIP3    H151415   6.169   1.946   2.794  0.4278  0.9473  0.6049
10000TIP3    H251416   6.244   1.820   2.756 -5.2039 -2.5411 -0.1289
10001TIP3   OH251417   0.031   3.121   4.668  0.7491 -0.3374  0.8239
10001TIP3    H151418   0.110   3.152   4.712  0.8177 -0.1010  0.5353
10001TIP3    H251419   0.032   3.026   4.682  0.2620 -0.1667  2.1475
10002TIP3   OH251420   3.036   0.938   1.150 -0.4302  0.3344  0.2982
10002TIP3    H151421   3.046   0.965   1.059  0.5601  1.3344  0.6684
10002TIP3    H251422   3.039   0.843   1.148  1.8452  0.3487 -0.5300
10003TIP3   OH251423   1.019   3.197   5.376 -0.2968  0.1698 -0.1977
10003TIP3    H151424   0.933   3.234   5.356 -0.3255 -1.4216 -3.8006
10003TIP3    H251425   1.003   3.139   5.450 -1.9757  1.0462  0.1899
10004TIP3   OH251426   0.293   5.248   3.786 -0.3619 -0.4866  0.1233
10004TIP3    H151427   0.347   5.327   3.778  1.5915 -1.7610  0.0054
10004TIP3    H251428   0.256   5.253   3.874  2.6408 -1.1085  1.5503
10005TIP3   OH251429   5.877   1.378  13.738 -0.7245  0.3800  0.1306
10005TIP3    H151430   5.933   1.366  13.661  0.4120  0.1317  0.9681
10005TIP3    H251431   5.882   1.294  13.784 -1.4821  0.4894  0.4251
10006TIP3   OH251432   6.229   0.248   1.893 -0.4407 -0.4408  0.0524
10006TIP3    H151433   6.190   0.335   1.903  1.3634  0.4046  0.0785
10006TIP3    H251434   6.270   0.250   1.806  2.0991 -0.1722  1.1561
10007TIP3   OH251435   5.134   6.367  13.151 -0.1969  0.6935 -0.0163
10007TIP3    H151436   5.074   6.435  13.181 -0.3034 -0.4301  2.6638
10007TIP3    H251437   5.115   6.292  13.207 -0.5053 -1.8392 -3.2027
10008TIP3   OH251438   3.918   4.581   2.035 -0.0809 -0.1132 -0.8947
10008TIP3    H151439   3.841   4.524   2.033  1.0032 -1.7032 -0.0291
10008TIP3    H251440   3.989   4.523   2.064  0.8808  1.8930  1.0729
10009TIP3   OH251441   4.926   6.357  12.250  0.0721 -0.3276  0.2388
10009TIP3    H151442   4.852   6.296  12.249 -0.3198  0.1504 -0.0462
10009TIP3    H251443   4.911   6.414  12.175  0.5677 -0.0299  0.3628
10010TIP3   OH251444   3.713   5.045   1.254 -0.1582  0.3475  0.6684
10010TIP3    H151445   3.791   4.992   1.240 -0.5387 -0.3279  1.0663
10010TIP3    H251446   3.712   5.106   1.180 -0.9905 -1.7704 -1.1728
10011TIP3   OH251447   5.567   2.707   4.979  0.5815  0.2195  0.0596
10011TIP3    H151448   5.645   2.749   4.942  0.7894 -0.8680 -0.7938
10011TIP3    H251449   5.582   2.613   4.966 -1.6177  0.0158 -1.7178
10012TIP3   OH251450   5.411   2.353   2.229 -0.1404  0.2323  0.4497
10012TIP3    H151451   5.415   2.447   2.246 -1.0945  0.5656 -1.0027
10012TIP3    H251452   5.438   2.344   2.137  0.8090 -1.0197  0.8224
10013TIP3   OH251453   2.354   4.773  12.685 -0.1839  0.3165  0.2308
10013TIP3    H151454   2.259   4.782  12.677 -0.2534 -0.6039 -0.0843
10013TIP3    H251455   2.390   4.845  12.632 -0.7021  0.3445 -0.0835
10014TIP3   OH251456   3.022   3.846   4.464 -0.2416 -0.0829  0.2977
10014TIP3    H151457   3.073   3.874   4.388 -0.7086 -1.4442 -0.5407
10014TIP3    H251458   2.931   3.867   4.442 -0.3581 -0.3012  0.5592
10015TIP3   OH251459   2.831   5.206   5.177  0.5229  0.4166 -0.5342
10015TIP3    H151460   2.780   5.268   5.229  0.0391  1.2910 -1.9949
10015TIP3    H251461   2.818   5.234   5.087  1.8218 -0.6902 -1.1007
10016TIP3   OH251462   5.884   3.859   3.504  0.5950  0.1466 -0.1702
10016TIP3    H151463   5.837   3.933   3.543  1.3249  0.3610  0.3203
10016TIP3    H251464   5.900   3.800   3.578 -0.3527 -0.7167 -0.6280
10017TIP3   OH251465   6.193   1.214   4.382  0.0560 -0.0893  0.3474
10017TIP3    H151466   6.162   1.245   4.297  0.0378  0.3246  0.5036
10017TIP3    H251467   6.287   1.205   4.371  0.0261 -0.2504  0.2162
10018TIP3   OH251468   1.515   6.125  10.731 -0.8864 -0.4555  0.3581
10018TIP3    H151469   1.422   6.143  10.744 -0.9385 -0.2593 -0.2552
10018TIP3    H251470   1.552   6.210  10.705 -0.6691 -0.6860 -0.0949
10019TIP3   OH251471   0.444   2.103  16.616  0.1909  0.8542  0.0254
10019TIP3    H151472   0.514   2.076  16.557 -1.0662  0.9680 -1.5864
10019TIP3    H251473   0.365   2.102  16.562 -1.2604 -0.2399  2.0146
10020TIP3   OH251474   6.684   3.635   2.039 -0.5577  0.0016 -0.4866
10020TIP3    H151475   6.614   3.572   2.056  0.5444 -0.8161  1.3154
10020TIP3    H251476   6.765   3.584   2.048  0.3910  1.6950  1.2751
10021TIP3   OH251477   5.033   0.877  13.942 -0.4456  0.2133 -0.0687
10021TIP3    H151478   4.948   0.862  13.983 -0.1592 -0.5897  0.2613
10021TIP3    H251479   5.057   0.792  13.904  0.6248  0.1515  0.6653
10022TIP3   OH251480   4.609   1.298  13.464  0.1568 -0.5004  0.2401
10022TIP3    H151481   4.604   1.296  13.560 -0.9001  0.5850  0.2357
10022TIP3    H251482   4.540   1.239  13.435  0.4875 -0.8415  0.1470
10023TIP3   OH251483   1.008   0.606   5.289  0.3351  0.1091 -0.0249
10023TIP3    H151484   1.100   0.581   5.280  0.3694  0.0921  0.3294
10023TIP3    H251485   0.987   0.585   5.380 -0.7444 -2.3482 -0.7423
10024TIP3   OH251486   5.525   3.578   0.925  0.1932  0.2531 -0.1059
10024TIP3    H151487   5.533   3.486   0.900  0.6948  0.3617 -0.3539
10024TIP3    H251488   5.467   3.616   0.859 -2.5515 -0.5381  1.7001
10025TIP3   OH251489   0.106   0.242   0.160 -0.0995 -0.1615  0.4732
10025TIP3    H151490   0.041   0.190   0.207 -0.4659  0.9855  1.2873
10025TIP3    H251491   0.172   0.264   0.226  1.1949 -1.3503 -0.3485
10026TIP3   OH251492   6.718   5.986   6.077  0.5683  0.2015  0.6463
10026TIP3    H151493   6.645   6.048   6.082  2.5194  2.7436  0.2781
10026TIP3    H251494   6.712   5.934   6.157 -0.8917  1.2380  1.2410
10027TIP3   OH251495   3.780   6.182   0.825  0.4647  0.3740 -0.3225
10027TIP3    H151496   3.800   6.251   0.762  1.0724 -1.6542 -2.4803
10027TIP3    H251497   3.839   6.110   0.802 -0.8538 -1.2778  1.1386
10028TIP3   OH251498   3.185   4.319  12.767  0.1360 -0.2671  0.0695
10028TIP3    H151499   3.108   4.363  12.804 -1.5722 -2.3881 -0.7047
10028TIP3    H251500   3.208   4.252  12.831 -1.3901 -2.4109 -1.4697
10029TIP3   OH251501   6.427   3.393   3.757 -0.2061 -0.3855 -0.0519
10029TIP3    H151502   6.382   3.405   3.673 -1.1788 -2.0658  0.1761
10029TIP3    H251503   6.520   3.394   3.736 -0.4391 -0.7275 -1.1446
10030TIP3   OH251504   3.984   3.245   5.505  0.0799  0.6187  0.1168
10030TIP3    H151505   3.913   3.186   5.532  1.8450 -0.1140  3.9100
10030TIP3    H251506   3.960   3.330   5.542 -0.1807  1.1514 -1.2171
10031TIP3   OH251507   0.747   0.939   0.457 -0.0992  0.3201  0.3610
10031TIP3    H151508   0.671   0.880   0.455 -0.6704  0.9710  1.7540
10031TIP3    H251509   0.811   0.894   0.512 -0.8337  1.2782  2.0881
10032TIP3   OH251510   6.772   3.625  12.172 -0.5839 -0.4911  0.0011
10032TIP3    H151511   6.782   3.719  12.186  0.5656 -0.6911  0.7069
10032TIP3    H251512   6.811   3.608  12.086  0.3370 -0.4784  0.4017
10033TIP3   OH251513   6.317   3.460   0.076  0.1310  0.2995 -0.5065
10033TIP3    H151514   6.221   3.458   0.075  0.0991  1.2093 -0.5057
10033TIP3    H251515   6.343   3.379   0.033 -0.6164 -0.7312  0.9013
10034TIP3   OH251516   4.628   1.093  15.910  0.3636 -0.4639 -0.1010
10034TIP3    H151517   4.570   1.166  15.930 -0.9850 -1.8300  1.2440
10034TIP3    H251518   4.630   1.090  15.814 -0.3176  0.7384 -0.1744
10035TIP3   OH251519   1.899   4.521  11.060  0.0342  0.0388  0.0871
10035TIP3    H151520   1.856   4.503  10.977  0.5715 -0.4394 -0.0944
10035TIP3    H251521   1.853   4.598  11.095 -0.7679 -0.2871 -0.2320
10036TIP3   OH251522   5.431   0.761  16.631  0.3192 -0.2884  0.3365
10036TIP3    H151523   5.478   0.693  16.582  0.0212 -0.0437 -0.2993
10036TIP3    H251524   5.390   0.713  16.703 -0.5590 -0.9349 -0.5660
10037TIP3   OH251525   3.619   5.582   4.730  0.2895 -0.1342 -0.7312
10037TIP3    H151526   3.643   5.654   4.672 -2.1241  1.9445  0.6482
10037TIP3    H251527   3.699   5.563   4.779  1.1541  1.0983 -1.6115
10038TIP3   OH251528   5.307   3.643   0.807  0.1599  0.5030  0.2668
10038TIP3    H151529   5.268   3.690   0.881  0.6772  0.9469  0.2634
10038TIP3    H251530   5.233   3.608   0.759 -0.1817 -0.4579  1.4278
10039TIP3   OH251531   0.613   6.155  13.903 -0.5878 -0.2234  0.3138
10039TIP3    H151532   0.589   6.217  13.971 -1.2139  0.0343 -0.1305
10039TIP3    H251533   0.644   6.209  13.830 -1.5366 -0.3922 -0.2331
10040TIP3   OH251534   6.742   5.837  13.503  0.0837  0.2546  0.3341
10040TIP3    H151535   6.835   5.858  13.496  0.0166  0.2759 -0.6834
10040TIP3    H251536   6.735   5.779  13.579  1.0799 -0.5776 -0.1902
10041TIP3   OH251537   3.796   0.798  13.398  0.5419  1.4903  0.1593
10041TIP3    H151538   3.701   0.799  13.405  0.5296  2.2649  0.0047
10041TIP3    H251539   3.819   0.706  13.385 -0.2588  1.4109 -0.7543
10042TIP3   OH251540   5.315   0.754   2.040 -0.1251 -0.3583 -0.1872
10042TIP3    H151541   5.241   0.694   2.042 -0.4996  0.0792 -0.7289
10042TIP3    H251542   5.390   0.699   2.018 -0.2693 -0.8158  0.4335
10043TIP3   OH251543   2.214   5.868  15.253  0.2163  0.1818 -0.3345
10043TIP3    H151544   2.249   5.839  15.337 -0.7945  1.0845  0.4299
10043TIP3    H251545   2.132   5.913  15.275  0.0502  0.6515 -1.7771
10044TIP3   OH251546   1.854   2.220   5.960  0.2469  0.4841  0.2161
10044TIP3    H151547   1.864   2.215   6.056 -0.2629  2.6491  0.4390
10044TIP3    H251548   1.943   2.236   5.928  0.4923 -0.6893  0.2449
10045TIP3   OH251549   3.412   4.731  14.015  0.3427  0.1840  0.2842
10045TIP3    H151550   3.345   4.760  13.954  1.1406  1.7793  0.1395
10045TIP3    H251551   3.478   4.687  13.961 -0.1578 -0.6382  0.3271
10046TIP3   OH251552   0.777   0.954   4.612  0.2718 -0.2178 -0.5134
10046TIP3    H151553   0.713   1.026   4.611 -0.1165 -0.5529 -1.4911
10046TIP3    H251554   0.723   0.875   4.603  0.6704 -0.6684  0.8373
10047TIP3   OH251555   0.971   4.449  15.037  0.1191  0.0344  0.2717
10047TIP3    H151556   0.914   4.376  15.059 -1.5224  1.1941  0.0251
10047TIP3    H251557   0.945   4.519  15.098  1.1897  0.6428  0.0561
10048TIP3   OH251558   4.860   1.033   5.461  0.3905  0.3510  0.1453
10048TIP3    H151559   4.948   1.056   5.432 -1.0065  3.0519 -2.6327
10048TIP3    H251560   4.825   1.113   5.499 -0.4241 -1.1085  2.7056
10049TIP3   OH251561   5.416   1.938  16.116  0.1343  0.2867  0.7151
10049TIP3    H151562   5.512   1.944  16.113  0.2622 -1.5163 -0.1028
10049TIP3    H251563   5.398   1.850  16.149 -1.2151  0.1279 -0.3417
10050TIP3   OH251564   5.352   0.122  16.102 -0.0821 -0.2187 -0.0021
10050TIP3    H151565   5.352   0.034  16.139  2.5113  0.6232  2.3592
10050TIP3    H251566   5.390   0.112  16.015  0.1233 -1.4317  0.2143
10051TIP3   OH251567   5.443   3.791  11.934 -0.1420  0.4776 -0.1110
10051TIP3    H151568   5.476   3.843  12.008  1.6393 -0.3642 -0.2642
10051TIP3    H251569   5.454   3.700  11.962  0.8206  0.1440 -1.5156
10052TIP3   OH251570   5.917   6.487  12.501  0.0510 -0.3594 -0.1578
10052TIP3    H151571   5.868   6.408  12.475 -2.1347  1.3629 -1.6408
10052TIP3    H251572   5.970   6.507  12.424  1.3831 -0.8890  0.5921
10053TIP3   OH251573   0.135   2.980   3.936 -0.2268 -0.0683  0.1237
10053TIP3    H151574   0.138   3.073   3.959  1.0033 -0.5025  1.9401
10053TIP3    H251575   0.124   2.979   3.841 -2.2944  1.8890  0.2762
10054TIP3   OH251576   0.312   0.170   2.224 -0.5388  0.4691  0.2185
10054TIP3    H151577   0.308   0.252   2.274 -0.5112  0.9238 -0.5044
10054TIP3    H251578   0.256   0.187   2.148  0.0603  0.0768 -0.3114
10055TIP3   OH251579   3.087   0.346   0.280  0.3390 -0.2530 -0.0678
10055TIP3    H151580   3.004   0.302   0.300  0.3379 -0.1998  0.0481
10055TIP3    H251581   3.071   0.437   0.305 -0.1695  0.1370 -1.7252
10056TIP3   OH251582   0.134   1.845   3.547 -0.1502  0.1863 -0.7310
10056TIP3    H151583   0.048   1.887   3.547 -0.7978 -1.0361  0.8575
10056TIP3    H251584   0.122   1.767   3.494  0.2682  0.5314 -1.3384
10057TIP3   OH251585   2.674   0.197  15.154 -0.1937 -0.7948  0.1582
10057TIP3    H151586   2.765   0.190  15.184  0.7917  0.5613 -2.2129
10057TIP3    H251587   2.632   0.254  15.218  1.4404  0.8829 -0.1859
10058TIP3   OH251588   4.797   1.024  15.341  0.2818  0.4396  0.6891
10058TIP3    H151589   4.802   0.980  15.256 -1.4830  0.1591  0.6865
10058TIP3    H251590   4.787   1.117  15.319 -0.1014  0.3757  0.5800
10059TIP3   OH251591   4.433   0.708  14.123 -0.0401  0.0523 -0.3716
10059TIP3    H151592   4.353   0.698  14.071 -1.4192  1.6577  1.3068
10059TIP3    H251593   4.429   0.636  14.187  0.8882 -1.0170 -1.4712
10060TIP3   OH251594   2.096   6.078  11.533 -0.1253  0.6634  0.3787
10060TIP3    H151595   2.059   6.118  11.612 -0.0037 -0.7409  1.1675
10060TIP3    H251596   2.144   6.149  11.491  1.0500  1.0834  2.3364
10061TIP3   OH251597   4.821   1.451  16.794  0.4564 -0.2374  0.1744
10061TIP3    H151598   4.749   1.415  16.741  0.3170 -2.0257  1.4733
10061TIP3    H251599   4.899   1.407  16.760  0.6148 -0.0354  0.2822
10062TIP3   OH251600   3.663   4.702   1.601 -0.2129 -0.3613  0.0935
10062TIP3    H151601   3.708   4.636   1.547 -1.4094 -0.3452 -0.9632
10062TIP3    H251602   3.730   4.769   1.617  0.6492 -1.1975  0.0902
10063TIP3   OH251603   3.031   5.647   0.425 -0.1974 -0.4996  0.0013
10063TIP3    H151604   2.964   5.596   0.379  0.1810  0.4704 -1.7180
10063TIP3    H251605   2.986   5.727   0.452  0.0043 -0.2858 -0.2826
10064TIP3   OH251606   0.402   5.679  15.674 -0.0840 -0.0067 -0.4615
10064TIP3    H151607   0.315   5.649  15.646  0.0393  0.4867 -1.4276
10064TIP3    H251608   0.396   5.684  15.769 -1.0714 -0.1070 -0.5041
10065TIP3   OH251609   6.228   0.390  13.659 -0.2052 -0.3622 -0.1457
10065TIP3    H151610   6.284   0.351  13.727 -0.4726 -0.7320 -0.1342
10065TIP3    H251611   6.244   0.335  13.582  1.0503  0.7986 -0.7525
10066TIP3   OH251612   6.035   1.877   5.151 -0.3760 -0.5240 -0.7232
10066TIP3    H151613   6.001   1.910   5.068  0.7144  0.3659 -0.8349
10066TIP3    H251614   5.967   1.818   5.183 -2.1036  1.2674 -0.8698
10067TIP3   OH251615   3.496   2.201  12.927  0.8009 -0.0325 -0.3110
10067TIP3    H151616   3.488   2.162  12.840  1.2424 -1.0888  0.1123
10067TIP3    H251617   3.434   2.275  12.925  0.5838 -0.2171 -1.4117
10068TIP3   OH251618   2.626   0.148   6.578  0.4123  0.1202 -0.1252
10068TIP3    H151619   2.650   0.197   6.656  0.5828 -0.9571  0.5174
10068TIP3    H251620   2.691   0.079   6.571 -0.1562 -0.3803 -0.6721
10069TIP3   OH251621   4.519   6.183  16.168  0.1436 -0.1426  0.2975
10069TIP3    H151622   4.527   6.104  16.116  1.5593 -0.2661  0.6570
10069TIP3    H251623   4.575   6.247  16.124  1.3626 -0.2446  1.6278
10070TIP3   OH251624   2.523   4.371   5.613  0.2721  0.4370  0.4271
10070TIP3    H151625   2.451   4.426   5.583  0.9686  0.0539 -2.2606
10070TIP3    H251626   2.518   4.293   5.557  2.4616  0.1828  0.4895
10071TIP3   OH251627   4.716   2.459  15.977 -0.0682 -0.8100 -0.1664
10071TIP3    H151628   4.686   2.400  16.046  1.9539 -1.1627  0.4569
10071TIP3    H251629   4.739   2.540  16.022  1.0466 -0.9649 -0.4305
10072TIP3   OH251630   1.932   5.338  14.357 -0.2007  0.2609  0.1549
10072TIP3    H151631   1.947   5.256  14.402  0.4411  0.3816  0.1710
10072TIP3    H251632   1.970   5.325  14.270  1.4339  1.0782  0.6883
10073TIP3   OH251633   1.080   1.329   2.254  0.7424 -0.1926 -0.4614
10073TIP3    H151634   1.111   1.394   2.190  2.0046  1.6664  1.8486
10073TIP3    H251635   1.160   1.287   2.285 -0.0303 -2.5861 -1.5179
10074TIP3   OH251636   2.285   2.756  11.784 -0.2740 -1.2393  0.0432
10074TIP3    H151637   2.283   2.703  11.864 -0.8645 -0.7665  0.3494
10074TIP3    H251638   2.333   2.702  11.721 -0.7997 -2.1175  0.3694
10075TIP3   OH251639   2.594   3.389  12.634 -0.1984  0.0374  0.2982
10075TIP3    H151640   2.523   3.325  12.623 -0.3262  0.3537 -0.7958
10075TIP3    H251641   2.654   3.370  12.562  1.9224 -1.5566  2.3173
10076TIP3   OH251642   3.581   2.027  10.995 -0.5476 -0.5039 -0.3347
10076TIP3    H151643   3.531   2.025  10.914  0.0581 -0.1672 -0.7299
10076TIP3    H251644   3.669   2.000  10.969 -0.3911 -0.5626  0.2432
10077TIP3   OH251645   6.107   5.245   6.474  0.1587  0.1698  0.4240
10077TIP3    H151646   6.201   5.250   6.458  0.1029  0.7517  0.2659
10077TIP3    H251647   6.081   5.336   6.489 -0.0580 -0.1561  2.2898
10078TIP3   OH251648   2.235   5.859  14.527  0.1661 -0.4521 -0.2764
10078TIP3    H151649   2.236   5.832  14.618  1.6498 -0.7977 -0.3659
10078TIP3    H251650   2.143   5.877  14.508 -0.0268  0.8336  1.6243
10079TIP3   OH251651   5.161   4.373   4.724  0.0707  0.0302 -0.5216
10079TIP3    H151652   5.068   4.386   4.742  0.3516  1.1022  0.2833
10079TIP3    H251653   5.181   4.289   4.765 -0.9780 -1.2985 -2.5599
10080TIP3   OH251654   4.790   4.993  13.697 -0.6167 -0.1944 -0.2042
10080TIP3    H151655   4.716   5.016  13.754  0.7501  2.2465  0.7707
10080TIP3    H251656   4.864   4.985  13.758  0.5341  0.7429 -1.4246
10081TIP3   OH251657   0.642   5.194   5.716 -0.1983  0.4433 -0.1076
10081TIP3    H151658   0.566   5.142   5.741  1.3712 -1.1842  1.5752
10081TIP3    H251659   0.620   5.283   5.745 -1.4270  0.0098  0.3792
10082TIP3   OH251660   1.168   4.071  11.249 -0.0148 -0.5392  0.0904
10082TIP3    H151661   1.201   4.116  11.326 -1.9830  3.3228 -1.0796
10082TIP3    H251662   1.083   4.037  11.275 -1.0533  1.4866 -0.4791
10083TIP3   OH251663   5.617   4.975   1.980 -0.4423  0.0781  0.1963
10083TIP3    H151664   5.559   4.996   2.053  0.4794  1.0312  0.6772
10083TIP3    H251665   5.702   5.013   2.004 -0.2361  0.8659 -1.5883
10084TIP3   OH251666   2.998   6.759  14.802  0.0207 -0.0521  0.0171
10084TIP3    H151667   2.972   6.667  14.806  1.2361 -0.4066  0.0571
10084TIP3    H251668   3.045   6.774  14.883  0.1558  0.5084 -0.1613
10085TIP3   OH251669   2.237   2.740   5.361  0.2250  0.4360 -0.4936
10085TIP3    H151670   2.172   2.669   5.351  0.2442  0.6497 -2.5776
10085TIP3    H251671   2.218   2.799   5.288  1.2954  1.7215  0.2455
10086TIP3   OH251672   5.876   0.474  14.294 -0.2887 -0.3706  0.5801
10086TIP3    H151673   5.874   0.547  14.232  0.9240 -0.6863  0.1536
10086TIP3    H251674   5.951   0.421  14.267 -0.5676 -1.2557  1.4808
10087TIP3   OH251675   2.222   4.368   0.486 -0.3609  0.4266  0.1467
10087TIP3    H151676   2.145   4.339   0.437 -1.4146  0.4283  1.7291
10087TIP3    H251677   2.272   4.287   0.503  0.2155  0.4698 -1.1825
10088TIP3   OH251678   1.891   1.817  10.778  0.2216  0.4142 -0.0321
10088TIP3    H151679   1.813   1.761  10.779  1.3771 -1.4062 -2.1596
10088TIP3    H251680   1.956   1.767  10.728  1.8548  3.0306 -0.7381
10089TIP3   OH251681   3.515   4.286   1.836  1.0225  0.4809  0.0368
10089TIP3    H151682   3.546   4.205   1.796  0.9678  1.1518 -1.4228
10089TIP3    H251683   3.594   4.333   1.860  1.0666  0.3630  0.1219
10090TIP3   OH251684   4.895   0.362   1.868  0.0725 -0.3073 -0.1757
10090TIP3    H151685   4.974   0.410   1.894 -0.8277  1.0315  0.2306
10090TIP3    H251686   4.861   0.326   1.951 -0.4438  0.2433 -0.1438
10091TIP3   OH251687   3.899   5.562  11.346  0.5007 -0.1573  0.2111
10091TIP3    H151688   3.960   5.624  11.384  1.0509 -0.5089 -0.0872
10091TIP3    H251689   3.911   5.481  11.396  0.6081 -0.3637 -0.1425
10092TIP3   OH251690   0.411   0.049  15.817  0.6496 -0.1503 -0.0498
10092TIP3    H151691   0.391   0.136  15.781  0.5301  0.1403  0.7004
10092TIP3    H251692   0.334  -0.003  15.798  0.4253  0.1118  0.1347
10093TIP3   OH251693   1.319   0.073  15.599  0.1671  0.4035  0.6470
10093TIP3    H151694   1.314   0.007  15.529 -2.0126  0.5086  0.6458
10093TIP3    H251695   1.316   0.022  15.680  2.1254  0.3176  0.6999
10094TIP3   OH251696   6.505   0.600  12.605 -0.9597 -0.0297  0.7082
10094TIP3    H151697   6.588   0.571  12.643 -1.0821  0.2266  1.1735
10094TIP3    H251698   6.495   0.690  12.636 -0.7421  0.4124 -0.4503
10095TIP3   OH251699   4.023   5.871   2.769  0.1597 -0.3211  0.1490
10095TIP3    H151700   3.996   5.946   2.822 -0.0026  0.8024 -1.4465
10095TIP3    H251701   3.984   5.887   2.683  0.4395 -2.0604 -0.3441
10096TIP3   OH251702   1.705   5.321  15.212  0.0539  0.0054 -0.4777
10096TIP3    H151703   1.633   5.280  15.261 -0.2986  1.1084 -0.0448
10096TIP3    H251704   1.679   5.413  15.204 -0.0632 -0.2031 -3.0809
10097TIP3   OH251705   6.077   3.182  12.428  0.1526 -0.1699  0.2443
10097TIP3    H151706   6.138   3.112  12.407  0.6878  0.0464  1.0277
10097TIP3    H251707   6.021   3.145  12.497 -1.1272 -0.6370 -0.9989
10098TIP3   OH251708   5.782   5.881   3.734  0.7169 -0.4983 -0.0495
10098TIP3    H151709   5.686   5.884   3.731  0.7092 -0.8901 -0.2684
10098TIP3    H251710   5.802   5.858   3.825  0.6294  0.2763  0.1786
10099TIP3   OH251711   1.552   0.175   1.889  0.6345  0.5065 -0.2908
10099TIP3    H151712   1.583   0.266   1.888  2.6928 -0.1600 -0.5050
10099TIP3    H251713   1.631   0.122   1.880 -0.4569 -1.3509  0.5229
10100TIP3   OH251714   2.845   6.659  12.637  0.7302 -0.3130 -0.3777
10100TIP3    H151715   2.809   6.698  12.717 -0.5865  0.9139 -1.5096
10100TIP3    H251716   2.813   6.570  12.636 -1.6273  0.4802 -0.8912
10101TIP3   OH251717   0.032   6.620  11.810 -0.2243  0.0707  0.0956
10101TIP3    H151718   0.014   6.637  11.902  0.3327 -1.6044  0.5541
10101TIP3    H251719  -0.003   6.696  11.764 -0.9983  0.6856  1.6324
10102TIP3   OH251720   0.849   0.068   1.090 -0.1952 -0.4956 -0.5161
10102TIP3    H151721   0.927   0.063   1.145 -1.1902 -2.2647  0.8597
10102TIP3    H251722   0.849   0.157   1.055  1.1024  0.3350  1.4526
10103TIP3   OH251723   2.328   4.465  11.770  0.1038  0.0609  0.6624
10103TIP3    H151724   2.339   4.388  11.826  0.1270  0.1452  0.7749
10103TIP3    H251725   2.281   4.432  11.693  0.7568 -0.2157  0.3745
10104TIP3   OH251726   4.160   0.244  17.258  0.0769  0.8343  0.3857
10104TIP3    H151727   4.082   0.298  17.270 -0.5487 -0.0550  0.4056
10104TIP3    H251728   4.190   0.264  17.169 -0.7819  0.4280 -0.0092
10105TIP3   OH251729   5.008   3.986   1.611  0.0691  0.0071  0.2762
10105TIP3    H151730   5.064   3.914   1.640 -1.0217  0.1707  3.1051
10105TIP3    H251731   4.924   3.970   1.654 -0.6262  2.2431 -0.1212
10106TIP3   OH251732   4.537   4.077   1.208  0.0197  0.3325  0.6674
10106TIP3    H151733   4.449   4.040   1.211  0.4862 -0.9504 -0.3672
10106TIP3    H251734   4.524   4.171   1.225 -1.4787  0.0975  0.9782
10107TIP3   OH251735   4.793   3.312  16.262  0.1748  0.2266 -0.0799
10107TIP3    H151736   4.818   3.376  16.195 -0.2206  0.2738 -0.1851
10107TIP3    H251737   4.825   3.350  16.344 -1.4748  1.3999  0.0936
10108TIP3   OH251738   1.464   0.264  15.466  0.0599  0.3453 -0.0731
10108TIP3    H151739   1.395   0.216  15.512 -0.8644  2.1296  0.4678
10108TIP3    H251740   1.538   0.203  15.465 -0.7669 -0.7498  1.3867
10109TIP3   OH251741   2.452   2.788   2.295 -0.1063 -0.4067 -0.5673
10109TIP3    H151742   2.545   2.789   2.271 -0.3482 -2.1801 -1.7927
10109TIP3    H251743   2.450   2.824   2.383  1.3096  2.8870 -1.7297
10110TIP3   OH251744   3.321   0.658  13.108  0.3590  0.1406  0.5039
10110TIP3    H151745   3.394   0.630  13.053 -0.3933 -0.6456 -0.1233
10110TIP3    H251746   3.309   0.750  13.087 -0.7557 -0.4498 -1.6716
10111TIP3   OH251747   1.849   2.859   2.264  0.1188 -0.3627 -0.3684
10111TIP3    H151748   1.804   2.775   2.278  1.9923 -1.0540  2.2679
10111TIP3    H251749   1.783   2.924   2.288 -0.7453 -1.1465 -0.5068
10112TIP3   OH251750   1.230   1.915  15.369 -0.3933 -0.3779 -0.1582
10112TIP3    H151751   1.278   1.998  15.369 -0.3371 -0.3893 -1.3698
10112TIP3    H251752   1.179   1.917  15.289  0.4802 -2.0095 -0.8084
10113TIP3   OH251753   2.245   3.867   0.453  0.5031  0.2339 -0.4261
10113TIP3    H151754   2.149   3.872   0.460  0.4592 -1.9415  1.5332
10113TIP3    H251755   2.264   3.774   0.440  2.4020  0.4875  0.2380
10114TIP3   OH251756   2.619   6.254  11.166 -0.3293 -0.2604 -0.2310
10114TIP3    H151757   2.530   6.256  11.202  0.5564 -1.0395  2.2800
10114TIP3    H251758   2.631   6.163  11.138 -0.2408 -0.2336 -0.2797
10115TIP3   OH251759   5.429   1.325  12.767  0.0693 -0.1281 -0.6102
10115TIP3    H151760   5.440   1.235  12.737 -0.4972 -0.2744 -0.3711
10115TIP3    H251761   5.519   1.359  12.773  0.2424 -0.3229 -1.7602
10116TIP3   OH251762   5.277   3.945  15.555 -0.2005 -0.3401  0.9042
10116TIP3    H151763   5.277   3.859  15.512  1.1007  0.8476 -1.7209
10116TIP3    H251764   5.185   3.960  15.578 -0.7515 -1.6565 -0.2688
10117TIP3   OH251765   2.491   0.034  12.797 -0.7466  0.0603  0.2789
10117TIP3    H151766   2.475   0.030  12.702 -1.4937 -0.9038  0.4360
10117TIP3    H251767   2.547  -0.041  12.815 -0.9537  0.0009  0.6762
10118TIP3   OH251768   3.160   1.305  12.912 -0.5426 -0.0909  0.6743
10118TIP3    H151769   3.183   1.395  12.932 -0.2170  0.6490 -2.5128
10118TIP3    H251770   3.212   1.283  12.835 -1.3798 -2.6684  0.7355
10119TIP3   OH251771   3.755   0.673  13.724 -0.1630 -0.4575  0.6386
10119TIP3    H151772   3.812   0.599  13.703 -0.2453 -0.0735 -1.0874
10119TIP3    H251773   3.805   0.724  13.788  0.9286 -0.7297  0.0241
10120TIP3   OH251774   5.477   1.217   3.133  0.0721  0.0354  0.2841
10120TIP3    H151775   5.425   1.226   3.212  1.5628  1.7857  1.1412
10120TIP3    H251776   5.415   1.233   3.061 -0.5377  2.5747  1.2752
10121TIP3   OH251777   5.012   5.925   5.801  0.0420 -0.2372  0.2897
10121TIP3    H151778   4.960   5.912   5.880  2.3524 -0.8418  1.8082
10121TIP3    H251779   4.972   6.001   5.759 -1.0706  0.3106  2.1961
10122TIP3   OH251780   2.136   5.939   3.347 -0.3067  0.3036  0.5606
10122TIP3    H151781   2.161   6.021   3.389 -0.3562  0.5050  0.1998
10122TIP3    H251782   2.175   5.944   3.260 -0.3124 -0.0547  0.5351
10123TIP3   OH251783   1.564   2.966   0.128 -0.0312 -0.3523 -0.1941
10123TIP3    H151784   1.650   2.993   0.095  0.3740 -0.0478  1.0702
10123TIP3    H251785   1.504   2.985   0.055  1.0675 -1.3744 -1.4163
10124TIP3   OH251786   0.721   2.019  13.237  0.0489  0.9188  0.2507
10124TIP3    H151787   0.679   1.988  13.317  0.1142  1.5236  0.5283
10124TIP3    H251788   0.752   1.940  13.193 -1.8963  0.3908 -0.2689
10125TIP3   OH251789   0.901   2.968  17.081  0.2145  0.2017 -0.3181
10125TIP3    H151790   0.978   3.021  17.059  0.3212 -0.2517 -1.0769
10125TIP3    H251791   0.889   2.910  17.006 -1.4525  0.9268 -0.6691
10126TIP3   OH251792   6.744   6.028   0.164  0.1896 -0.0956  0.4688
10126TIP3    H151793   6.687   5.964   0.206 -1.0280  0.6763  0.0307
10126TIP3    H251794   6.825   5.980   0.148 -0.8529 -1.7007 -0.3011
10127TIP3   OH251795   5.198   0.438   6.242  0.7617  0.1534  0.7100
10127TIP3    H151796   5.228   0.515   6.291 -0.8787  0.4966  1.2505
10127TIP3    H251797   5.103   0.450   6.234  0.4429 -1.8478  0.8745
10128TIP3   OH251798   2.148   3.507   0.743 -0.0698  0.2232 -0.2689
10128TIP3    H151799   2.232   3.546   0.720  0.1640 -1.4713 -2.6314
10128TIP3    H251800   2.083   3.555   0.692 -0.2621  0.1617 -0.0842
10129TIP3   OH251801   1.948   0.548  16.140 -0.1635 -0.5877  0.0558
10129TIP3    H151802   1.921   0.635  16.110  2.1650 -0.6733 -2.7639
10129TIP3    H251803   1.887   0.488  16.097 -0.1678 -0.4646 -0.1114
10130TIP3   OH251804   0.561   3.723  13.284  0.0014 -0.1095  0.2480
10130TIP3    H151805   0.495   3.705  13.218 -0.1780  0.7447  0.1793
10130TIP3    H251806   0.603   3.804  13.254  1.2416 -0.7512  0.1608
10131TIP3   OH251807   6.517   3.469  11.996  0.2422 -0.5463  0.5825
10131TIP3    H151808   6.576   3.394  11.984  0.5084 -0.3439  0.6130
10131TIP3    H251809   6.534   3.525  11.920  0.6055 -0.1471  0.9521
10132TIP3   OH251810   4.548   0.824   3.472 -0.9115 -0.1337  0.2998
10132TIP3    H151811   4.491   0.795   3.400 -1.0362 -0.0704  0.3721
10132TIP3    H251812   4.496   0.809   3.551 -1.1438  0.6570  0.3112
10133TIP3   OH251813   2.683   3.633  11.783  0.9043 -0.3695  0.5188
10133TIP3    H151814   2.676   3.592  11.697  1.8576 -0.7201  0.5897
10133TIP3    H251815   2.755   3.586  11.826  1.1890  0.5454  1.0818
10134TIP3   OH251816   4.136   3.201  12.184  0.6143  0.5336  0.1170
10134TIP3    H151817   4.115   3.248  12.103  0.2272  1.3404  0.6823
10134TIP3    H251818   4.150   3.269  12.249  0.2531 -0.1195  0.8971
10135TIP3   OH251819   0.186   5.351  17.216  0.3055 -0.0645  0.0932
10135TIP3    H151820   0.255   5.320  17.158  0.3082 -0.5621  0.3584
10135TIP3    H251821   0.232   5.400  17.284  0.3625 -0.0793  0.0661
10136TIP3   OH251822   6.336   2.556   1.593 -0.1398  0.7154  0.4795
10136TIP3    H151823   6.410   2.618   1.589  0.0057  0.6374  1.5227
10136TIP3    H251824   6.376   2.470   1.585 -0.1244  0.6789  0.9181
10137TIP3   OH251825   1.374   1.173  15.108  0.0230 -0.9014  0.5021
10137TIP3    H151826   1.447   1.226  15.139 -0.3496 -0.4976  0.6942
10137TIP3    H251827   1.310   1.174  15.179 -0.8114 -0.0101 -0.2301
10138TIP3   OH251828   5.507   1.165   4.497 -0.3393 -0.3952 -0.0439
10138TIP3    H151829   5.537   1.243   4.451 -1.4198 -0.6391 -1.1855
10138TIP3    H251830   5.574   1.098   4.478 -0.6992 -0.4546 -1.1626
10139TIP3   OH251831   1.583   0.425   6.744  0.4402 -0.5000  0.0706
10139TIP3    H151832   1.489   0.425   6.764  0.6434 -0.6729  1.0725
10139TIP3    H251833   1.625   0.404   6.827  1.3496 -0.9226 -0.4788
10140TIP3   OH251834   5.495   2.608  14.065 -0.4842  0.0113 -0.9142
10140TIP3    H151835   5.406   2.628  14.092  0.2255  2.1636  0.1223
10140TIP3    H251836   5.543   2.690  14.080  2.0614 -1.5865  0.3272
10141TIP3   OH251837   1.072   5.029  15.353  0.6351  0.3161 -1.2392
10141TIP3    H151838   1.148   5.075  15.388  0.6380 -0.3106 -0.3686
10141TIP3    H251839   0.998   5.061  15.405  0.3822  0.5673 -1.7527
10142TIP3   OH251840   4.228   5.369   0.761 -0.8701 -0.1372  0.0245
10142TIP3    H151841   4.254   5.461   0.754  0.9313 -0.6221 -0.3027
10142TIP3    H251842   4.260   5.341   0.847  0.5367 -0.9800 -0.7299
10143TIP3   OH251843   5.726   4.822   4.884  0.5148  0.1891 -0.5272
10143TIP3    H151844   5.683   4.780   4.959 -1.6984  0.9335 -1.2813
10143TIP3    H251845   5.773   4.896   4.922 -0.7659  0.6967  0.1421
10144TIP3   OH251846   0.785   0.936   3.914 -0.2771 -0.2723  0.0460
10144TIP3    H151847   0.861   0.991   3.892 -0.3366 -0.4885 -0.7456
10144TIP3    H251848   0.823   0.853   3.942 -0.2020 -0.0835  0.5036
10145TIP3   OH251849   4.739   4.938   1.328 -0.0182  0.4611  0.2398
10145TIP3    H151850   4.799   4.919   1.256  1.1741  4.1748  0.0671
10145TIP3    H251851   4.794   4.978   1.396 -1.6910  0.2558  1.8084
10146TIP3   OH251852   0.339   3.603  10.996 -0.0179 -0.5146 -0.5430
10146TIP3    H151853   0.263   3.546  11.005 -0.2221 -0.3549 -1.1672
10146TIP3    H251854   0.414   3.543  10.993 -0.0922 -0.6579  0.3321
10147TIP3   OH251855   6.732   3.822  13.477  0.1365  0.5928 -0.1598
10147TIP3    H151856   6.756   3.759  13.544  0.7505  0.6161 -0.3489
10147TIP3    H251857   6.770   3.787  13.397 -0.0041  0.9148 -0.3676
10148TIP3   OH251858   0.842   3.007  13.005 -0.1491 -0.6091 -0.1604
10148TIP3    H151859   0.927   2.970  13.028 -0.1827 -0.0570  0.8915
10148TIP3    H251860   0.837   2.996  12.910  1.0770 -0.6906 -0.2357
10149TIP3   OH251861   1.682   0.540  16.570 -0.2904  0.3284 -0.3340
10149TIP3    H151862   1.693   0.522  16.663 -0.0284  0.5737 -0.3145
10149TIP3    H251863   1.771   0.544  16.535 -0.3947 -0.0087 -0.6452
10150TIP3   OH251864   5.438   5.270   5.681 -0.3018  0.2835  0.8234
10150TIP3    H151865   5.365   5.247   5.740 -1.0614  1.6458  0.4517
10150TIP3    H251866   5.474   5.351   5.718 -0.4565  0.8646 -0.2790
10151TIP3   OH251867   1.101   3.034   3.758  0.0295 -0.7475  0.5388
10151TIP3    H151868   1.166   3.101   3.778  0.4273 -1.0770  0.3669
10151TIP3    H251869   1.132   2.993   3.678 -0.0170 -1.3754  0.8328
10152TIP3   OH251870   0.663   4.883  12.288 -0.6156 -0.1341  0.1368
10152TIP3    H151871   0.627   4.858  12.203 -0.7285 -0.5192  0.2964
10152TIP3    H251872   0.757   4.869  12.279 -0.5295  0.6264 -0.1967
10153TIP3   OH251873   6.210   3.401  14.229 -0.3412  0.1334 -0.4032
10153TIP3    H151874   6.159   3.320  14.237  0.3760 -0.3442 -0.5328
10153TIP3    H251875   6.193   3.448  14.311 -0.4811 -0.3195 -0.1652
10154TIP3   OH251876   3.041   2.320   5.448 -0.1094  0.3213 -0.8471
10154TIP3    H151877   3.024   2.414   5.444 -0.5591  0.3997  1.5090
10154TIP3    H251878   2.972   2.285   5.504  2.9212 -0.5158  2.7340
10155TIP3   OH251879   3.273   3.554   1.188 -0.5140 -0.2677  0.6457
10155TIP3    H151880   3.314   3.640   1.179 -0.6847 -0.0517  1.7547
10155TIP3    H251881   3.220   3.545   1.109 -0.2470  0.5123  0.3613
10156TIP3   OH251882   4.858   0.888   1.822  0.1804 -0.8134 -0.6044
10156TIP3    H151883   4.793   0.848   1.765  1.1974 -1.0483 -1.6338
10156TIP3    H251884   4.866   0.827   1.896 -2.0968  0.1340  0.5274
10157TIP3   OH251885   4.788   3.130   1.839  0.1470  0.1433  0.7389
10157TIP3    H151886   4.794   3.043   1.800 -0.1169  0.5804 -0.3302
10157TIP3    H251887   4.837   3.123   1.921 -0.4230 -1.1753  0.9905
10158TIP3   OH251888   4.941   5.075   4.736  0.4168 -0.2780 -0.0381
10158TIP3    H151889   4.902   5.161   4.722 -1.5030 -0.6843  2.1102
10158TIP3    H251890   5.018   5.092   4.790  1.5691  0.2575 -1.7648
10159TIP3   OH251891   3.992   1.974   5.855 -0.3367 -0.3987 -0.1983
10159TIP3    H151892   3.974   1.939   5.942 -1.2360  0.2067 -0.1219
10159TIP3    H251893   3.906   1.972   5.811 -0.2558  0.9498 -0.4528
10160TIP3   OH251894   5.439   4.766   5.484 -0.0721  0.2230 -0.5976
10160TIP3    H151895   5.469   4.675   5.493  1.7566  0.8228 -0.1031
10160TIP3    H251896   5.385   4.781   5.562  0.9731  0.0265  0.1935
10161TIP3   OH251897   0.757   2.878  16.165 -0.0481  0.9328 -0.4215
10161TIP3    H151898   0.784   2.882  16.073 -3.0572  0.4585 -1.4374
10161TIP3    H251899   0.765   2.786  16.188 -0.2189  0.8914 -0.5255
10162TIP3   OH251900   3.623   5.582  14.301 -1.0159 -0.4358  0.4439
10162TIP3    H151901   3.653   5.658  14.351 -0.1880 -0.8890  0.6560
10162TIP3    H251902   3.656   5.507  14.350 -0.5871 -0.9052 -0.5360
10163TIP3   OH251903   2.018   1.159   1.454 -0.2773 -0.1565 -0.0892
10163TIP3    H151904   1.997   1.187   1.544 -1.2416  1.9187 -0.8888
10163TIP3    H251905   2.111   1.135   1.458  0.0898  1.3020  1.1850
10164TIP3   OH251906   4.576   2.220  11.177 -0.6486 -0.2055  0.0393
10164TIP3    H151907   4.620   2.269  11.108  0.3863  1.5642  1.8808
10164TIP3    H251908   4.596   2.267  11.257 -1.7606 -2.2240  1.5973
10165TIP3   OH251909   4.042   5.162   1.035  0.4621  0.1890 -0.1648
10165TIP3    H151910   3.988   5.176   0.957 -1.8888  0.3192  1.3984
10165TIP3    H251911   4.028   5.239   1.089  0.1571 -0.9404  1.4287
10166TIP3   OH251912   0.870   2.970  12.711 -0.0403  0.3342  0.2557
10166TIP3    H151913   0.812   2.919  12.655  0.1108 -0.9197  1.2195
10166TIP3    H251914   0.958   2.936  12.692 -0.0541 -0.6010  1.7325
10167TIP3   OH251915   4.291   4.940  14.692  0.0537  0.3145 -0.4436
10167TIP3    H151916   4.347   4.939  14.614 -0.0976 -2.7595 -0.6371
10167TIP3    H251917   4.239   5.019  14.683  1.6103  1.2121 -2.2854
10168TIP3   OH251918   6.413   3.448   2.863  0.1271  0.2800 -0.5240
10168TIP3    H151919   6.331   3.462   2.815 -0.7043 -0.6284  0.6002
10168TIP3    H251920   6.401   3.493   2.946  0.1999 -1.0558  0.2294
10169TIP3   OH251921   4.801   6.273  16.664  0.5646  0.0523 -0.4174
10169TIP3    H151922   4.737   6.290  16.733  0.2100  1.4106 -1.0564
10169TIP3    H251923   4.819   6.179  16.671 -1.1264 -0.2668  0.0911
10170TIP3   OH251924   3.415   4.666   3.546  0.7254 -0.1698 -0.1454
10170TIP3    H151925   3.508   4.665   3.521  0.8851 -0.0388  0.4252
10170TIP3    H251926   3.399   4.577   3.579  1.3039  0.4499  2.0234
10171TIP3   OH251927   3.768   1.132   1.864 -0.2847  0.3782 -0.0714
10171TIP3    H151928   3.782   1.079   1.786 -0.8943 -1.0828  0.7705
10171TIP3    H251929   3.816   1.213   1.847  2.3948 -1.1779 -0.6418
10172TIP3   OH251930   3.012   6.676   5.720  0.3012 -0.1966 -0.0849
10172TIP3    H151931   3.066   6.612   5.674  0.4067 -0.6846  0.7007
10172TIP3    H251932   3.074   6.732   5.767  0.1725 -0.0164 -0.1249
10173TIP3   OH251933   5.033   3.868  11.218 -0.6765  0.2424  0.0528
10173TIP3    H151934   5.064   3.879  11.128 -3.0851 -1.1625 -1.0486
10173TIP3    H251935   5.080   3.935  11.268  2.1768 -0.1648 -1.8339
10174TIP3   OH251936   1.793   3.494   3.891  0.1725  0.1411  0.1275
10174TIP3    H151937   1.720   3.432   3.899 -0.0261  0.0555 -1.7696
10174TIP3    H251938   1.752   3.580   3.895 -0.2975  0.1025 -2.2773
10175TIP3   OH251939   3.001   1.616  13.097  0.0815  0.0964  0.1211
10175TIP3    H151940   2.923   1.670  13.108 -0.2208  0.0468 -1.5281
10175TIP3    H251941   2.979   1.533  13.138  0.0804  0.7850  1.5631
10176TIP3   OH251942   2.854   2.394  17.197 -0.3119 -0.1495 -0.7778
10176TIP3    H151943   2.860   2.330  17.268 -2.8664  1.0572  0.6646
10176TIP3    H251944   2.816   2.346  17.124 -0.4756 -0.6997 -0.3403
10177TIP3   OH251945   1.822   4.677  15.771 -0.1884  0.5417  0.0653
10177TIP3    H151946   1.866   4.762  15.775  1.7977 -0.4590  1.0111
10177TIP3    H251947   1.893   4.613  15.765 -1.4431 -1.2015  2.0199
10178TIP3   OH251948   4.032   0.174   4.202 -0.0475 -0.1075  0.2556
10178TIP3    H151949   4.093   0.228   4.253  0.3080 -0.3718  0.1206
10178TIP3    H251950   3.945   0.200   4.233  0.0910  0.8677 -0.1312
10179TIP3   OH251951   4.473   1.937  11.477  0.0831  0.1305 -0.0179
10179TIP3    H151952   4.519   1.877  11.418 -0.1932 -0.1411  0.0419
10179TIP3    H251953   4.543   1.988  11.517  0.2322  0.9109 -1.2129
10180TIP3   OH251954   4.450   6.711  16.124 -0.2713  0.2612 -0.4179
10180TIP3    H151955   4.378   6.714  16.061 -0.3433  0.6669 -0.3169
10180TIP3    H251956   4.515   6.772  16.088  0.1885 -0.3785 -0.7100
10181TIP3   OH251957   5.200   4.810  16.558 -0.1357 -0.7039 -0.3838
10181TIP3    H151958   5.146   4.886  16.535 -0.0107 -0.1298  1.1347
10181TIP3    H251959   5.290   4.844  16.558 -0.2804  0.2900  4.0353
10182TIP3   OH251960   2.344   4.929   0.698 -0.0829  0.1739 -0.3848
10182TIP3    H151961   2.289   4.883   0.762  0.3209  0.6475  0.3219
10182TIP3    H251962   2.381   5.002   0.747  1.1003 -0.0795 -0.8677
10183TIP3   OH251963   4.765   0.971  16.136  0.1646 -0.1934  0.3308
10183TIP3    H151964   4.704   1.029  16.182  1.0121 -0.0399  1.2920
10183TIP3    H251965   4.795   1.023  16.061 -0.2889  0.0130  0.2858
10184TIP3   OH251966   6.167   0.966  10.158 -0.0928 -0.0294  0.0912
10184TIP3    H151967   6.236   0.924  10.207  0.6912 -0.5090 -1.3537
10184TIP3    H251968   6.209   1.044  10.120 -0.4279 -0.1252 -0.4916
10185TIP3   OH251969   3.053   4.388  11.053  0.1959  0.2623 -0.0931
10185TIP3    H151970   3.136   4.423  11.021  0.8432 -1.4796 -0.4072
10185TIP3    H251971   3.009   4.356  10.975 -0.1241 -0.1637  0.2598
10186TIP3   OH251972   3.832   3.919  14.691  0.2009 -0.3050 -0.2381
10186TIP3    H151973   3.870   3.831  14.693 -0.5924 -0.6396  0.6433
10186TIP3    H251974   3.844   3.948  14.600 -1.1271 -2.0312 -1.0358
10187TIP3   OH251975   0.403   1.409  13.358  0.4645  0.1994  0.1224
10187TIP3    H151976   0.344   1.471  13.401  0.8962  0.9422 -0.3206
10187TIP3    H251977   0.390   1.423  13.264  1.6865  0.7534  0.0063
10188TIP3   OH251978   2.835   0.707   4.606  0.4004  0.4011  0.4981
10188TIP3    H151979   2.745   0.717   4.637  0.2223  1.8362 -0.4041
10188TIP3    H251980   2.828   0.649   4.530  0.2837  0.3023  0.5833
10189TIP3   OH251981   0.747   4.054  11.684 -0.1063 -0.2104 -0.2950
10189TIP3    H151982   0.653   4.063  11.667  0.0936  0.6645 -1.0687
10189TIP3    H251983   0.778   4.144  11.695  0.6154 -0.5004  0.1296
10190TIP3   OH251984   3.665   2.273   2.271  0.0290 -0.0551 -0.4654
10190TIP3    H151985   3.648   2.360   2.307 -0.8639  0.8908 -2.9914
10190TIP3    H251986   3.682   2.218   2.348  0.4842  2.2864  1.2030
10191TIP3   OH251987   3.054   6.263   1.346 -0.2342 -0.2393  0.5148
10191TIP3    H151988   3.002   6.255   1.266 -0.4777  0.6391  0.5820
10191TIP3    H251989   3.113   6.187   1.344 -0.0822 -0.1043 -0.6055
10192TIP3   OH251990   2.915   2.631   0.458  0.3110  0.4563 -0.6958
10192TIP3    H151991   2.902   2.618   0.364  1.3415  3.0337 -1.2791
10192TIP3    H251992   2.983   2.697   0.464 -1.9966  2.8889  1.7540
10193TIP3   OH251993   1.934   4.060   5.283  0.7060 -0.3397 -0.8781
10193TIP3    H151994   1.917   4.153   5.269  2.7528  0.1341 -0.5636
10193TIP3    H251995   1.847   4.020   5.287 -0.4111  1.9668  1.9523
10194TIP3   OH251996   6.147   0.829  14.361 -0.0474 -0.0089  0.2885
10194TIP3    H151997   6.146   0.735  14.376 -0.7592 -0.4806 -2.2433
10194TIP3    H251998   6.234   0.847  14.326  0.0731  0.2835  0.7285
10195TIP3   OH251999   4.179   3.281   5.313  0.1707  0.0928  0.1479
10195TIP3    H152000   4.140   3.246   5.232 -1.1724 -0.0035  0.8146
10195TIP3    H252001   4.110   3.274   5.378  1.2385  0.1656  1.3306
10196TIP3   OH252002   0.181   5.567   1.348 -0.4121  0.6768  0.0282
10196TIP3    H152003   0.091   5.565   1.313 -0.9467 -0.0871  1.3538
10196TIP3    H252004   0.187   5.650   1.394 -0.2845  0.9183 -0.4163
10197TIP3   OH252005   0.580   6.676  15.974  0.2016 -0.1194  0.2920
10197TIP3    H152006   0.520   6.714  15.910 -0.9174 -0.7995  0.9026
10197TIP3    H252007   0.552   6.584  15.982  1.2612 -0.4269  0.6750
10198TIP3   OH252008   6.675   3.548   5.850 -0.0456 -0.0823 -0.4140
10198TIP3    H152009   6.705   3.631   5.886  1.4990 -1.2267  1.0480
10198TIP3    H252010   6.602   3.522   5.907  0.0486 -0.1444 -0.3207
10199TIP3   OH252011   0.028   0.281  10.901  0.1971 -0.4093  1.0395
10199TIP3    H152012   0.099   0.250  10.845  0.6066  1.6754  0.3360
10199TIP3    H252013   0.069   0.344  10.959 -0.9418  0.2627  1.1391
10200TIP3   OH252014   0.434   1.783  12.684  0.0958 -0.4860  0.2147
10200TIP3    H152015   0.349   1.805  12.644  0.6599 -1.5396 -1.7409
10200TIP3    H252016   0.411   1.732  12.761 -1.0660  1.6993  1.4182
10201TIP3   OH252017   0.050   1.809   3.862 -0.1937  0.2580  0.3118
10201TIP3    H152018   0.102   1.883   3.832 -0.6668  0.3135 -0.3915
10201TIP3    H252019   0.083   1.734   3.813 -1.3386  0.4467 -0.7906
10202TIP3   OH252020   5.903   5.395   0.834 -0.1640 -0.0084 -0.6745
10202TIP3    H152021   5.942   5.477   0.803  1.1893 -0.7475 -0.9850
10202TIP3    H252022   5.973   5.350   0.880 -0.3119 -1.8355 -2.1148
10203TIP3   OH252023   2.480   4.712   6.800 -0.4199 -0.5854  0.3114
10203TIP3    H152024   2.430   4.671   6.870  0.4790  0.3936  1.5532
10203TIP3    H252025   2.561   4.741   6.841  0.5958 -0.9166 -1.3574
10204TIP3   OH252026   3.654   3.769  15.581  0.5262  0.5384  0.3564
10204TIP3    H152027   3.709   3.693  15.603  1.6869  1.1080 -0.4643
10204TIP3    H252028   3.578   3.731  15.537  1.8623 -0.0864 -1.5490
10205TIP3   OH252029   4.681   0.577  14.035  0.1384  0.0383  0.2023
10205TIP3    H152030   4.588   0.571  14.060  0.2647 -0.1803  0.6264
10205TIP3    H252031   4.679   0.587  13.940 -0.2707 -1.6222  0.0161
10206TIP3   OH252032   5.829   0.236  13.312 -0.3815 -0.6664  0.2623
10206TIP3    H152033   5.855   0.167  13.251  0.8286 -0.6652  0.7364
10206TIP3    H252034   5.884   0.221  13.389 -1.1299 -0.0300  0.9361
10207TIP3   OH252035   6.401   3.437  11.285  0.0393 -0.1156 -0.2613
10207TIP3    H152036   6.307   3.455  11.290 -0.4279 -1.9826 -1.3515
10207TIP3    H252037   6.430   3.479  11.203  0.5925  1.9683  0.9235
10208TIP3   OH252038   3.435   4.462   1.580 -0.0885  0.1265 -0.0632
10208TIP3    H152039   3.350   4.505   1.586 -0.1934 -0.2116  1.5657
10208TIP3    H252040   3.497   4.526   1.614 -0.0713 -0.5095  1.1649
10209TIP3   OH252041   6.377   0.642   2.095 -0.3178 -0.2846 -0.1636
10209TIP3    H152042   6.431   0.595   2.158  0.6093  0.6645 -0.2075
10209TIP3    H252043   6.290   0.645   2.133  0.1214 -0.1559  0.8468
10210TIP3   OH252044   5.747   3.841  11.539  0.5691  0.0565  0.2698
10210TIP3    H152045   5.733   3.822  11.446 -0.2780  2.0114 -0.0345
10210TIP3    H252046   5.713   3.763  11.584 -0.7188 -0.1586 -0.9796
10211TIP3   OH252047   0.171   4.714  10.828  0.1995  0.0823  0.6298
10211TIP3    H152048   0.129   4.705  10.743 -1.1179 -0.2191  1.2843
10211TIP3    H252049   0.110   4.674  10.890  0.9764  0.5758  1.7660
10212TIP3   OH252050   4.679   3.563   3.492  0.0466 -0.4561 -0.0292
10212TIP3    H152051   4.616   3.626   3.460  1.1293  0.1402 -1.0604
10212TIP3    H252052   4.669   3.487   3.434 -0.1232 -0.5991  0.1833
10213TIP3   OH252053   4.667   1.975  17.033 -0.1596  0.3486  0.3976
10213TIP3    H152054   4.602   1.969  17.103 -0.6681  1.2760  0.0360
10213TIP3    H252055   4.700   1.886  17.022 -3.0563 -0.6873 -0.9669
10214TIP3   OH252056   1.216   4.028   0.749  0.0730 -0.6391  0.1300
10214TIP3    H152057   1.278   3.955   0.753  0.6043 -0.3566 -1.7082
10214TIP3    H252058   1.211   4.049   0.655 -2.8557 -0.6553  0.1996
10215TIP3   OH252059   3.314   1.043   2.025 -0.1230 -0.1454 -0.1780
10215TIP3    H152060   3.395   0.992   2.035  0.0068  0.0059 -0.4400
10215TIP3    H252061   3.325   1.116   2.086  0.5384  0.6154 -1.1802
10216TIP3   OH252062   1.354   5.455   5.845 -0.7207 -0.4469  0.5709
10216TIP3    H152063   1.415   5.467   5.772 -1.4608  2.6381  0.3136
10216TIP3    H252064   1.291   5.391   5.813 -0.3125 -0.0875 -1.0523
10217TIP3   OH252065   4.625   0.314   4.441 -0.4949 -0.1161  0.5168
10217TIP3    H152066   4.689   0.277   4.380 -1.5027  0.1211 -0.7279
10217TIP3    H252067   4.611   0.244   4.505 -2.2071 -1.9336 -1.6546
10218TIP3   OH252068   6.507   0.026  11.330  0.0939 -0.3498 -0.5095
10218TIP3    H152069   6.522   0.071  11.413  0.7085 -0.8066 -0.3606
10218TIP3    H252070   6.500   0.096  11.265 -2.1714  0.1210  0.1475
10219TIP3   OH252071   6.394   2.926   4.924  0.1711 -0.1508  0.1019
10219TIP3    H152072   6.441   2.849   4.957 -2.0122 -1.3998  0.5039
10219TIP3    H252073   6.351   2.963   5.002 -3.0943 -1.7308 -0.7481
10220TIP3   OH252074   2.096   1.406  13.858  0.5228 -0.5793 -0.0406
10220TIP3    H152075   2.123   1.467  13.927 -1.2425 -1.0742  1.1344
10220TIP3    H252076   2.152   1.329  13.872  2.0613  0.3207 -0.9088
10221TIP3   OH252077   3.893   4.100   2.156 -0.1014 -0.4193  0.0957
10221TIP3    H152078   3.926   4.061   2.075  0.3004  0.7391 -0.3149
10221TIP3    H252079   3.803   4.068   2.162  0.4128 -1.9661  0.1550
10222TIP3   OH252080   4.084   1.075  12.315 -0.4319 -0.5108  0.1109
10222TIP3    H152081   4.018   1.034  12.260  0.2926 -1.1378 -0.3237
10222TIP3    H252082   4.163   1.023  12.299  0.6860  1.3846 -0.8752
10223TIP3   OH252083   5.944   4.929   6.007 -0.1706  0.7236 -0.4200
10223TIP3    H152084   5.874   4.975   5.960  0.2920  2.4045  0.4537
10223TIP3    H252085   5.899   4.863   6.059 -1.2538  2.2611  0.7037
10224TIP3   OH252086   1.682   3.044   3.422 -0.2261 -0.4282  0.0335
10224TIP3    H152087   1.645   3.006   3.501 -1.1029 -1.2599 -0.7533
10224TIP3    H252088   1.668   2.978   3.354  2.3726 -0.6464 -0.4152
10225TIP3   OH252089   0.539   6.500   6.312  0.5702  0.8534 -0.2702
10225TIP3    H152090   0.461   6.547   6.282 -0.9567 -1.2672  0.1837
10225TIP3    H252091   0.534   6.504   6.408 -0.5449 -1.5987 -0.1650
10226TIP3   OH252092   5.719   0.847  16.389 -0.2123 -0.1216 -0.3797
10226TIP3    H152093   5.641   0.798  16.362  0.5103 -0.5314 -1.8209
10226TIP3    H252094   5.703   0.869  16.481 -2.4122  0.5601 -0.8651
10227TIP3   OH252095   3.944   3.770   3.474 -0.1803 -0.0106 -0.5419
10227TIP3    H152096   3.957   3.689   3.523  0.2353  0.6515  0.4817
10227TIP3    H252097   4.032   3.795   3.445 -0.0261  1.0508  0.7760
10228TIP3   OH252098   1.607   3.971   0.377  0.3375  0.1161 -0.3910
10228TIP3    H152099   1.560   3.995   0.297  1.7614 -0.4910 -1.4535
10228TIP3    H252100   1.685   4.026   0.376  2.2454 -2.4393 -1.4263
10229TIP3   OH252101   2.663   4.036  12.944  0.3494 -0.4619 -0.0419
10229TIP3    H152102   2.746   4.055  12.899  0.1458 -1.2501 -0.7798
10229TIP3    H252103   2.630   3.957  12.901  0.3103 -1.4607  1.7580
10230TIP3   OH252104   6.271   4.069  13.342 -0.2295 -0.3943 -0.0405
10230TIP3    H152105   6.364   4.044  13.339 -0.6281 -1.9709 -2.3041
10230TIP3    H252106   6.261   4.113  13.426  2.3372 -1.0947  0.7457
10231TIP3   OH252107   1.769   4.987   2.463 -0.2881  0.6774  0.1867
10231TIP3    H152108   1.798   4.976   2.372 -3.4306  0.6584 -0.9320
10231TIP3    H252109   1.765   4.897   2.497  1.7499  0.7370  0.7231
10232TIP3   OH252110   0.987   5.021  12.790  0.0039 -0.1713  0.5081
10232TIP3    H152111   0.910   5.023  12.733 -0.6154  1.1166  1.3571
10232TIP3    H252112   1.020   5.110  12.789  0.7577 -0.4317  1.1488
10233TIP3   OH252113   5.238   2.005  15.584  0.8017 -1.1029 -0.0635
10233TIP3    H152114   5.228   1.929  15.642 -0.0813 -1.3112 -0.4715
10233TIP3    H252115   5.161   2.059  15.601  0.6245 -1.0776 -0.9016
10234TIP3   OH252116   4.199   2.872   3.039 -0.0538 -0.0735 -0.9433
10234TIP3    H152117   4.268   2.936   3.052 -0.7938  0.4327  0.8221
10234TIP3    H252118   4.239   2.789   3.066 -0.0982  0.2108  0.0418
10235TIP3   OH252119   6.554   3.596  17.009  0.5713 -0.7582 -0.3531
10235TIP3    H152120   6.634   3.578  17.057  0.4214  1.4895  0.8847
10235TIP3    H252121   6.583   3.643  16.930  0.4809  1.4883  0.8600
10236TIP3   OH252122   1.670   4.180   5.970 -0.4162  0.2573 -0.1320
10236TIP3    H152123   1.688   4.087   5.960 -2.3508 -0.2599  0.6201
10236TIP3    H252124   1.740   4.224   5.921  0.3339 -1.5802 -0.8025
10237TIP3   OH252125   4.967   4.896  16.378 -0.7035 -0.3671 -0.8577
10237TIP3    H152126   4.968   4.987  16.347  0.5855 -0.8892 -2.5118
10237TIP3    H252127   4.957   4.844  16.298 -1.3501 -1.7017  0.0529
10238TIP3   OH252128   0.763   2.501   4.401 -0.6111 -0.3378  0.2548
10238TIP3    H152129   0.693   2.523   4.462 -2.0227 -0.8080 -1.1007
10238TIP3    H252130   0.787   2.411   4.424 -0.6716 -0.2822  0.5391
10239TIP3   OH252131   4.119   4.291  12.280 -0.3375  0.2917  0.3682
10239TIP3    H152132   4.066   4.292  12.200 -1.2231  2.0196  0.9472
10239TIP3    H252133   4.073   4.232  12.339 -0.8381  0.6610  0.3521
10240TIP3   OH252134   5.941   3.980  16.313 -0.4228 -0.0273 -0.0186
10240TIP3    H152135   5.953   4.049  16.378 -1.8523 -0.1518  0.4281
10240TIP3    H252136   5.887   4.021  16.245 -1.9932 -0.8811  0.6464
10241TIP3   OH252137   1.397   0.479   3.855  0.3744  0.3000  0.0353
10241TIP3    H152138   1.331   0.531   3.902  0.6571  0.7897 -0.0927
10241TIP3    H252139   1.360   0.391   3.850 -0.6924  0.7793 -0.8641
10242TIP3   OH252140   2.187   2.352  12.169 -0.4540 -0.0836 -0.1781
10242TIP3    H152141   2.246   2.348  12.094  0.4427  0.2224  0.5084
10242TIP3    H252142   2.243   2.371  12.244 -1.5858  1.6872  0.2731
10243TIP3   OH252143   6.122   0.012  10.593  0.6637  0.0478  0.0188
10243TIP3    H152144   6.180   0.081  10.626  0.3986  0.1137  0.3569
10243TIP3    H252145   6.034   0.042  10.617  0.2094  1.2817 -2.8130
10244TIP3   OH252146   6.463   2.299   1.445 -0.0250  0.3292 -0.7014
10244TIP3    H152147   6.486   2.212   1.477 -2.4848  0.3974  1.6166
10244TIP3    H252148   6.393   2.284   1.381  0.1450  0.5606 -0.9436
10245TIP3   OH252149   4.368   6.458  17.067  0.0348 -0.3135  0.1457
10245TIP3    H152150   4.294   6.399  17.081 -1.8795  1.4209 -2.0477
10245TIP3    H252151   4.429   6.407  17.014 -0.6396 -1.0281  0.0361
10246TIP3   OH252152   0.767   2.456   6.536 -0.2412 -0.0787  0.3512
10246TIP3    H152153   0.679   2.481   6.507 -0.4254 -1.0057  0.0833
10246TIP3    H252154   0.824   2.485   6.465 -0.3083  0.6317  0.5782
10247TIP3   OH252155   5.128   5.987  11.906 -0.1486 -0.2679 -0.4693
10247TIP3    H152156   5.192   5.920  11.883  0.3636 -0.2297  0.7718
10247TIP3    H252157   5.054   5.970  11.848 -0.5928 -2.7654  0.6889
10248TIP3   OH252158   6.541   0.014   3.890 -0.0026 -0.4556  0.0243
10248TIP3    H152159   6.513   0.044   3.804  0.0252 -1.0611 -0.1990
10248TIP3    H252160   6.561  -0.079   3.878 -0.3374 -0.6311  0.7616
10249TIP3   OH252161   2.235   0.565  11.007 -0.3839  0.3501  0.2327
10249TIP3    H152162   2.206   0.651  11.036 -0.6734  0.8948 -1.5505
10249TIP3    H252163   2.183   0.546  10.929  0.7964 -0.7057 -0.3544
10250TIP3   OH252164   2.594   2.700   0.064 -0.1006  0.7381  0.2814
10250TIP3    H152165   2.515   2.715   0.116  0.9662  1.0900  1.8485
10250TIP3    H252166   2.666   2.704   0.127  1.1886  0.5151 -1.1225
10251TIP3   OH252167   0.907   3.011  16.365  0.1342 -0.1911  0.1771
10251TIP3    H152168   0.846   2.972  16.302 -0.6800  4.3302 -2.3103
10251TIP3    H252169   0.966   3.064  16.311  2.3638  0.4657  3.0125
10252TIP3   OH252170   1.718   6.694   3.113  0.2186 -0.4104 -0.5050
10252TIP3    H152171   1.798   6.646   3.093 -0.1955 -2.1413  1.6521
10252TIP3    H252172   1.725   6.718   3.205 -1.6458 -0.4238 -0.3080
10253TIP3   OH252173   0.068   1.452  15.401  0.6021 -0.3290  0.3404
10253TIP3    H152174   0.014   1.390  15.449  0.0856 -0.9581 -0.9985
10253TIP3    H252175   0.120   1.497  15.468  0.7780 -1.9905  1.3596
10254TIP3   OH252176   0.181   1.454  12.625 -0.5065  0.4413  0.3219
10254TIP3    H152177   0.184   1.359  12.637  0.5492  0.4291  0.0357
10254TIP3    H252178   0.097   1.470  12.582 -0.0999 -0.5215 -0.8941
10255TIP3   OH252179   5.714   4.518  14.643  0.5447 -1.2036  0.0581
10255TIP3    H152180   5.780   4.456  14.609 -0.8470 -2.2164 -0.9166
10255TIP3    H252181   5.632   4.487  14.606 -0.1678  1.4953 -0.7892
10256TIP3   OH252182   1.794   2.267  12.626  0.2942  0.6753 -0.4174
10256TIP3    H152183   1.814   2.176  12.646  1.8251  1.0731  0.0071
10256TIP3    H252184   1.709   2.264  12.583  0.2057 -0.9228 -0.1958
10257TIP3   OH252185   1.097   5.985   5.043  0.4181 -0.0303  0.0614
10257TIP3    H152186   1.016   6.024   5.074  0.0599  0.0103 -0.8877
10257TIP3    H252187   1.071   5.930   4.969  1.4181  1.1494 -1.2125
10258TIP3   OH252188   1.796   5.833   5.633  0.1544  0.2521 -0.0959
10258TIP3    H152189   1.737   5.893   5.588 -0.7378 -0.1722  0.4702
10258TIP3    H252190   1.799   5.865   5.723  0.2193 -0.1442  0.0465
10259TIP3   OH252191   0.263   2.733  16.822  0.2167 -0.0080  0.6386
10259TIP3    H152192   0.230   2.779  16.899 -0.6886  1.2465 -0.4532
10259TIP3    H252193   0.271   2.801  16.755  0.6483 -1.1226 -0.4820
10260TIP3   OH252194   0.433   1.260  15.499 -0.3964  0.1194 -0.0087
10260TIP3    H152195   0.499   1.209  15.452 -2.0190 -0.9106 -1.2359
10260TIP3    H252196   0.461   1.256  15.590  1.0545 -0.5680 -0.4517
10261TIP3   OH252197   3.394   3.637   1.703  0.1362 -0.2465  0.6750
10261TIP3    H152198   3.482   3.609   1.678  0.2066 -0.8716  1.5960
10261TIP3    H252199   3.349   3.651   1.619  0.7373 -1.0979  0.1985
10262TIP3   OH252200   5.722   5.470   6.472  0.2741 -0.3417 -1.0185
10262TIP3    H152201   5.645   5.526   6.475 -0.0807 -0.8048 -1.3481
10262TIP3    H252202   5.759   5.486   6.385  0.6048 -0.0620 -0.8336
10263TIP3   OH252203   3.435   1.127  17.243 -0.0279 -0.0523 -0.3761
10263TIP3    H152204   3.483   1.158  17.166  1.3345 -2.1639 -0.4723
10263TIP3    H252205   3.503   1.115  17.310 -0.7421 -0.9249  0.2245
10264TIP3   OH252206   0.962   0.461  16.588 -0.7140  0.4342  0.0180
10264TIP3    H152207   1.025   0.526  16.619 -1.8373  1.0487  1.1609
10264TIP3    H252208   1.006   0.377  16.599 -0.3096  0.8006  1.4111
10265TIP3   OH252209   2.167   4.633   2.980  0.1798 -0.4198  0.3129
10265TIP3    H152210   2.200   4.553   2.939  0.2781  0.3917 -1.2660
10265TIP3    H252211   2.222   4.703   2.944 -0.7152  0.5041  0.6987
10266TIP3   OH252212   5.008   1.481  11.216 -0.1005  0.4733  0.1950
10266TIP3    H152213   5.065   1.415  11.176 -0.5333 -0.4299  1.0485
10266TIP3    H252214   4.982   1.444  11.300 -1.9998  0.8104 -0.1767
10267TIP3   OH252215   1.736   4.755   3.258 -0.2804  0.2357  0.3042
10267TIP3    H152216   1.785   4.837   3.257 -0.3118  0.3725  2.7998
10267TIP3    H252217   1.791   4.694   3.209  1.1365  1.0535  0.7962
10268TIP3   OH252218   3.865   3.715  13.477  0.0418 -0.2021 -0.3296
10268TIP3    H152219   3.911   3.692  13.396 -0.7195 -0.5825 -0.6626
10268TIP3    H252220   3.811   3.639  13.497  0.5174 -0.2663  0.7650
10269TIP3   OH252221   0.569   4.265   1.761  0.0782  0.0423  0.0803
10269TIP3    H152222   0.537   4.187   1.715  0.4815 -0.4692  0.6585
10269TIP3    H252223   0.505   4.333   1.738 -0.7840 -0.6700  0.2809
10270TIP3   OH252224   4.676   3.068  14.486  0.5551 -0.2025  0.2369
10270TIP3    H152225   4.689   2.973  14.494 -0.3446 -0.5342 -1.7026
10270TIP3    H252226   4.761   3.100  14.456 -0.1114 -1.0170 -2.9315
10271TIP3   OH252227   3.855   0.152   0.771 -0.6637 -0.0072 -0.7408
10271TIP3    H152228   3.838   0.092   0.844 -1.1869 -0.2587 -1.0604
10271TIP3    H252229   3.894   0.097   0.703  0.2754  0.3212 -0.4846
10272TIP3   OH252230   0.654   1.976  13.502  0.1022 -0.2186  0.3661
10272TIP3    H152231   0.576   2.016  13.539  0.6522  0.0354  1.2677
10272TIP3    H252232   0.723   1.994  13.565  0.9276 -0.3216 -0.4842
10273TIP3   OH252233   2.721   4.548   4.291  0.2507 -0.2282  0.4155
10273TIP3    H152234   2.776   4.480   4.254  0.6029 -0.1351  0.7596
10273TIP3    H252235   2.782   4.605   4.339 -0.3503 -1.2913  2.5808
10274TIP3   OH252236   5.279   1.363   2.300 -0.5320  0.9430  0.1301
10274TIP3    H152237   5.281   1.372   2.395 -0.0949  0.5758  0.1613
10274TIP3    H252238   5.272   1.269   2.284 -0.3613  0.9833 -0.1990
10275TIP3   OH252239   4.274   2.213   0.171 -0.3310 -0.0865 -0.0063
10275TIP3    H152240   4.283   2.279   0.102 -2.2376 -0.7824 -0.9881
10275TIP3    H252241   4.179   2.204   0.184 -0.0687 -1.4572  1.2534
10276TIP3   OH252242   1.366   0.934  13.249  0.0538  0.0223 -0.2327
10276TIP3    H152243   1.367   1.021  13.289  1.2319  0.6784 -1.5875
10276TIP3    H252244   1.399   0.876  13.317  0.6276  0.8675  0.2293
10277TIP3   OH252245   0.401   4.953   4.732 -0.1651  0.3156 -0.3089
10277TIP3    H152246   0.380   4.862   4.754  1.3886  0.2261  0.9191
10277TIP3    H252247   0.486   4.948   4.689  1.4412  1.4049  2.4984
10278TIP3   OH252248   5.417   4.534   1.494  0.8822 -0.7313 -0.0982
10278TIP3    H152249   5.439   4.475   1.567  2.8888 -0.8333 -0.7483
10278TIP3    H252250   5.486   4.600   1.495  0.2951 -0.0824 -1.2289
10279TIP3   OH252251   0.323   0.042  13.299 -0.8507  0.0634 -0.0325
10279TIP3    H152252   0.244  -0.012  13.289 -1.6974  1.4818 -1.6787
10279TIP3    H252253   0.341   0.041  13.393 -0.5065 -3.4025  0.0023
10280TIP3   OH252254   6.055   1.449  14.938 -0.0707  0.4321  0.6716
10280TIP3    H152255   6.121   1.493  14.992  1.2389  0.3783 -0.8194
10280TIP3    H252256   5.974   1.459  14.987  1.1027  0.1044  2.7998
10281TIP3   OH252257   4.741   3.001  16.895 -0.5049 -0.4771 -0.0258
10281TIP3    H152258   4.786   2.933  16.846 -0.0006 -2.1417  2.5727
10281TIP3    H252259   4.804   3.073  16.899  0.0407 -0.9190 -0.4712
10282TIP3   OH252260   5.264   3.282  13.860 -0.4675 -0.3349 -0.0984
10282TIP3    H152261   5.345   3.282  13.808  0.1575  1.0269  0.7985
10282TIP3    H252262   5.222   3.198  13.840  1.7780 -1.6420  0.3486
10283TIP3   OH252263   1.081   5.582   2.479  0.0741  0.2562  0.4576
10283TIP3    H152264   1.107   5.497   2.443 -1.0213 -0.5548  1.4839
10283TIP3    H252265   1.162   5.631   2.485  0.5233 -0.1412 -1.5890
10284TIP3   OH252266   0.207   2.465   3.004 -0.1019 -0.4442  0.1426
10284TIP3    H152267   0.154   2.487   3.081 -0.4289  0.6876 -0.3781
10284TIP3    H252268   0.212   2.370   3.005 -0.3560 -0.4642  1.3934
10285TIP3   OH252269   5.942   2.771  15.697  0.4454  0.2053  0.7019
10285TIP3    H152270   6.033   2.740  15.688  1.1588  2.0228  1.2245
10285TIP3    H252271   5.916   2.797  15.609  0.0752 -1.1241  0.3829
10286TIP3   OH252272   1.318   6.382   5.917 -0.2141 -0.6143 -0.5919
10286TIP3    H152273   1.329   6.474   5.941 -1.6650 -0.2294 -1.2960
10286TIP3    H252274   1.365   6.334   5.985 -0.8588  0.5859  0.7606
10287TIP3   OH252275   6.525   6.208  13.812  0.2391  0.4224  0.3876
10287TIP3    H152276   6.559   6.272  13.749  0.0483  0.4175  0.2785
10287TIP3    H252277   6.438   6.186  13.779  0.8420 -0.9634 -0.3552
10288TIP3   OH252278   1.471   1.163   1.521 -0.0066  0.0800 -0.5263
10288TIP3    H152279   1.563   1.147   1.543 -0.0345 -0.9204 -1.1004
10288TIP3    H252280   1.444   1.233   1.581  1.4693  1.2849 -1.2096
10289TIP3   OH252281   0.406   2.113  13.563 -0.8998  0.0775 -0.3771
10289TIP3    H152282   0.352   2.099  13.641  2.2563 -0.6788  1.8872
10289TIP3    H252283   0.459   2.190  13.584  0.4902 -0.5283 -1.4811
10290TIP3   OH252284   0.922   3.665   4.892 -0.4707  0.1875 -0.3074
10290TIP3    H152285   0.834   3.657   4.930 -0.0461 -1.1983  0.4827
10290TIP3    H252286   0.920   3.607   4.815  0.2965 -1.4492  0.8473
10291TIP3   OH252287   5.813   3.623   5.477 -0.3716  0.1066 -0.2359
10291TIP3    H152288   5.759   3.676   5.418 -0.0898  0.9295  0.2341
10291TIP3    H252289   5.849   3.686   5.540  2.6095 -0.0770 -1.5882
10292TIP3   OH252290   5.446   5.720  11.281 -0.1573  0.0014  0.5693
10292TIP3    H152291   5.354   5.735  11.261  0.2088  0.0811 -1.3130
10292TIP3    H252292   5.492   5.787  11.230  0.9661 -0.5495  0.8369
10293TIP3   OH252293   0.904   0.340  13.901  0.2724 -0.0121 -0.2476
10293TIP3    H152294   0.820   0.374  13.935 -0.0540 -0.2516 -0.8055
10293TIP3    H252295   0.908   0.373  13.812  1.4975  1.2665  0.2554
10294TIP3   OH252296   4.558   2.329   3.741  0.3837 -0.6146 -1.0613
10294TIP3    H152297   4.632   2.323   3.801  0.4882 -0.5783 -1.1870
10294TIP3    H252298   4.483   2.300   3.793  0.3612  0.0523 -0.7088
10295TIP3   OH252299   4.149   6.155   1.981  0.0603  0.0370 -0.0022
10295TIP3    H152300   4.079   6.097   2.010 -0.0620  0.3767  0.3942
10295TIP3    H252301   4.120   6.242   2.006 -0.0254  0.3379 -1.1364
10296TIP3   OH252302   5.672   5.939   5.462 -0.4710 -0.4426  0.1460
10296TIP3    H152303   5.745   5.999   5.446 -0.8685 -0.7978 -4.5028
10296TIP3    H252304   5.594   5.994   5.454 -0.7664 -1.0223 -1.2891
10297TIP3   OH252305   0.727   3.188  16.071  0.3173  0.0570 -0.5200
10297TIP3    H152306   0.690   3.242  16.142  0.7589 -0.5569  0.1874
10297TIP3    H252307   0.777   3.120  16.116  0.2867 -0.5759 -1.4192
10298TIP3   OH252308   0.862   0.914  11.396 -0.0785  0.2084 -0.5440
10298TIP3    H152309   0.797   0.908  11.467  0.0724 -0.2241 -0.4350
10298TIP3    H252310   0.826   0.979  11.336  0.2047  1.2303  0.3547
10299TIP3   OH252311   1.968   5.115  14.576  0.1628  0.0556 -0.1585
10299TIP3    H152312   1.880   5.089  14.547  0.0205  0.4920 -0.1280
10299TIP3    H252313   2.015   5.033  14.588 -0.7462 -0.2714  1.4374
10300TIP3   OH252314   4.374   4.224  12.221  0.1834 -0.6149 -0.0031
10300TIP3    H152315   4.352   4.132  12.204  0.4155 -0.5565 -0.6393
10300TIP3    H252316   4.289   4.268  12.228  0.0677 -0.4716 -1.9795
10301TIP3   OH252317   2.646   4.039   3.890 -0.1107 -0.4304 -0.0576
10301TIP3    H152318   2.665   4.133   3.889  0.5683 -0.5507  0.8278
10301TIP3    H252319   2.553   4.033   3.867 -0.4812  0.5361  1.0855
10302TIP3   OH252320   3.595   3.163   0.294 -0.3455  0.3385 -0.2197
10302TIP3    H152321   3.575   3.255   0.313  1.4882  1.1586 -1.8870
10302TIP3    H252322   3.655   3.137   0.365  0.4746  0.9992 -0.6406
10303TIP3   OH252323   1.232   1.299  13.706 -0.0355 -0.8652 -0.2336
10303TIP3    H152324   1.165   1.235  13.684  0.2349 -1.2362  0.0158
10303TIP3    H252325   1.200   1.381  13.667 -2.2438 -0.2358  2.5927
10304TIP3   OH252326   2.691   5.147  12.603  0.1580 -0.2314  0.0248
10304TIP3    H152327   2.602   5.180  12.612  1.1619  2.6017  0.6920
10304TIP3    H252328   2.694   5.110  12.515 -1.4553  0.3286 -0.3087
10305TIP3   OH252329   1.251   5.994   2.648  0.2299  0.2096  0.4773
10305TIP3    H152330   1.336   5.960   2.675 -0.3120 -2.4349 -0.7606
10305TIP3    H252331   1.191   5.962   2.716 -0.1820 -0.7008 -0.2938
10306TIP3   OH252332   4.127   0.617  17.029  0.5628  0.6291 -0.0376
10306TIP3    H152333   4.213   0.654  17.046  0.2662  0.5306  1.8422
10306TIP3    H252334   4.141   0.556  16.956  1.4656  2.7656 -1.7720
10307TIP3   OH252335   6.549   4.741  11.952  0.3051 -0.0011  0.0584
10307TIP3    H152336   6.562   4.660  12.002  0.1161 -0.1865 -0.1864
10307TIP3    H252337   6.606   4.731  11.876 -0.2516 -0.2258 -0.3358
10308TIP3   OH252338   0.654   0.085   4.336 -0.5097  0.3004 -0.3381
10308TIP3    H152339   0.695   0.099   4.422 -0.2657 -0.2971 -0.3523
10308TIP3    H252340   0.678   0.162   4.285 -0.8727  0.7896  0.2047
10309TIP3   OH252341   1.349   2.722  15.980 -0.1356 -0.6312  0.1335
10309TIP3    H152342   1.401   2.642  15.993  0.9253 -0.1960 -1.2159
10309TIP3    H252343   1.399   2.773  15.917  0.4457  2.2486  2.7225
10310TIP3   OH252344   4.213   5.257   0.518 -0.1693  0.9071  0.3275
10310TIP3    H152345   4.219   5.292   0.607 -1.3259  0.4197  0.6080
10310TIP3    H252346   4.184   5.167   0.529 -0.9204  1.0209 -0.5535
10311TIP3   OH252347   5.322   3.296  16.933 -0.5452  0.0735 -0.3700
10311TIP3    H152348   5.239   3.314  16.978 -1.1715 -0.4393 -1.2798
10311TIP3    H252349   5.361   3.225  16.984 -1.0216 -0.1811 -0.3472
10312TIP3   OH252350   6.750   3.667  15.741  0.3509 -0.2890  0.3811
10312TIP3    H152351   6.752   3.657  15.836  0.4292 -1.1156  0.2971
10312TIP3    H252352   6.688   3.600  15.711 -0.8029  0.9327 -0.0397
10313TIP3   OH252353   2.564   2.026  11.577  0.2905 -0.7830 -0.1970
10313TIP3    H152354   2.532   1.971  11.505 -0.5838 -0.2561 -0.2371
10313TIP3    H252355   2.530   2.113  11.557 -0.9237 -0.8349  1.4108
10314TIP3   OH252356   3.782   0.238  14.944  0.2409  0.2666  0.2903
10314TIP3    H152357   3.701   0.282  14.917 -0.3907  0.1597  1.9480
10314TIP3    H252358   3.851   0.284  14.895 -0.5158  2.2781  1.0134
10315TIP3   OH252359   0.250   3.489   5.915 -0.3507 -0.6487  0.0630
10315TIP3    H152360   0.275   3.576   5.885 -1.8893 -0.3587 -0.4764
10315TIP3    H252361   0.222   3.502   6.006 -0.7844 -0.5353 -0.0852
10316TIP3   OH252362   4.060   2.348  12.770  0.2338  0.9957 -0.4250
10316TIP3    H152363   4.096   2.412  12.832 -0.6811  1.1060  0.0142
10316TIP3    H252364   4.085   2.263  12.806 -1.2105  1.0218  0.7149
10317TIP3   OH252365   5.056   0.138   3.769 -0.1450 -0.0962  0.0495
10317TIP3    H152366   4.978   0.190   3.751 -1.3131 -1.2645  1.4041
10317TIP3    H252367   5.092   0.175   3.850 -0.1875 -0.5109  0.2627
10318TIP3   OH252368   0.497   6.706   2.292 -0.6740 -0.1335  0.2262
10318TIP3    H152369   0.465   6.643   2.357  0.3487 -1.0162 -0.0803
10318TIP3    H252370   0.439   6.781   2.300 -1.7687 -1.0052  0.8088
10319TIP3   OH252371   3.386   2.332  14.756  0.3816  0.4933 -0.6132
10319TIP3    H152372   3.373   2.406  14.697  0.7411  1.7234  0.7820
10319TIP3    H252373   3.304   2.325  14.805  0.4659  0.1820 -0.5117
10320TIP3   OH252374   0.358   1.217  10.972 -0.5107 -0.7033 -0.4000
10320TIP3    H152375   0.286   1.258  11.019  0.4406  0.2485  0.2618
10320TIP3    H252376   0.413   1.290  10.942  0.1073 -1.3970 -1.0097
10321TIP3   OH252377   0.688   4.015   0.092  0.3498  0.8163  0.4588
10321TIP3    H152378   0.616   3.964   0.054 -0.2256  1.2689  0.9398
10321TIP3    H252379   0.650   4.059   0.168  0.3423  3.3752 -0.9191
10322TIP3   OH252380   4.125   0.987  11.001 -0.1312 -0.1633  0.2820
10322TIP3    H152381   4.142   1.071  10.957  0.2981 -0.1192  0.5277
10322TIP3    H252382   4.041   0.958  10.964  0.4058 -0.3214 -0.8573
10323TIP3   OH252383   3.647   6.150  13.161  0.2487  0.5544  0.7339
10323TIP3    H152384   3.661   6.058  13.135  3.2734  1.2847 -0.7323
10323TIP3    H252385   3.642   6.198  13.079  0.8782  1.9353  1.4674
10324TIP3   OH252386   1.011   6.321  13.112 -0.2007  0.5614  0.0177
10324TIP3    H152387   0.952   6.261  13.066  1.2185 -0.6080 -0.3243
10324TIP3    H252388   1.006   6.402  13.063 -0.0160 -0.1439 -1.1945
10325TIP3   OH252389   0.988   0.119   1.870  0.4862 -0.0215  0.6152
10325TIP3    H152390   0.947   0.035   1.892  0.9485 -0.6957 -0.8897
10325TIP3    H252391   0.915   0.178   1.854  0.1434  0.2151  2.7562
10326TIP3   OH252392   0.012   5.573  15.115 -0.1600 -0.9420 -0.0843
10326TIP3    H152393   0.088   5.559  15.058 -0.0060 -0.0009 -0.1211
10326TIP3    H252394  -0.028   5.653  15.081  2.4800  2.4246  3.7491
10327TIP3   OH252395   2.581   0.450   6.056 -0.5518  0.0104 -0.1745
10327TIP3    H152396   2.595   0.503   5.977 -2.3231 -0.2223 -0.6736
10327TIP3    H252397   2.613   0.505   6.127 -0.9714  1.1564 -0.8453
10328TIP3   OH252398   4.461   5.048  13.196  0.0865  0.5277  0.4945
10328TIP3    H152399   4.556   5.064  13.188  0.0814  0.6942  0.7753
10328TIP3    H252400   4.434   5.025  13.107  0.7726 -1.6471  0.7891
10329TIP3   OH252401   0.688   5.954  12.978  0.2380 -0.4430  0.1120
10329TIP3    H152402   0.629   5.922  13.047  0.5317  2.1275  1.7097
10329TIP3    H252403   0.731   5.875  12.945 -2.4907 -2.1689  0.3798
10330TIP3   OH252404   4.348   6.441  13.656  0.0848  0.5152 -0.6063
10330TIP3    H152405   4.368   6.351  13.684  0.0279 -0.1050 -2.3959
10330TIP3    H252406   4.295   6.477  13.726  0.8486 -0.5456  0.5592
10331TIP3   OH252407   6.612   2.384  15.638 -0.1600 -0.4408 -0.5715
10331TIP3    H152408   6.658   2.466  15.655 -2.4857  0.5271  1.7017
10331TIP3    H252409   6.639   2.326  15.709 -0.8989 -0.5348 -0.3565
10332TIP3   OH252410   2.751   1.338   2.071 -0.3093 -0.4192 -0.3908
10332TIP3    H152411   2.816   1.268   2.076 -0.9060 -0.9208  0.6132
10332TIP3    H252412   2.765   1.389   2.151 -0.0518  0.4635 -0.9898
10333TIP3   OH252413   4.825   1.886   3.196 -0.4032  0.1220 -0.5228
10333TIP3    H152414   4.768   1.823   3.152  0.1334 -0.0859 -0.9386
10333TIP3    H252415   4.860   1.940   3.125  1.5531 -1.0910 -0.5766
10334TIP3   OH252416   4.268   1.362   5.095 -0.0935 -0.8446 -0.1774
10334TIP3    H152417   4.207   1.374   5.022  0.0391 -1.5717 -0.4134
10334TIP3    H252418   4.295   1.270   5.090 -1.0276 -1.2617  1.5195
10335TIP3   OH252419   6.303   5.800  12.270 -1.1812  0.0504 -0.2549
10335TIP3    H152420   6.358   5.790  12.348 -2.5160 -0.6011  0.6331
10335TIP3    H252421   6.331   5.730  12.211 -0.5184  0.2257 -0.1560
10336TIP3   OH252422   0.201   2.819   1.602  0.2792 -0.1875 -0.1051
10336TIP3    H152423   0.140   2.872   1.551  1.8595 -0.3670 -2.3226
10336TIP3    H252424   0.170   2.729   1.591 -0.4126 -0.0839  0.8165
10337TIP3   OH252425   5.565   4.929  14.374 -0.0071 -0.2549  0.1013
10337TIP3    H152426   5.487   4.874  14.383 -0.7317  0.8328  0.5753
10337TIP3    H252427   5.543   5.010  14.419  1.3833  0.0978  0.1790
10338TIP3   OH252428   2.510   6.207  13.604  0.0111 -0.5846 -0.1979
10338TIP3    H152429   2.593   6.234  13.565  0.4161  0.6565  1.4326
10338TIP3    H252430   2.509   6.112  13.593  2.4569 -0.8610  1.1870
10339TIP3   OH252431   2.877   6.014  12.258  0.1834  0.2976  0.0823
10339TIP3    H152432   2.943   6.081  12.276  0.0828 -0.1029  2.1272
10339TIP3    H252433   2.796   6.062  12.243  0.2856  0.6636  0.6999
10340TIP3   OH252434   0.029   5.229  15.599  0.2119  0.0165  0.2107
10340TIP3    H152435   0.122   5.207  15.599  0.4568  0.9800  0.3810
10340TIP3    H252436  -0.008   5.174  15.530  1.1711  0.6076 -0.8215
10341TIP3   OH252437   2.092   3.445  15.439  0.2111 -0.0929 -0.1599
10341TIP3    H152438   2.007   3.459  15.398  1.0547  0.9540 -1.6585
10341TIP3    H252439   2.100   3.349  15.444 -0.1398 -0.2731 -2.0938
10342TIP3   OH252440   1.445   0.118  13.915 -0.2247  0.0493 -0.1072
10342TIP3    H152441   1.482   0.055  13.853  0.5740  0.1053  0.3026
10342TIP3    H252442   1.352   0.094  13.920 -0.0851 -0.6143 -0.5265
10343TIP3   OH252443   5.390   0.730   0.109 -0.0744 -0.2930 -0.2033
10343TIP3    H152444   5.373   0.750   0.201 -0.2230 -3.8430  0.7073
10343TIP3    H252445   5.306   0.744   0.066 -0.0809  1.1250  0.2238
10344TIP3   OH252446   0.234   3.680   4.496 -0.6134  0.2676 -0.0072
10344TIP3    H152447   0.162   3.624   4.468  0.9004 -0.3910 -3.0568
10344TIP3    H252448   0.311   3.623   4.497  0.8346  1.9481 -2.4466
10345TIP3   OH252449   5.759   0.579   3.553  0.0530  0.3533 -0.4217
10345TIP3    H152450   5.799   0.662   3.578  0.7673  0.1334 -0.7856
10345TIP3    H252451   5.723   0.595   3.466 -2.1819  1.0369  0.5562
10346TIP3   OH252452   6.419   6.598   3.661 -0.3179 -0.2076 -0.0387
10346TIP3    H152453   6.475   6.669   3.631  0.1775  0.0193  1.3221
10346TIP3    H252454   6.461   6.567   3.741 -1.8314 -0.4120  0.7187
10347TIP3   OH252455   0.575   1.294   3.035 -0.9959 -0.0658 -0.3958
10347TIP3    H152456   0.643   1.275   3.099 -2.4486 -0.0771  1.2034
10347TIP3    H252457   0.620   1.346   2.968  1.0997 -2.0143 -0.6219
10348TIP3   OH252458   3.792   5.987   2.671 -0.0430  0.1823  0.1490
10348TIP3    H152459   3.832   6.057   2.619  1.3037 -0.0768  0.7737
10348TIP3    H252460   3.775   6.028   2.756 -1.1863  0.3001 -0.1275
10349TIP3   OH252461   4.541   0.922  14.251 -0.4371  0.2087  0.1190
10349TIP3    H152462   4.523   0.859  14.181 -0.5384  0.4726 -0.0947
10349TIP3    H252463   4.470   0.908  14.315 -0.5557  0.2231 -0.0083
10350TIP3   OH252464   5.305   5.482   2.249  0.1866 -0.5754 -0.2550
10350TIP3    H152465   5.324   5.479   2.343  0.3808 -1.0389 -0.3091
10350TIP3    H252466   5.310   5.391   2.220  1.9022 -0.2655 -1.0583
10351TIP3   OH252467   2.615   2.426  14.944  0.1052  0.5748 -0.0186
10351TIP3    H152468   2.663   2.357  14.899 -0.7160  0.1508 -0.2709
10351TIP3    H252469   2.681   2.471  14.996  0.8664  0.3449 -0.7544
10352TIP3   OH252470   3.595   5.464   1.710 -0.6971 -0.4663  0.2787
10352TIP3    H152471   3.523   5.435   1.654  0.5318 -1.5377 -0.7963
10352TIP3    H252472   3.647   5.522   1.655  0.4990 -1.4949  0.2589
10353TIP3   OH252473   3.306   4.593   2.044  0.1934  0.1327  0.0428
10353TIP3    H152474   3.265   4.511   2.016  0.7260 -0.8389  1.9087
10353TIP3    H252475   3.358   4.621   1.969 -1.1314 -0.4594 -1.1347
10354TIP3   OH252476   2.187   4.791  16.135 -0.9420  0.0970  0.3430
10354TIP3    H152477   2.256   4.858  16.126 -0.9209  0.3064  1.7590
10354TIP3    H252478   2.117   4.821  16.077  0.5247 -0.6701 -1.9377
10355TIP3   OH252479   1.998   2.683  11.210  0.0712  0.0330 -0.5991
10355TIP3    H152480   1.999   2.758  11.270 -3.7004  0.6020 -0.9813
10355TIP3    H252481   1.988   2.722  11.123 -0.3022 -0.8831 -0.9795
10356TIP3   OH252482   4.721   5.203  12.450 -0.3433  0.0755 -0.0495
10356TIP3    H152483   4.626   5.206  12.462 -0.4803  1.4501 -1.1503
10356TIP3    H252484   4.734   5.166  12.363  0.0524  0.9381 -0.3782
10357TIP3   OH252485   3.664   6.714  11.513  0.3816 -0.2290 -0.3946
10357TIP3    H152486   3.668   6.786  11.577 -0.5765 -1.3859  1.0350
10357TIP3    H252487   3.720   6.646  11.551 -1.0827 -1.3661 -0.1712
10358TIP3   OH252488   4.644   4.302  12.110  0.0417  0.1523 -0.3570
10358TIP3    H152489   4.579   4.310  12.180  1.1713  2.6156  0.5154
10358TIP3    H252490   4.592   4.290  12.030 -1.3104 -1.4671  0.6882
10359TIP3   OH252491   5.573   2.636   3.796 -0.1973 -0.0562  0.2662
10359TIP3    H152492   5.533   2.723   3.793  2.1673  1.1231  0.5186
10359TIP3    H252493   5.635   2.637   3.723 -0.7180 -1.8728 -0.2379
10360TIP3   OH252494   3.681   5.645  15.005  0.0627  0.4817  0.2746
10360TIP3    H152495   3.743   5.715  15.025  0.7386  0.1020 -0.4718
10360TIP3    H252496   3.732   5.565  15.012  0.0366  0.2541 -1.7633
10361TIP3   OH252497   3.486   5.066   0.188  0.3571 -0.0202  0.2104
10361TIP3    H152498   3.502   4.987   0.136  0.0767  0.1965 -0.2119
10361TIP3    H252499   3.400   5.097   0.158 -0.4082 -0.6009  1.6974
10362TIP3   OH252500   6.021   0.891  11.460 -0.4707  0.0422 -0.7256
10362TIP3    H152501   5.961   0.898  11.534 -0.4036 -0.0445 -0.6627
10362TIP3    H252502   6.010   0.972  11.412 -0.7263 -0.0247 -0.7797
10363TIP3   OH252503   3.667   6.372   3.585 -0.1318  0.1207  0.7718
10363TIP3    H152504   3.703   6.456   3.555  0.9058 -0.2855  0.8167
10363TIP3    H252505   3.572   6.382   3.577  0.0127  0.9512 -0.1433
10364TIP3   OH252506   2.350   2.503  15.670  0.0052  0.1846 -0.0447
10364TIP3    H152507   2.434   2.530  15.707 -0.2817 -0.0592  0.8199
10364TIP3    H252508   2.288   2.570  15.698 -0.1057  0.3263 -0.6179
10365TIP3   OH252509   0.525   5.829   3.354 -0.1166 -0.1073 -0.0957
10365TIP3    H152510   0.462   5.897   3.376  0.5231 -0.0028  1.5939
10365TIP3    H252511   0.596   5.875   3.310  0.0951  0.2526  0.6114
10366TIP3   OH252512   4.504   4.423   3.098 -0.4453  0.1987 -0.5697
10366TIP3    H152513   4.421   4.381   3.118 -0.2324  0.7522  1.6644
10366TIP3    H252514   4.559   4.408   3.174  0.1476  3.2065 -0.2485
10367TIP3   OH252515   4.581   0.805  13.085  0.1997 -0.4325  0.8090
10367TIP3    H152516   4.676   0.811  13.086  0.2133  0.8850 -1.1337
10367TIP3    H252517   4.552   0.885  13.130  0.0333 -0.4412  0.7187
10368TIP3   OH252518   1.614   1.995  12.329 -0.1453 -0.1695 -0.0405
10368TIP3    H152519   1.698   1.981  12.285 -0.0851  1.4247 -0.4884
10368TIP3    H252520   1.604   1.918  12.386  1.6426 -0.3508  0.0916
10369TIP3   OH252521   6.124   2.029  12.635 -0.9693 -0.6594  0.3926
10369TIP3    H152522   6.098   2.117  12.663 -0.1863 -0.1754 -0.3452
10369TIP3    H252523   6.064   1.971  12.680 -0.8132  0.1893  1.7522
10370TIP3   OH252524   3.396   6.584   0.031 -0.0909 -0.0668  0.3907
10370TIP3    H152525   3.376   6.587  -0.062  0.8450  2.0020  0.1915
10370TIP3    H252526   3.348   6.657   0.069  0.7446  0.0522  1.2609
10371TIP3   OH252527   0.126   2.834  10.569  0.4638  0.0552 -0.1817
10371TIP3    H152528   0.060   2.889  10.610  0.6105 -0.3517  0.6382
10371TIP3    H252529   0.084   2.749  10.558  1.3348 -0.7468  1.9955
10372TIP3   OH252530   4.648   1.184   3.102 -0.4381 -0.4847 -0.7603
10372TIP3    H152531   4.604   1.102   3.127 -0.5318 -0.4534 -0.8206
10372TIP3    H252532   4.721   1.156   3.047  0.9370 -0.6959  1.0988
10373TIP3   OH252533   0.599   6.013  11.252  0.5357 -0.0219 -0.1612
10373TIP3    H152534   0.578   5.920  11.249  4.1522 -1.0100 -1.2634
10373TIP3    H252535   0.653   6.027  11.174  0.2965  2.9869  0.0920
10374TIP3   OH252536   3.911   4.084   6.248 -0.1960  0.2657 -0.4013
10374TIP3    H152537   3.995   4.117   6.216  0.7805 -1.2103  0.5197
10374TIP3    H252538   3.929   3.993   6.272 -1.3311  0.6974  2.4254
10375TIP3   OH252539   0.684   3.228   4.735  0.1392 -0.0814 -0.0606
10375TIP3    H152540   0.629   3.306   4.731  0.4538  0.3888  2.7800
10375TIP3    H252541   0.643   3.172   4.801  0.8594 -1.5823 -0.8136
10376TIP3   OH252542   3.425   4.738  10.982  0.3176 -0.2636 -0.2286
10376TIP3    H152543   3.499   4.781  11.025  1.2111  0.1652 -2.0784
10376TIP3    H252544   3.424   4.775  10.894 -2.6080  0.2983 -0.0374
10377TIP3   OH252545   6.018   3.025   2.705  0.3541  0.5618 -0.1410
10377TIP3    H152546   5.933   3.051   2.669  0.2419  0.6127  0.1611
10377TIP3    H252547   6.056   3.107   2.738  0.2773  0.4464  0.2320
10378TIP3   OH252548   2.882   5.884   6.252 -0.3612 -0.1229  0.2996
10378TIP3    H152549   2.853   5.878   6.161  0.9186 -1.2669 -0.0536
10378TIP3    H252550   2.889   5.978   6.269  0.1744  0.0937 -1.0433
10379TIP3   OH252551   2.639   2.908  16.129 -0.2018 -0.2641  0.1641
10379TIP3    H152552   2.729   2.877  16.117 -0.4999 -0.8251 -0.6734
10379TIP3    H252553   2.649   3.000  16.152  0.6842 -0.8086  2.2439
10380TIP3   OH252554   4.937   1.192   4.465  0.1674  0.2903  0.1697
10380TIP3    H152555   4.989   1.164   4.389 -1.4469 -0.1381 -0.8281
10380TIP3    H252556   4.852   1.151   4.452  0.0312 -0.3250  2.5898
10381TIP3   OH252557   1.980   1.932   3.577  0.2220  0.7951 -0.8931
10381TIP3    H152558   1.919   1.860   3.560  0.5990  0.2433 -0.0052
10381TIP3    H252559   1.928   2.011   3.562 -0.5909  0.3347 -0.5855
10382TIP3   OH252560   0.015   2.140  15.553  0.7188  0.0603  0.2430
10382TIP3    H152561  -0.063   2.129  15.608  1.1670  0.3316  0.9494
10382TIP3    H252562   0.064   2.210  15.596  1.6915 -0.5762  0.1897
10383TIP3   OH252563   1.029   5.846   5.356  0.0869  0.0600 -0.0626
10383TIP3    H152564   1.069   5.914   5.411 -0.6958  0.2784  0.2498
10383TIP3    H252565   1.070   5.765   5.384  0.7138  0.3421 -0.1328
10384TIP3   OH252566   0.074   4.537  11.504  0.1393  0.4936  0.2672
10384TIP3    H152567   0.096   4.553  11.596  1.0436  0.8127  0.0007
10384TIP3    H252568   0.152   4.498  11.466  0.0447  1.0697 -0.5493
10385TIP3   OH252569   6.558   1.893   3.760  0.0128  0.3011 -0.4592
10385TIP3    H152570   6.605   1.957   3.706 -0.5486 -0.5900 -2.0952
10385TIP3    H252571   6.621   1.823   3.776 -0.3038 -0.2337 -1.4558
10386TIP3   OH252572   1.289   4.836   1.761 -0.2135  0.8342 -0.0985
10386TIP3    H152573   1.302   4.779   1.837 -0.4428  1.4563  0.4150
10386TIP3    H252574   1.377   4.844   1.724 -0.4772 -1.5956 -1.4899
10387TIP3   OH252575   3.363   5.673  14.359 -0.2057  0.4050  0.3454
10387TIP3    H152576   3.452   5.666  14.324 -1.0524 -1.5581 -1.7208
10387TIP3    H252577   3.331   5.757  14.327 -0.2831 -0.4943 -2.2614
10388TIP3   OH252578   2.310   1.167  11.728 -0.2167  0.2005 -0.2945
10388TIP3    H152579   2.265   1.142  11.808  0.5390  0.3701  0.1979
10388TIP3    H252580   2.341   1.256  11.745  0.1589  0.1472 -0.6794
10389TIP3   OH252581   1.554   5.705  13.990  0.5154 -0.1616 -0.0403
10389TIP3    H152582   1.540   5.612  13.974  0.6143 -0.1963  0.0733
10389TIP3    H252583   1.531   5.717  14.082  0.4345 -0.0608 -0.0744
10390TIP3   OH252584   3.840   1.364   3.852  0.1896 -0.4747 -0.4298
10390TIP3    H152585   3.807   1.384   3.765  0.0465  2.5693  0.2054
10390TIP3    H252586   3.917   1.421   3.862 -0.3589  0.0041  1.7318
10391TIP3   OH252587   6.757   4.031   0.769 -0.1727  0.1567 -0.9048
10391TIP3    H152588   6.785   4.087   0.841 -3.3827  1.4213 -0.4608
10391TIP3    H252589   6.751   4.091   0.694 -0.4218 -0.3532 -1.2979
10392TIP3   OH252590   2.171   5.256   2.112 -0.6574  0.3370  0.2797
10392TIP3    H152591   2.262   5.279   2.131 -0.8141  0.2938  1.1228
10392TIP3    H252592   2.141   5.323   2.051  0.3804 -0.4784 -1.2006
10393TIP3   OH252593   1.790   3.835  12.622 -0.6873  0.1476 -0.0074
10393TIP3    H152594   1.802   3.883  12.703  0.7015 -0.7993  0.3882
10393TIP3    H252595   1.737   3.893  12.567 -0.7563  1.2445  1.1709
10394TIP3   OH252596   5.835   1.785   1.945  0.4893 -0.3013 -0.1691
10394TIP3    H152597   5.808   1.809   1.856  0.9291 -0.3657 -0.3218
10394TIP3    H252598   5.752   1.775   1.993  0.2151 -0.9870 -0.7635
10395TIP3   OH252599   2.068   5.604   6.277 -0.1867 -0.0001 -0.1444
10395TIP3    H152600   2.136   5.670   6.290  0.4372 -0.4143 -1.2124
10395TIP3    H252601   2.108   5.523   6.308 -0.3864 -0.1521 -0.2821
10396TIP3   OH252602   0.939   1.850   2.993 -0.0417 -0.1391 -0.6743
10396TIP3    H152603   0.910   1.895   2.914  0.6016  1.3642 -0.0920
10396TIP3    H252604   1.014   1.798   2.964 -0.1841 -0.0742 -1.1714
10397TIP3   OH252605   1.814   5.853   6.876 -0.0824  0.1927  0.6410
10397TIP3    H152606   1.841   5.931   6.924  1.3102  0.4437 -0.4619
10397TIP3    H252607   1.774   5.796   6.941  0.4812  1.0970  1.8005
10398TIP3   OH252608   5.195   4.651   4.058 -0.4378 -0.2626 -0.3087
10398TIP3    H152609   5.152   4.585   4.004 -2.3465 -1.2553  2.1897
10398TIP3    H252610   5.131   4.722   4.065  0.5305  0.6925 -0.8203
10399TIP3   OH252611   1.760   3.938   3.080 -0.7089 -0.8672  0.5081
10399TIP3    H152612   1.823   3.986   3.134  1.1578 -1.2700 -1.2163
10399TIP3    H252613   1.728   3.868   3.137  1.0967 -1.1982  1.1723
10400TIP3   OH252614   3.708   4.202   5.393 -0.2372 -0.1664  0.1555
10400TIP3    H152615   3.636   4.145   5.367 -1.5014  0.9238  1.1093
10400TIP3    H252616   3.739   4.241   5.311 -0.1818 -1.2618 -0.3512
10401TIP3   OH252617   1.988   5.551   1.178  0.7073 -0.4875  0.1321
10401TIP3    H152618   1.908   5.502   1.191  0.0756  0.9529  2.0398
10401TIP3    H252619   2.057   5.485   1.178 -0.3057 -1.5727  0.3534
10402TIP3   OH252620   2.087   0.759  13.552 -0.2581  0.9635 -0.9669
10402TIP3    H152621   2.077   0.761  13.648  0.0609  0.8771 -0.9311
10402TIP3    H252622   2.179   0.735  13.538 -0.6593 -0.4132 -1.3090
10403TIP3   OH252623   5.138   4.532   1.466  1.0956 -0.2602  0.4423
10403TIP3    H152624   5.229   4.505   1.454  1.3946 -0.1686  2.2817
10403TIP3    H252625   5.138   4.626   1.450  0.8584 -0.5551 -1.7078
10404TIP3   OH252626   5.006   0.077  15.117 -0.1388  0.1843  0.0621
10404TIP3    H152627   5.056   0.133  15.176  1.6426  1.0678 -2.1765
10404TIP3    H252628   4.954   0.022  15.176  2.9509 -0.3557  2.5241
10405TIP3   OH252629   2.158   4.936   1.897 -0.0528  0.1423  0.1133
10405TIP3    H152630   2.079   4.891   1.866 -0.3405  0.6724  0.0570
10405TIP3    H252631   2.182   4.890   1.977  0.0675 -0.5517 -0.3163
10406TIP3   OH252632   0.058   2.655  15.387 -0.0357  0.4421 -0.0958
10406TIP3    H152633   0.048   2.576  15.335 -1.3967 -0.2826  1.1781
10406TIP3    H252634  -0.032   2.684  15.404  0.0524 -1.1559  4.4346
10407TIP3   OH252635   5.177   5.935   6.117  0.5748 -0.3689 -0.4117
10407TIP3    H152636   5.213   5.931   6.028 -1.7957  1.4437 -1.5470
10407TIP3    H252637   5.251   5.963   6.172  1.4114  1.3569 -2.2963
10408TIP3   OH252638   4.555   2.042   0.016  0.0875 -0.2328  0.1958
10408TIP3    H152639   4.492   2.006   0.079  0.4402 -1.6931 -0.2287
10408TIP3    H252640   4.632   2.063   0.068 -0.6367  1.3675  0.6846
10409TIP3   OH252641   2.754   5.798  12.786 -0.1402 -0.0825  0.5704
10409TIP3    H152642   2.689   5.731  12.809 -2.4867  1.5438 -0.8279
10409TIP3    H252643   2.782   5.774  12.697  0.3963 -0.2088  0.7740
10410TIP3   OH252644   4.327   4.081   2.945 -0.0060 -0.3603  0.2796
10410TIP3    H152645   4.334   4.159   2.890  3.3389  0.3122  1.3770
10410TIP3    H252646   4.312   4.010   2.883 -1.5943  0.9090 -0.9015
10411TIP3   OH252647   5.882   0.810   3.626 -0.3466 -0.3338 -0.0825
10411TIP3    H152648   5.964   0.859   3.628  0.2733 -1.3256  2.2607
10411TIP3    H252649   5.840   0.830   3.710 -1.7216 -1.1214 -0.5556
10412TIP3   OH252650   3.275   6.585  15.890  0.2655  0.1648  0.3684
10412TIP3    H152651   3.217   6.563  15.962  1.2168 -1.0386  0.8010
10412TIP3    H252652   3.250   6.674  15.865 -0.5352  0.3456  1.7227
10413TIP3   OH252653   4.977   5.501  14.903  0.1650  0.1849  0.1838
10413TIP3    H152654   4.931   5.476  14.822 -0.0981 -1.6861  0.8546
10413TIP3    H252655   4.912   5.550  14.953 -0.3935 -0.5417  0.1840
10414TIP3   OH252656   1.695   6.374   1.035  0.0747 -0.1191 -0.1251
10414TIP3    H152657   1.789   6.388   1.029 -0.0857  0.3373 -2.1508
10414TIP3    H252658   1.664   6.441   1.096  1.2732 -1.6882  2.4009
10415TIP3   OH252659   3.446   4.278  15.335  0.1447 -0.0970  0.2861
10415TIP3    H152660   3.446   4.224  15.256  0.1214  3.4710 -2.4049
10415TIP3    H252661   3.355   4.281  15.362  0.0566 -0.8333  0.1020
10416TIP3   OH252662   2.874   4.422  17.292  0.2766  0.5513 -0.5028
10416TIP3    H152663   2.962   4.446  17.321 -0.0107 -0.8459  1.7393
10416TIP3    H252664   2.887   4.342  17.241  0.1218 -1.7622  2.7784
10417TIP3   OH252665   4.144   5.975   1.097  0.1497  0.2363  0.5598
10417TIP3    H152666   4.143   5.979   1.193  0.2683 -0.7957  0.6196
10417TIP3    H252667   4.106   6.058   1.069  1.3789  1.1442  1.4731
10418TIP3   OH252668   5.780   0.530   4.040  0.5655 -0.0851 -0.5482
10418TIP3    H152669   5.808   0.439   4.027 -0.1651 -0.5163  0.7394
10418TIP3    H252670   5.685   0.526   4.038  0.4324  0.1552  2.3083
10419TIP3   OH252671   4.919   4.616  15.596 -0.3106  0.1446 -0.6842
10419TIP3    H152672   4.994   4.562  15.574  0.6541  1.4254 -0.6924
10419TIP3    H252673   4.942   4.657  15.680 -2.1218 -1.4084  0.6669
10420TIP3   OH252674   0.903   5.701  16.522 -0.5687 -0.5527  0.1468
10420TIP3    H152675   0.849   5.753  16.582  1.1223 -1.4656  2.5903
10420TIP3    H252676   0.980   5.755  16.506  0.2417 -1.4041  1.0438
10421TIP3   OH252677   6.571   2.703   1.511  0.2876 -0.1218 -0.3593
10421TIP3    H152678   6.541   2.656   1.433  0.0898  0.7250 -0.8124
10421TIP3    H252679   6.543   2.794   1.496 -1.3633 -0.2653  1.5236
10422TIP3   OH252680   4.514   4.547   1.531  0.1676  0.0147  0.1172
10422TIP3    H152681   4.579   4.614   1.553  1.4477 -1.4743  1.0623
10422TIP3    H252682   4.566   4.473   1.500 -0.8835 -2.0216  2.9025
10423TIP3   OH252683   2.091   3.006   2.023  0.3760 -0.0039  0.9197
10423TIP3    H152684   2.069   3.065   1.951  2.6481 -0.0035  0.1390
10423TIP3    H252685   2.044   3.040   2.098 -1.0958  0.7212 -0.2770
10424TIP3   OH252686   1.305   5.760   2.446 -0.0828 -0.0787 -0.2644
10424TIP3    H152687   1.286   5.853   2.459  0.5397 -0.1235  1.0804
10424TIP3    H252688   1.345   5.732   2.528 -1.2328 -1.8004 -0.2570
10425TIP3   OH252689   3.383   3.932   2.384  0.0117 -0.4564 -0.1493
10425TIP3    H152690   3.397   3.904   2.293  1.2613 -0.1155 -0.0834
10425TIP3    H252691   3.448   3.882   2.434  0.0769  0.1720  0.3999
10426TIP3   OH252692   4.645   6.602  17.099  0.3333  0.2545 -0.0590
10426TIP3    H152693   4.608   6.526  17.053 -0.6480  0.7667 -0.1392
10426TIP3    H252694   4.609   6.678  17.054  2.4920  0.8360 -0.9493
10427TIP3   OH252695   6.495   0.247   4.143  0.1724 -0.2914 -0.5718
10427TIP3    H152696   6.501   0.158   4.106 -0.8920 -0.7746  0.3703
10427TIP3    H252697   6.586   0.274   4.154  0.5166 -1.3474 -0.6819
10428TIP3   OH252698   3.066   4.450   3.756 -0.5332  0.2329 -0.2421
10428TIP3    H152699   3.150   4.405   3.766 -0.4992  0.7395  2.2161
10428TIP3    H252700   3.005   4.380   3.735 -0.1508 -0.7762  1.7343
10429TIP3   OH252701   1.067   2.905  15.045 -0.6265 -0.1866 -0.2407
10429TIP3    H152702   0.986   2.875  15.002 -1.6789 -0.6822  1.9426
10429TIP3    H252703   1.119   2.826  15.056  0.0574  0.0899 -1.4036
10430TIP3   OH252704   3.614   3.364  15.876 -0.4759  0.3366 -0.1551
10430TIP3    H152705   3.675   3.298  15.908 -1.1260 -0.0157  0.3874
10430TIP3    H252706   3.527   3.327  15.893 -0.8853  0.0537 -2.4866
10431TIP3   OH252707   0.249   0.462   1.433  0.0208  0.7247  0.2798
10431TIP3    H152708   0.246   0.451   1.528  0.1848  1.4211  0.3766
10431TIP3    H252709   0.232   0.375   1.397  1.1849  0.1986  0.9573
10432TIP3   OH252710   0.099   2.186   4.942  0.2457  0.6885 -0.1066
10432TIP3    H152711   0.049   2.252   4.894 -1.2374 -0.1217  0.2493
10432TIP3    H252712   0.166   2.235   4.988 -0.4558  1.8781 -0.3044
10433TIP3   OH252713   1.374   4.409  11.902 -0.3086 -0.0838  0.3366
10433TIP3    H152714   1.340   4.323  11.928 -1.1790 -0.2189 -1.1796
10433TIP3    H252715   1.453   4.420  11.956 -2.0531 -0.2450  3.1530
10434TIP3   OH252716   3.594   4.192  16.273 -0.3459  0.2973  0.4096
10434TIP3    H152717   3.644   4.244  16.336 -0.2567  1.7049 -0.7825
10434TIP3    H252718   3.606   4.101  16.302  1.2040  0.7581  1.3268
10435TIP3   OH252719   4.535   5.268  14.700 -0.3046 -0.0221  0.6534
10435TIP3    H152720   4.445   5.298  14.687  0.2074  1.0994 -0.5368
10435TIP3    H252721   4.587   5.321  14.639  1.0101 -1.4814  0.4338
10436TIP3   OH252722   2.612   3.540  13.529  0.1676 -0.2538  0.1174
10436TIP3    H152723   2.574   3.455  13.553  3.1946 -1.3878  1.3973
10436TIP3    H252724   2.692   3.517  13.482  0.6379  1.9280 -0.2239
10437TIP3   OH252725   1.924   0.793   1.449  0.0852  0.0915 -0.0938
10437TIP3    H152726   1.869   0.767   1.523  0.5399 -0.3916  0.0827
10437TIP3    H252727   1.913   0.888   1.443 -1.8563 -0.1180 -0.9348
10438TIP3   OH252728   2.191   2.590  15.868  0.5077 -0.5341  0.0228
10438TIP3    H152729   2.113   2.552  15.827  1.5537 -3.2899  0.3722
10438TIP3    H252730   2.162   2.675  15.902 -1.8479 -0.7035 -1.3770
10439TIP3   OH252731   2.454   6.316   5.264 -0.6383  0.5237 -0.3250
10439TIP3    H152732   2.395   6.352   5.331  0.1641  0.4591  0.4412
10439TIP3    H252733   2.467   6.225   5.291 -1.7986 -0.0711 -1.6478
10440TIP3   OH252734   0.806   4.920   5.457  0.2761  0.4928  0.3161
10440TIP3    H152735   0.807   4.861   5.382 -0.1036  2.1359 -1.0215
10440TIP3    H252736   0.890   4.967   5.453  0.7432 -0.1631  1.5847
10441TIP3   OH252737   4.496   4.222   0.315  0.0275 -0.1884  0.5232
10441TIP3    H152738   4.534   4.303   0.349 -1.9575  0.2398  1.8734
10441TIP3    H252739   4.440   4.251   0.243  1.1448 -0.6674 -0.5767
10442TIP3   OH252740   0.191   5.982  14.644  0.0654 -0.7660 -0.0789
10442TIP3    H152741   0.252   6.056  14.637 -0.9848  0.3400  1.7024
10442TIP3    H252742   0.108   6.016  14.612 -0.1088 -1.6465 -0.5909
10443TIP3   OH252743   5.174   3.796   2.241 -0.2662 -0.2301  0.2113
10443TIP3    H152744   5.084   3.788   2.210  0.0688 -0.0358 -0.8468
10443TIP3    H252745   5.227   3.770   2.167  0.6101  2.0003 -0.0146
10444TIP3   OH252746   2.105   0.980   3.793 -0.0105  0.2335 -0.0419
10444TIP3    H152747   2.036   0.965   3.728 -0.0310  1.3896 -0.3057
10444TIP3    H252748   2.185   0.984   3.742  0.2155 -0.6504  0.2175
10445TIP3   OH252749   1.410   4.855  16.343 -0.3132 -0.6237  0.5940
10445TIP3    H152750   1.343   4.792  16.316 -1.3548  0.5235  0.3765
10445TIP3    H252751   1.395   4.868  16.437  0.7660 -1.6719  0.9318
10446TIP3   OH252752   0.720   2.927  14.323  0.5934 -0.4849  0.2720
10446TIP3    H152753   0.675   2.998  14.278  4.0408  2.1339  0.6283
10446TIP3    H252754   0.712   2.853  14.263  0.1991  1.2789 -1.9919
10447TIP3   OH252755   0.163   0.042  15.122 -0.1203 -0.2802 -0.2857
10447TIP3    H152756   0.161  -0.052  15.143 -0.9205  0.1223  1.6774
10447TIP3    H252757   0.075   0.061  15.089 -0.2288 -0.0718  0.1138
10448TIP3   OH252758   3.969   4.340  16.862 -0.0401  0.6310  0.3102
10448TIP3    H152759   3.982   4.388  16.943 -1.0663  1.1042  0.2012
10448TIP3    H252760   3.968   4.248  16.888  0.2019  0.7539  0.7497
10449TIP3   OH252761   4.476   4.397  10.930 -0.4972 -0.2077  0.0881
10449TIP3    H152762   4.477   4.322  10.990 -0.5969 -1.2634 -1.1592
10449TIP3    H252763   4.410   4.374  10.865  1.0561 -0.1134 -1.6156
10450TIP3   OH252764   1.226   2.143   5.845 -1.1450 -0.0869  0.1337
10450TIP3    H152765   1.188   2.203   5.781 -0.6853 -0.3905 -0.4341
10450TIP3    H252766   1.221   2.189   5.928 -2.2967  0.0805 -0.0146
10451TIP3   OH252767   1.771   5.404  11.232  0.2014 -0.4441 -0.3931
10451TIP3    H152768   1.845   5.459  11.256 -0.9237  0.9002  0.1156
10451TIP3    H252769   1.725   5.453  11.164 -2.4225  0.6923  2.0095
10452TIP3   OH252770   2.278   4.413   4.632  0.3352  0.3029 -0.3089
10452TIP3    H152771   2.277   4.473   4.558 -0.5565  1.1463  0.3637
10452TIP3    H252772   2.255   4.328   4.595 -2.2886  1.1146 -0.6877
10453TIP3   OH252773   1.656   5.318  15.638 -0.1102  0.7694 -0.2873
10453TIP3    H152774   1.612   5.244  15.679  1.7764  0.2919  1.0053
10453TIP3    H252775   1.619   5.323  15.549 -0.6929 -1.3342 -0.1993
10454TIP3   OH252776   2.187   5.338   2.832  0.2664  0.1281 -0.3602
10454TIP3    H152777   2.219   5.271   2.773  2.1016  1.0770 -0.5236
10454TIP3    H252778   2.092   5.327   2.832  0.4648 -1.9615 -0.9316
10455TIP3   OH252779   1.802   2.599   5.019 -0.6757  0.0409  0.0615
10455TIP3    H152780   1.821   2.603   4.925  0.8127  1.0868  0.3699
10455TIP3    H252781   1.814   2.689   5.050 -1.0369 -0.3085  1.2717
10456TIP3   OH252782   2.930   3.873  17.029 -0.1061  0.1650 -0.8619
10456TIP3    H152783   2.912   3.789  16.985 -0.6044  0.1177 -0.5764
10456TIP3    H252784   3.025   3.880  17.028  0.5005 -2.9399  3.7026
10457TIP3   OH252785   3.215   4.414  10.676 -0.4394 -0.3625 -0.0439
10457TIP3    H152786   3.171   4.337  10.639 -1.6277  0.5863 -0.6639
10457TIP3    H252787   3.143   4.472  10.704  0.4359  0.3320  0.8312
10458TIP3   OH252788   0.475   4.939  11.298 -0.2629  0.2906  1.0040
10458TIP3    H152789   0.437   4.984  11.222 -0.7777  1.4847  1.9325
10458TIP3    H252790   0.476   5.006  11.367 -0.3778 -0.9251  2.2233
10459TIP3   OH252791   5.447   3.880   1.927  0.1185  0.4896  0.3735
10459TIP3    H152792   5.538   3.858   1.949  0.1188  0.5525  0.4366
10459TIP3    H252793   5.412   3.801   1.886 -0.2686 -0.0875  1.7521
10460TIP3   OH252794   4.342   0.602  12.249 -0.9689 -0.3997  0.0130
10460TIP3    H152795   4.300   0.679  12.286  3.6585  1.7186  1.6913
10460TIP3    H252796   4.357   0.624  12.157  0.8071  1.1474  0.5992
10461TIP3   OH252797   4.604   0.209  12.731 -0.8876  0.2980 -0.1697
10461TIP3    H152798   4.516   0.230  12.700 -1.1419  0.0267  0.3618
10461TIP3    H252799   4.636   0.142  12.671 -0.5306  1.3112 -1.1609
10462TIP3   OH252800   4.300   5.749  12.441  0.3955  0.4362 -0.4660
10462TIP3    H152801   4.245   5.702  12.504 -0.2192 -0.4064 -1.5831
10462TIP3    H252802   4.258   5.835  12.433 -0.1386  0.1811 -0.4884
10463TIP3   OH252803   3.843   6.712   2.792 -0.6246  0.4339  0.3190
10463TIP3    H152804   3.852   6.665   2.709 -0.2522  1.2831 -0.1320
10463TIP3    H252805   3.758   6.756   2.785 -1.2187 -0.5818  0.9624
10464TIP3   OH252806   4.278   0.759   5.335 -0.1657 -0.1914  0.3391
10464TIP3    H152807   4.346   0.782   5.398 -0.2320 -0.8656  0.6676
10464TIP3    H252808   4.225   0.838   5.326 -1.0655 -0.5246  2.2791
10465TIP3   OH252809   0.536   5.345  12.258  0.3035 -1.1457 -0.2666
10465TIP3    H152810   0.622   5.372  12.225 -0.1110 -0.2190 -0.6325
10465TIP3    H252811   0.475   5.409  12.221 -0.2283 -0.1849  2.1188
10466TIP3   OH252812   2.484   6.362  17.024  0.4363 -0.1876  0.2072
10466TIP3    H152813   2.392   6.348  17.047  1.0480 -1.0758  2.3585
10466TIP3    H252814   2.526   6.278  17.042  1.6162  0.0710 -1.1909
10467TIP3   OH252815   4.649   2.666  17.176  0.3440  0.3484 -0.0761
10467TIP3    H152816   4.632   2.626  17.262 -1.3012  0.9416 -0.1094
10467TIP3    H252817   4.615   2.602  17.113 -0.7923  1.0460 -0.1867
10468TIP3   OH252818   3.175   1.508   1.990  0.1627  0.4748 -0.0317
10468TIP3    H152819   3.168   1.437   1.926  2.5182 -0.1769  0.3318
10468TIP3    H252820   3.230   1.573   1.947 -0.4761  1.2553  0.3256
10469TIP3   OH252821   3.356   6.156  12.843 -0.2838  0.2773  0.2600
10469TIP3    H152822   3.447   6.186  12.847 -0.3482  0.3793  1.4622
10469TIP3    H252823   3.308   6.218  12.898 -1.1589  0.4708 -0.6986
10470TIP3   OH252824   6.174   4.864   5.901  0.7083 -0.4931 -0.0265
10470TIP3    H152825   6.094   4.902   5.937  1.0484 -0.6164  0.9051
10470TIP3    H252826   6.153   4.845   5.810 -0.1782 -0.1199  0.0866
10471TIP3   OH252827   0.649   2.816  12.516 -0.0069 -0.0390 -0.0111
10471TIP3    H152828   0.668   2.727  12.546 -1.8736 -0.9726 -1.3981
10471TIP3    H252829   0.669   2.815  12.423 -0.0843  0.9859 -0.0454
10472TIP3   OH252830   3.486   1.511   2.464 -0.5308  0.0447 -0.5083
10472TIP3    H152831   3.434   1.466   2.397 -1.0346  2.2203 -1.6784
10472TIP3    H252832   3.576   1.489   2.444 -0.8024 -1.2063 -0.4278
10473TIP3   OH252833   3.360   3.696  15.048 -0.0399  0.2235 -0.0218
10473TIP3    H152834   3.265   3.681  15.053 -0.0420  0.6928  2.0136
10473TIP3    H252835   3.399   3.624  15.098  0.6435  0.4252 -0.2516
10474TIP3   OH252836   0.502   2.166   2.775  0.2843  0.1869 -0.1212
10474TIP3    H152837   0.510   2.095   2.711  2.2608 -0.9106  1.2665
10474TIP3    H252838   0.577   2.223   2.758 -0.3286  1.0376 -0.0893
10475TIP3   OH252839   0.362   5.890  16.757 -0.2542  0.3770  0.0788
10475TIP3    H152840   0.295   5.932  16.812 -0.1211  0.4024  0.2221
10475TIP3    H252841   0.356   5.935  16.673 -1.4418 -0.6141 -0.4050
10476TIP3   OH252842   0.480   1.740   3.413  0.2572  0.5373  0.0300
10476TIP3    H152843   0.413   1.731   3.345 -0.0745 -1.7265  0.5541
10476TIP3    H252844   0.517   1.652   3.421  0.4400  0.7652  2.5896
10477TIP3   OH252845   6.442   0.973  11.103  0.0775  0.0786  0.3753
10477TIP3    H152846   6.463   0.889  11.145 -1.7789 -1.0905 -0.8807
10477TIP3    H252847   6.524   1.000  11.061  0.4507 -1.6915 -0.1185
10478TIP3   OH252848   5.098   1.782  12.519  0.1597 -0.1376  0.8447
10478TIP3    H152849   5.192   1.774  12.537  0.1780 -1.4929  0.3215
10478TIP3    H252850   5.093   1.833  12.438  0.6645 -2.4733 -0.7623
10479TIP3   OH252851   1.591   1.755  12.464  0.3450  0.0526 -0.4711
10479TIP3    H152852   1.677   1.723  12.491  0.0548 -1.1200 -0.8550
10479TIP3    H252853   1.534   1.739  12.539  0.4525  0.7994 -0.2281
10480TIP3   OH252854   6.104   3.321   1.545  0.5597  0.3300 -0.5314
10480TIP3    H152855   6.197   3.337   1.559  0.7720 -1.3059  0.2074
10480TIP3    H252856   6.101   3.239   1.495 -0.4781  0.5724 -0.8967
10481TIP3   OH252857   0.308   0.226   0.728  1.0759 -0.6653 -0.1608
10481TIP3    H152858   0.215   0.249   0.735  1.5194  1.3267 -0.2354
10481TIP3    H252859   0.354   0.299   0.767  2.7306 -0.1054 -2.8965
10482TIP3   OH252860   4.021   4.936   4.188 -0.3561  0.1092 -0.0458
10482TIP3    H152861   4.058   4.970   4.269  2.0293  0.4111 -1.1632
10482TIP3    H252862   3.949   4.996   4.167  0.4134  1.3451  0.7214
10483TIP3   OH252863   2.152   3.860   0.792  0.3612  0.1383  0.4523
10483TIP3    H152864   2.159   3.863   0.887  0.0665 -2.4662  0.6269
10483TIP3    H252865   2.234   3.822   0.763  1.1573  2.4263 -0.5550
10484TIP3   OH252866   2.697   3.931   1.223 -0.0897  0.7704  0.0406
10484TIP3    H152867   2.605   3.940   1.249 -0.5344  0.9388 -1.4589
10484TIP3    H252868   2.728   4.020   1.214  0.2231  0.7124  0.5711
10485TIP3   OH252869   4.841   3.403   4.709 -1.2556  0.1481  0.2175
10485TIP3    H152870   4.924   3.403   4.661  0.3599  1.6957  2.7830
10485TIP3    H252871   4.781   3.353   4.653  0.9379  0.2635 -2.4676
10486TIP3   OH252872   4.278   0.770   1.131  0.6890 -0.1728 -0.5165
10486TIP3    H152873   4.371   0.762   1.110  0.8164 -0.0071 -0.0304
10486TIP3    H252874   4.243   0.826   1.062  1.2608  1.0386  0.1405
10487TIP3   OH252875   6.167   4.704   0.066  0.3843  0.2929 -0.9930
10487TIP3    H152876   6.245   4.670   0.111 -0.0643  0.8322  0.2111
10487TIP3    H252877   6.106   4.631   0.066  0.3034  0.3623 -0.5353
10488TIP3   OH252878   1.190   4.584  16.898  0.1140  0.2436  0.3055
10488TIP3    H152879   1.283   4.601  16.883 -0.2397 -0.0557 -2.6897
10488TIP3    H252880   1.145   4.622  16.823 -1.9542 -1.7806  0.3915
10489TIP3   OH252881   6.256   3.820  15.613  0.1619  0.3036  0.6784
10489TIP3    H152882   6.227   3.735  15.579  2.2641 -0.9344  1.7312
10489TIP3    H252883   6.323   3.848  15.550 -0.1913  0.9697  0.5933
10490TIP3   OH252884   4.031   2.633   0.965  0.1669  0.1136 -0.1955
10490TIP3    H152885   4.001   2.719   0.935  1.4319  1.0591  1.0535
10490TIP3    H252886   4.126   2.635   0.951  0.2554 -0.9394  0.1737
10491TIP3   OH252887   1.365   2.711   6.480  0.6193  0.2477  0.0626
10491TIP3    H152888   1.319   2.630   6.457  0.8020 -0.2289  1.2941
10491TIP3    H252889   1.437   2.682   6.537 -0.0009  1.3799  1.4801
10492TIP3   OH252890   3.712   0.533  12.046  0.5639 -0.1547 -0.0840
10492TIP3    H152891   3.700   0.500  12.135  0.5614 -0.4181 -0.1802
10492TIP3    H252892   3.714   0.454  11.991  1.3385 -0.0494 -0.2313
10493TIP3   OH252893   0.409   1.826   6.380 -0.4194  0.3734 -0.5069
10493TIP3    H152894   0.320   1.822   6.344 -1.3013 -0.2387  1.5606
10493TIP3    H252895   0.407   1.902   6.438 -0.9513 -1.8667  2.6666
10494TIP3   OH252896   5.481   0.554  11.704 -0.7221 -0.2814  0.4565
10494TIP3    H152897   5.459   0.472  11.748  0.9690 -0.6707  0.6662
10494TIP3    H252898   5.404   0.575  11.652 -1.3837 -1.7373  0.7882
10495TIP3   OH252899   3.935   0.468  12.754  0.0914  0.0153 -0.3168
10495TIP3    H152900   3.962   0.482  12.663  0.6510 -0.9009 -0.3043
10495TIP3    H252901   3.963   0.547  12.800  2.9984 -0.9363 -0.2710
10496TIP3   OH252902   0.175   4.144  13.213  0.3678 -0.3041  0.4929
10496TIP3    H152903   0.155   4.125  13.304  1.0041 -1.5935  0.3797
10496TIP3    H252904   0.269   4.161  13.212  0.5996 -1.5618 -0.1121
10497TIP3   OH252905   4.350   4.524   0.054  0.0279  0.1332  0.2562
10497TIP3    H152906   4.361   4.489  -0.034  0.5544  0.0767  0.3398
10497TIP3    H252907   4.347   4.447   0.110  0.8702  0.1933  0.4080
10498TIP3   OH252908   0.417   6.735  13.028 -0.5779  0.6201 -0.7507
10498TIP3    H152909   0.486   6.761  12.968  2.2741 -1.5527  1.2733
10498TIP3    H252910   0.421   6.799  13.099  0.3496 -0.2350 -0.0013
10499TIP3   OH252911   6.498   2.677   3.884 -1.1595 -0.0448  0.1265
10499TIP3    H152912   6.535   2.625   3.955  0.0017  1.2968  0.5545
10499TIP3    H252913   6.534   2.637   3.804 -0.1420  0.2026  0.4540
10500TIP3   OH252914   1.005   3.051   5.598 -0.1407 -0.0844  0.0869
10500TIP3    H152915   1.077   2.989   5.607  0.0321  0.4015  3.0884
10500TIP3    H252916   0.939   3.020   5.661 -0.4527  2.1790  0.9651
10501TIP3   OH252917   3.415   0.884   3.531  0.0388  0.5221  0.3550
10501TIP3    H152918   3.471   0.957   3.505  0.9229 -0.0159  0.7067
10501TIP3    H252919   3.383   0.908   3.618 -1.7873  1.6706 -0.5723
10502TIP3   OH252920   3.867   5.059  12.058  0.3615 -0.0044 -0.2158
10502TIP3    H152921   3.929   4.987  12.044  1.6186  0.4831  2.2635
10502TIP3    H252922   3.786   5.029  12.017  1.3406 -2.0624 -0.7946
10503TIP3   OH252923   4.487   3.050  15.879  0.0137 -0.2139 -0.0449
10503TIP3    H152924   4.461   2.994  15.806 -1.3651 -0.0705  0.3176
10503TIP3    H252925   4.405   3.082  15.916  0.5486 -1.5459  2.5758
10504TIP3   OH252926   2.552   4.930   2.169  0.3907  0.1097  0.3426
10504TIP3    H152927   2.504   4.920   2.087  1.1569 -2.2576  0.0952
10504TIP3    H252928   2.495   4.892   2.235  1.0046 -0.7632  0.3876
10505TIP3   OH252929   2.382   2.669  13.567 -0.5552  0.4047  0.0512
10505TIP3    H152930   2.410   2.624  13.487 -0.3582  0.9335 -0.1854
10505TIP3    H252931   2.413   2.613  13.638  3.3964  2.0900 -0.0862
10506TIP3   OH252932   2.176   5.096  15.667 -0.4007  0.3023 -0.4585
10506TIP3    H152933   2.213   5.173  15.710  0.8830  1.0548 -2.7119
10506TIP3    H252934   2.107   5.133  15.610 -0.5716 -0.3498 -0.6784
10507TIP3   OH252935   6.401   5.037  13.649  0.3289 -0.5119  0.3373
10507TIP3    H152936   6.458   5.015  13.575  0.0093 -0.6246  0.1225
10507TIP3    H252937   6.435   5.121  13.681  0.1315 -0.1914 -0.2827
10508TIP3   OH252938   1.171   5.271   5.726 -0.2873 -0.2613 -0.5377
10508TIP3    H152939   1.159   5.223   5.807 -1.4146 -0.4998 -0.8277
10508TIP3    H252940   1.181   5.203   5.659  2.4057 -0.1056 -0.4281
10509TIP3   OH252941   3.118   3.497   3.323 -0.0078  0.3717  0.0030
10509TIP3    H152942   3.127   3.544   3.405 -2.2630  1.2270 -0.1729
10509TIP3    H252943   3.024   3.481   3.315  0.2089 -0.0781 -2.1876
10510TIP3   OH252944   0.765   6.699  16.897 -1.2137  0.3001  0.4618
10510TIP3    H152945   0.715   6.723  16.976 -0.8841  3.0733 -0.0713
10510TIP3    H252946   0.845   6.750  16.903 -0.2702 -0.9795 -0.7225
10511TIP3   OH252947   0.074   4.999   3.290  0.3189 -0.0694  0.6125
10511TIP3    H152948   0.145   5.063   3.297 -1.5591  2.1893  0.3118
10511TIP3    H252949   0.071   4.956   3.375  0.5698  1.5106  1.4485
10512TIP3   OH252950   1.663   5.183  14.792  0.1238  0.5482  0.2641
10512TIP3    H152951   1.657   5.263  14.740  1.0695  0.9818  0.8037
10512TIP3    H252952   1.739   5.196  14.848  1.7492 -1.6306 -1.2443
10513TIP3   OH252953   4.648   2.803   2.129  0.0098  0.4215 -0.2324
10513TIP3    H152954   4.695   2.721   2.148  0.3612  0.3507 -1.3193
10513TIP3    H252955   4.702   2.871   2.168  0.9737  0.3239 -1.3082
10514TIP3   OH252956   5.524   5.001   5.606 -0.2909  0.0956 -0.6802
10514TIP3    H152957   5.499   5.090   5.633 -0.2200  0.0710 -0.5318
10514TIP3    H252958   5.445   4.965   5.567 -0.5175 -0.0182 -0.1242
10515TIP3   OH252959   0.845   4.407   5.090  0.0011 -0.4864  0.4967
10515TIP3    H152960   0.837   4.335   5.027  0.4039 -0.1521  0.0540
10515TIP3    H252961   0.846   4.364   5.176  1.7551 -1.1512  0.1865
10516TIP3   OH252962   2.443   0.460  15.678  0.0671 -0.1933  0.1231
10516TIP3    H152963   2.532   0.485  15.654  0.0426 -1.2016 -1.1546
10516TIP3    H252964   2.397   0.543  15.690  1.2392  0.3447  1.0867
10517TIP3   OH252965   4.752   2.084  13.484 -0.4737  0.6548 -0.3958
10517TIP3    H152966   4.728   2.090  13.392  2.6266 -0.8226 -1.4514
10517TIP3    H252967   4.824   2.146  13.494  2.0746 -2.0713 -0.2157
10518TIP3   OH252968   0.507   3.194   0.312 -0.9725  0.1366  0.1867
10518TIP3    H152969   0.506   3.261   0.381 -0.7111 -0.9293  1.2579
10518TIP3    H252970   0.523   3.112   0.358  1.4833 -0.3637 -1.3825
10519TIP3   OH252971   2.698   3.639  16.233 -0.9343 -0.3235  0.0723
10519TIP3    H152972   2.749   3.582  16.176 -0.4982  0.0472  0.0861
10519TIP3    H252973   2.636   3.682  16.174  1.4682  2.3483 -0.7371
10520TIP3   OH252974   0.691   1.963   1.323 -0.0660  1.0772 -0.4110
10520TIP3    H152975   0.629   1.904   1.365  0.0418  1.4590  0.3211
10520TIP3    H252976   0.654   1.981   1.237  0.3610 -0.7519 -1.0043
10521TIP3   OH252977   4.128   3.904   6.059 -0.0017 -0.7095 -0.3505
10521TIP3    H152978   4.169   3.968   6.000  1.1400 -1.4381 -0.3771
10521TIP3    H252979   4.201   3.856   6.097 -0.8048 -1.4029  0.3648
10522TIP3   OH252980   2.284   0.704   3.183  0.0418  0.6533  0.5187
10522TIP3    H152981   2.255   0.746   3.263 -0.1116 -0.3734  1.0146
10522TIP3    H252982   2.248   0.759   3.112 -1.7143  0.3256  1.1205
10523TIP3   OH252983   0.039   4.668  10.554 -0.0974 -0.0763  0.2290
10523TIP3    H152984   0.082   4.746  10.519  0.1003 -0.1209  0.3710
10523TIP3    H252985  -0.031   4.649  10.492  1.4438 -1.3139 -1.1941
10524TIP3   OH252986   6.622   6.261  13.508 -0.6887  0.5499  0.9668
10524TIP3    H152987   6.589   6.327  13.448 -1.8347 -0.0007  0.9729
10524TIP3    H252988   6.563   6.187  13.498  1.0722 -0.8530  0.3010
10525TIP3   OH252989   6.708   6.149   1.158 -0.5089 -0.1360 -0.3085
10525TIP3    H152990   6.642   6.081   1.149  0.4656 -0.8681 -2.5905
10525TIP3    H252991   6.776   6.126   1.095  0.3671  2.3944 -0.4302
10526TIP3   OH252992   4.159   4.944   1.160  0.4042  0.6537 -0.2608
10526TIP3    H152993   4.109   4.999   1.098 -0.3465 -0.2488 -0.4896
10526TIP3    H252994   4.224   4.900   1.105 -1.0795 -1.1358 -0.7270
10527TIP3   OH252995   3.831   5.572   1.424  0.1450  0.1980  0.3086
10527TIP3    H152996   3.822   5.667   1.434  2.9935  0.5971  0.0522
10527TIP3    H252997   3.858   5.560   1.333 -2.9526 -1.2186 -0.5503
10528TIP3   OH252998   6.289   4.506  12.060 -0.1743  0.7235 -0.0029
10528TIP3    H152999   6.244   4.472  11.983 -0.6318  0.7605  0.2430
10528TIP3    H253000   6.381   4.504  12.037 -0.3899  1.9619 -1.0426
10529TIP3   OH253001   5.058   1.186  15.554 -0.5917 -0.0692 -0.1312
10529TIP3    H153002   5.148   1.186  15.587 -0.3516  1.4069 -0.6969
10529TIP3    H253003   5.056   1.115  15.490 -0.0338 -0.5801  0.3999
10530TIP3   OH253004   4.681   3.824   3.027  0.2319 -0.5035  0.4059
10530TIP3    H153005   4.755   3.863   3.073 -0.0039 -0.8785  1.1143
10530TIP3    H253006   4.604   3.857   3.073  0.0361 -3.3272  2.3614
10531TIP3   OH253007   1.841   5.733  16.631 -0.0221  0.6024  0.2098
10531TIP3    H153008   1.829   5.639  16.643  0.8017 -0.3176 -4.5232
10531TIP3    H253009   1.927   5.751  16.668 -0.6159 -0.1799  2.1095
10532TIP3   OH253010   1.122   1.639  15.211  0.3780  0.3199 -0.1929
10532TIP3    H153011   1.131   1.734  15.218  2.2642  0.1091  0.7147
10532TIP3    H253012   1.114   1.623  15.117  2.1933  1.2418 -0.5401
10533TIP3   OH253013   6.666   0.364   6.621  0.7128  0.4023 -0.3759
10533TIP3    H153014   6.701   0.443   6.661 -0.2947  1.0408 -0.7280
10533TIP3    H253015   6.621   0.394   6.542 -0.0501 -0.4565 -0.2871
10534TIP3   OH253016   2.491   3.388  11.982 -0.2554 -0.3873  0.1521
10534TIP3    H153017   2.468   3.306  12.026 -2.8756 -0.3303 -0.9064
10534TIP3    H253018   2.438   3.388  11.902 -0.2285  2.2506  0.0403
10535TIP3   OH253019   4.978   3.327   0.778 -0.2206 -0.2687 -0.3860
10535TIP3    H153020   4.940   3.323   0.866  2.3451 -0.9225  0.8003
10535TIP3    H253021   4.962   3.240   0.742  0.1996 -0.5739  0.1430
10536TIP3   OH253022   5.045   0.576  16.040  0.4680  0.5501  0.0424
10536TIP3    H153023   4.990   0.583  15.963  1.1264 -2.8855 -0.9340
10536TIP3    H253024   4.988   0.600  16.113 -0.7482  1.9885 -1.3218
10537TIP3   OH253025   1.381   3.222   4.650  0.5096 -0.1003  0.7082
10537TIP3    H153026   1.423   3.303   4.680  1.1143 -0.2352  0.2378
10537TIP3    H253027   1.322   3.250   4.581  2.4672 -0.3048 -1.1471
10538TIP3   OH253028   4.924   1.584  12.132  0.1134 -0.0602 -0.3264
10538TIP3    H153029   4.936   1.493  12.160 -2.1675 -0.3495 -0.0763
10538TIP3    H253030   5.011   1.624  12.141  1.2253 -2.2403 -0.6508
10539TIP3   OH253031   5.469   2.132  11.980 -0.1768  0.2626 -0.0156
10539TIP3    H153032   5.547   2.167  11.935 -1.4713  2.0615 -0.9753
10539TIP3    H253033   5.473   2.171  12.067  0.2569 -0.0479  0.1069
10540TIP3   OH253034   1.597   6.209  11.163  0.5718 -0.2183 -0.2580
10540TIP3    H153035   1.526   6.260  11.122  0.2160 -0.0577  0.5509
10540TIP3    H253036   1.658   6.193  11.091  0.7020  1.3655 -0.5531
10541TIP3   OH253037   1.257   1.414  14.530 -0.2094 -0.1307 -0.0044
10541TIP3    H153038   1.184   1.401  14.590  0.1877 -0.1227  0.4913
10541TIP3    H253039   1.318   1.469  14.579  0.4229 -0.6781 -0.1623
10542TIP3   OH253040   3.113   0.727  14.400  0.8443  0.6584  0.1120
10542TIP3    H153041   3.132   0.642  14.361  0.5500  0.1151  1.1289
10542TIP3    H253042   3.088   0.707  14.490  0.8484  1.8281  0.3854
10543TIP3   OH253043   3.967   4.316  13.623  0.3589  0.1193 -0.3758
10543TIP3    H153044   3.979   4.364  13.541 -0.6970  0.9353 -0.0581
10543TIP3    H253045   3.886   4.350  13.660  0.8829 -0.1495  1.0836
10544TIP3   OH253046   3.609   2.331   1.976 -0.0018  0.0036  0.0362
10544TIP3    H153047   3.691   2.371   1.946 -0.2730  0.6517  0.1388
10544TIP3    H253048   3.578   2.281   1.901  2.6716 -3.9492  1.2294
10545TIP3   OH253049   1.077   5.756   4.433 -0.2612 -0.3595 -0.0923
10545TIP3    H153050   1.029   5.683   4.471 -0.2196 -0.5584 -0.4172
10545TIP3    H253051   1.140   5.782   4.501  0.1459 -1.0251 -0.2029
10546TIP3   OH253052   6.437   1.921  15.140  0.6674  0.3840 -0.0768
10546TIP3    H153053   6.346   1.902  15.118  1.0837 -1.7522 -0.1140
10546TIP3    H253054   6.431   1.985  15.211 -0.9945 -1.9863  2.0824
10547TIP3   OH253055   5.637   1.408   4.109 -0.1444  0.1961  0.0964
10547TIP3    H153056   5.698   1.419   4.036  0.1386 -0.2106  0.2626
10547TIP3    H253057   5.664   1.325   4.150  0.4763  1.0034  1.3894
10548TIP3   OH253058   0.189   4.535  11.974 -0.2302  0.4184  0.0493
10548TIP3    H153059   0.240   4.455  11.989 -0.2386  0.4515  0.2628
10548TIP3    H253060   0.191   4.581  12.058 -1.5318 -0.1121  0.3953
10549TIP3   OH253061   6.153   6.709  11.659  0.2574  0.5232  0.5377
10549TIP3    H153062   6.182   6.675  11.743 -0.2996 -1.0441  0.1413
10549TIP3    H253063   6.059   6.725  11.671  0.1882  0.3520  0.2568
10550TIP3   OH253064   0.316   0.180   5.972 -0.1583 -0.0530  0.2211
10550TIP3    H153065   0.298   0.252   5.912  1.3151  0.6808  0.6161
10550TIP3    H253066   0.314   0.220   6.059  2.3710 -0.0324  0.3608
10551TIP3   OH253067   3.027   5.394   0.182  0.0857  0.3740  0.6072
10551TIP3    H153068   2.951   5.413   0.238  1.3442 -0.9506  2.9224
10551TIP3    H253069   3.016   5.451   0.106 -2.9131  0.6304  1.1100
10552TIP3   OH253070   1.943   4.643   0.473 -0.5589 -0.3559  0.2905
10552TIP3    H153071   1.930   4.639   0.567  0.4336  0.0582  0.4593
10552TIP3    H253072   2.030   4.606   0.459 -0.0495  0.9760 -0.2869
10553TIP3   OH253073   6.020   5.752  17.213  0.4434 -0.3837 -0.7356
10553TIP3    H153074   6.037   5.684  17.148  1.3108 -0.3448 -0.5681
10553TIP3    H253075   5.946   5.801  17.178 -0.7797 -1.9382 -0.4277
10554TIP3   OH253076   3.013   1.662  11.214  0.1265  0.7868  0.6504
10554TIP3    H153077   3.029   1.721  11.140  2.2783 -0.1520  0.3074
10554TIP3    H253078   2.987   1.579  11.174 -1.2795  0.9997  1.0754
10555TIP3   OH253079   4.305   5.990  14.497  0.2759  0.1821 -0.3311
10555TIP3    H153080   4.398   5.974  14.514 -0.2504 -1.8797  0.9933
10555TIP3    H253081   4.300   6.011  14.404  1.9758 -0.6938 -0.6564
10556TIP3   OH253082   3.866   1.047  14.307  0.1565 -0.1968 -0.2113
10556TIP3    H153083   3.836   0.965  14.269 -2.7347  1.7011 -2.5026
10556TIP3    H253084   3.935   1.078  14.249 -0.1832 -0.0709 -0.5527
10557TIP3   OH253085   5.786   4.775  12.091  0.7377  0.9023  0.0807
10557TIP3    H153086   5.752   4.793  12.004  1.6985  0.1208 -0.4774
10557TIP3    H253087   5.878   4.751  12.076  0.7659  0.2143  1.2432
10558TIP3   OH253088   4.294   0.229  16.689  0.2615 -0.1473  0.3513
10558TIP3    H153089   4.202   0.207  16.681  0.4987 -0.6034 -1.9017
10558TIP3    H253090   4.340   0.145  16.685  0.8772  0.2277 -1.8342
10559TIP3   OH253091   2.993   4.698   4.012  0.1893  0.2576  0.0016
10559TIP3    H153092   2.972   4.645   4.089  1.4458  0.2993  0.3922
10559TIP3    H253093   3.078   4.738   4.032 -0.3840  1.8728 -0.5679
10560TIP3   OH253094   6.693   0.973  14.003  0.4957  0.0301  1.0403
10560TIP3    H153095   6.717   0.931  13.921 -0.0406  0.4831  0.6509
10560TIP3    H253096   6.616   0.926  14.033  0.3223  0.2679  0.9700
10561TIP3   OH253097   3.864   2.660  12.860 -0.2015 -0.3906 -0.3732
10561TIP3    H153098   3.781   2.697  12.829  0.5809  0.7897 -1.1411
10561TIP3    H253099   3.843   2.570  12.882 -1.2748 -0.7127 -2.4375
10562TIP3   OH253100   1.955   6.346   3.347 -0.2996 -0.3388  0.4695
10562TIP3    H153101   2.007   6.283   3.397  0.4166  0.3376  0.5821
10562TIP3    H253102   1.949   6.423   3.403  2.5719  1.3675 -1.3763
10563TIP3   OH253103   5.061   4.934   5.084  0.7447 -0.1107  0.4995
10563TIP3    H153104   5.139   4.918   5.032  0.5346  0.1340  0.1020
10563TIP3    H253105   5.092   4.983   5.160  0.9744  0.0124  0.3272
10564TIP3   OH253106   2.326   2.167   1.743  0.0925  0.0948 -0.4839
10564TIP3    H153107   2.370   2.170   1.658  0.6751  0.6717 -0.1708
10564TIP3    H253108   2.313   2.074   1.760  1.0798 -0.0837 -0.6486
10565TIP3   OH253109   6.351   3.808  11.540  0.0867 -0.5109 -0.0091
10565TIP3    H153110   6.427   3.851  11.579  0.1692 -0.8027  0.1521
10565TIP3    H253111   6.299   3.880  11.505  0.4350 -0.3099 -0.1208
10566TIP3   OH253112   3.834   2.653  13.267 -0.2255  0.8236 -0.1167
10566TIP3    H153113   3.816   2.638  13.360  0.3148 -1.7913 -0.3500
10566TIP3    H253114   3.748   2.672  13.229 -1.1234 -1.8646  0.3565
10567TIP3   OH253115   0.184   1.706  14.468 -0.3601 -0.2664 -0.2727
10567TIP3    H153116   0.210   1.617  14.445  1.9394  0.1908  0.2094
10567TIP3    H253117   0.176   1.704  14.563  1.3899  0.3578 -0.0672
10568TIP3   OH253118   3.826   0.017  14.766 -0.4365 -0.4786 -0.1526
10568TIP3    H153119   3.740  -0.008  14.731 -0.7536 -1.1615  1.0718
10568TIP3    H253120   3.807   0.084  14.832 -0.5008 -3.3346  2.9609
10569TIP3   OH253121   3.970   5.327  11.468  0.0332 -0.6816  0.2878
10569TIP3    H153122   3.917   5.297  11.541 -0.9952 -0.0105 -0.1453
10569TIP3    H253123   4.060   5.326  11.500 -0.6411  3.3333  2.9898
10570TIP3   OH253124   0.777   6.704   5.691  0.0229  0.8493 -0.1742
10570TIP3    H153125   0.758   6.761   5.616 -0.2681  0.4360 -0.4136
10570TIP3    H253126   0.705   6.720   5.752  0.6275  1.7147  0.3333
10571TIP3   OH253127   0.892   0.138   1.459  0.4372  0.6088 -0.4601
10571TIP3    H153128   0.958   0.145   1.529 -0.6798 -0.4296  0.7580
10571TIP3    H253129   0.936   0.171   1.381  2.3629  0.0213  0.3256
10572TIP3   OH253130   1.164   4.147   1.011 -0.0966 -0.1413 -0.1323
10572TIP3    H153131   1.252   4.185   1.010 -0.3683  0.5034 -0.2382
10572TIP3    H253132   1.162   4.087   0.936 -0.2807  1.1143 -1.1733
10573TIP3   OH253133   5.786   5.716  14.548  0.5318 -0.0976 -0.4177
10573TIP3    H153134   5.809   5.624  14.536  0.9189  0.0790 -1.1133
10573TIP3    H253135   5.696   5.715  14.580  0.7677 -0.7358  0.2464
10574TIP3   OH253136   3.851   4.578   1.244 -0.0313 -0.2059 -0.5319
10574TIP3    H153137   3.907   4.501   1.255 -0.3518 -0.5333 -1.1309
10574TIP3    H253138   3.762   4.542   1.243 -0.6051  0.5638  3.6053
10575TIP3   OH253139   5.844   2.663  17.098  0.4692  0.3078  0.6693
10575TIP3    H153140   5.938   2.684  17.091  0.6821 -0.9523 -0.7490
10575TIP3    H253141   5.828   2.603  17.025 -1.6014  0.9988  0.5171
10576TIP3   OH253142   3.902   5.508   4.042 -0.2642 -0.5028  0.2301
10576TIP3    H153143   3.926   5.568   3.971 -2.4081 -0.1444 -0.2602
10576TIP3    H253144   3.843   5.558   4.098  0.4781 -1.1525  1.6649
10577TIP3   OH253145   0.538   5.611  12.828 -0.5422  0.7501  0.3477
10577TIP3    H153146   0.500   5.534  12.869 -0.8343  1.7305  1.9935
10577TIP3    H253147   0.483   5.684  12.857 -1.2880  1.4538 -2.4827
10578TIP3   OH253148   2.925   4.667   5.339  0.2582  0.0579 -0.2876
10578TIP3    H153149   2.865   4.699   5.406 -0.3429  1.3617 -1.3967
10578TIP3    H253150   3.010   4.662   5.383  0.0849  1.8847  0.3307
10579TIP3   OH253151   1.009   4.302  14.753 -0.3947  0.4734 -0.1233
10579TIP3    H153152   1.053   4.296  14.838 -1.7270  0.0435  0.5777
10579TIP3    H253153   0.929   4.352  14.772 -1.8797 -1.6030 -0.5848
10580TIP3   OH253154   2.216   2.771  11.460  0.5863 -0.2303 -0.0867
10580TIP3    H153155   2.245   2.836  11.524 -1.0523 -0.7989  1.3168
10580TIP3    H253156   2.158   2.818  11.401  2.7989  0.5046 -1.8130
10581TIP3   OH253157   6.289   0.649   3.004  0.3091 -0.0231 -0.3979
10581TIP3    H153158   6.268   0.733   3.046 -0.2141 -0.5788  0.4835
10581TIP3    H253159   6.313   0.591   3.077 -0.4892 -0.9713 -0.8663
10582TIP3   OH253160   4.846   3.425   5.133  0.4057 -0.0631 -0.0928
10582TIP3    H153161   4.863   3.340   5.173  0.2326 -0.3273 -0.5764
10582TIP3    H253162   4.870   3.489   5.201 -1.2700 -0.5198  0.9940
10583TIP3   OH253163   4.190   4.825  16.743  0.3377  0.3994 -0.5398
10583TIP3    H153164   4.141   4.893  16.697  0.0918  0.5540 -0.0458
10583TIP3    H253165   4.207   4.758  16.676  1.0319  1.1815 -1.1576
10584TIP3   OH253166   5.826   5.460   6.237 -0.2101  0.0696 -0.0906
10584TIP3    H153167   5.798   5.494   6.152 -0.3699  1.6538  0.5551
10584TIP3    H253168   5.905   5.410   6.218  0.0228  0.7865 -1.1316
10585TIP3   OH253169   0.320   2.846   3.098  0.1955 -0.3558  0.6913
10585TIP3    H153170   0.231   2.835   3.132  0.2708 -0.9725  0.7061
10585TIP3    H253171   0.357   2.917   3.151 -0.5166  0.3845  0.2103
10586TIP3   OH253172   4.130   2.634   2.695 -0.2995  0.5337 -0.8792
10586TIP3    H153173   4.225   2.630   2.703 -0.3396 -1.9392 -0.9956
10586TIP3    H253174   4.102   2.687   2.770  1.1267  1.0233 -0.6642
10587TIP3   OH253175   1.002   0.991  16.059  0.8023  0.0145 -0.2315
10587TIP3    H153176   1.015   1.003  15.965  0.6602 -1.0294 -0.4014
10587TIP3    H253177   0.955   0.908  16.066  0.9647 -0.0068  0.7715
10588TIP3   OH253178   1.963   6.749   0.106 -0.0130 -0.0178  0.1098
10588TIP3    H153179   1.998   6.832   0.073 -1.3564  1.1995  1.5450
10588TIP3    H253180   1.931   6.704   0.028 -2.1810  2.3013 -0.4812
10589TIP3   OH253181   3.545   5.690   6.088  0.8855 -0.1937 -0.0828
10589TIP3    H153182   3.511   5.701   6.000  1.7620  3.1472 -0.1515
10589TIP3    H253183   3.468   5.700   6.145  0.4580 -1.5281 -0.3869
10590TIP3   OH253184   2.970   5.574   3.982  0.0426 -0.1443 -1.2418
10590TIP3    H153185   2.880   5.600   4.002  0.7890  1.4166  0.3362
10590TIP3    H253186   2.997   5.634   3.913  0.5310  0.7949 -0.2528
10591TIP3   OH253187   0.444   6.356  11.267  0.2954  0.8471 -0.0413
10591TIP3    H153188   0.475   6.356  11.177 -0.6092 -0.0900 -0.3748
10591TIP3    H253189   0.349   6.365  11.260  0.3380  2.4500  0.8982
10592TIP3   OH253190   5.709   0.107   3.353 -0.6940  0.4084  0.0585
10592TIP3    H153191   5.800   0.134   3.338 -0.8447  1.0982  0.3612
10592TIP3    H253192   5.713   0.054   3.432 -0.5509  0.4376  0.0716
10593TIP3   OH253193   4.550   5.050   5.878  0.0990  0.7285  0.0638
10593TIP3    H153194   4.508   5.057   5.964 -0.6715  1.9864 -0.3927
10593TIP3    H253195   4.485   5.007   5.823  0.7547 -0.4644  0.2012
10594TIP3   OH253196   2.653   2.437  15.247  0.0963  0.4574 -0.0097
10594TIP3    H153197   2.710   2.504  15.209 -1.0268  0.6942 -1.3669
10594TIP3    H253198   2.608   2.482  15.318  1.8320  0.1569  1.3534
10595TIP3   OH253199   0.382   1.832   4.647  0.4956 -0.0404 -0.3211
10595TIP3    H153200   0.443   1.812   4.576  0.4036 -0.5923 -0.2492
10595TIP3    H253201   0.398   1.924   4.668  1.1984 -0.1412 -0.4056
10596TIP3   OH253202   3.449   0.214   2.963 -0.0400  0.1015 -0.3589
10596TIP3    H153203   3.475   0.241   3.051  0.8122  3.3894 -1.4533
10596TIP3    H253204   3.413   0.294   2.923 -1.4194 -1.5357 -2.6573
10597TIP3   OH253205   5.162   0.804   1.367  0.1119 -0.0750 -0.2482
10597TIP3    H153206   5.100   0.803   1.294  1.8451 -3.5580 -1.9455
10597TIP3    H253207   5.139   0.727   1.419 -0.1621  1.5297  2.1598
10598TIP3   OH253208   4.116   2.712  13.769 -0.2034 -0.1795  0.3356
10598TIP3    H153209   4.128   2.618  13.772  0.5575 -0.0990  0.0419
10598TIP3    H253210   4.045   2.725  13.705  0.1849 -0.5175 -0.1735
10599TIP3   OH253211   4.926   5.467   6.714  0.1805  0.6263 -0.1424
10599TIP3    H153212   4.987   5.397   6.739  2.1535  1.7843 -1.4703
10599TIP3    H253213   4.841   5.437   6.747  1.2415 -1.5910  0.7994
10600TIP3   OH253214   2.036   1.022  14.456  0.3274  0.3442 -0.0015
10600TIP3    H153215   2.126   1.055  14.451  0.4815  0.0996  0.8894
10600TIP3    H253216   2.020   0.981  14.371  1.3324 -0.2735  0.0904
10601TIP3   OH253217   2.561   5.602  12.328 -1.1517  0.5487  0.3695
10601TIP3    H153218   2.532   5.682  12.373  1.2216  1.0640  1.1166
10601TIP3    H253219   2.491   5.539  12.346 -2.2501  1.9409  1.2707
10602TIP3   OH253220   3.959   5.320   5.123  0.2539 -0.1336  0.1221
10602TIP3    H153221   3.924   5.403   5.090  0.7246  0.3667  0.8487
10602TIP3    H253222   3.947   5.325   5.218 -0.2961 -1.1757  0.1197
10603TIP3   OH253223   5.986   6.452   3.271 -0.0116 -0.5286 -0.0064
10603TIP3    H153224   6.015   6.361   3.279 -1.4196 -0.8982  1.2012
10603TIP3    H253225   6.048   6.502   3.324 -1.0454 -1.2131  1.9271
10604TIP3   OH253226   6.601   5.565  11.645  0.3971 -0.1318  0.2419
10604TIP3    H153227   6.570   5.475  11.634  2.3712 -0.6595 -1.6104
10604TIP3    H253228   6.648   5.564  11.728 -1.3165 -0.2337  1.2544
10605TIP3   OH253229   4.991   2.752  11.196 -0.3278  0.3114  0.1419
10605TIP3    H153230   5.077   2.740  11.155  0.1655  1.0070  0.9244
10605TIP3    H253231   4.999   2.835  11.245 -1.6311  0.6849 -0.2330
10606TIP3   OH253232   1.031   2.170   1.236 -0.1775  0.0605  0.3952
10606TIP3    H153233   1.078   2.118   1.301 -0.4872  1.3708  1.7464
10606TIP3    H253234   1.013   2.110   1.164  1.5830 -1.0348  0.8202
10607TIP3   OH253235   4.443   1.051   5.676  0.0299 -0.0156  0.4748
10607TIP3    H153236   4.398   1.113   5.733  0.9657  1.6758 -0.5585
10607TIP3    H253237   4.416   0.965   5.709 -1.1813  0.9071  2.0503
10608TIP3   OH253238   3.407   4.726  16.471  0.0806 -0.1974  0.2960
10608TIP3    H153239   3.334   4.723  16.533 -0.3605  0.9738 -0.1379
10608TIP3    H253240   3.368   4.703  16.387  0.0332  1.1401 -0.0686
10609TIP3   OH253241   3.240   2.684  15.369  0.1881 -0.2000 -0.2157
10609TIP3    H153242   3.264   2.621  15.302 -1.2129 -0.3740 -0.5795
10609TIP3    H253243   3.284   2.765  15.342 -0.1968 -0.3174 -1.2496
10610TIP3   OH253244   2.364   2.655   0.940  0.3823 -0.0427  0.3948
10610TIP3    H153245   2.386   2.574   0.895  1.9576 -0.1878  1.3393
10610TIP3    H253246   2.429   2.718   0.910  0.2005  0.4088  0.9154
10611TIP3   OH253247   5.114   6.131  13.307 -0.2794 -0.6989  0.2828
10611TIP3    H153248   5.057   6.125  13.383 -1.1332 -0.7548 -0.3425
10611TIP3    H253249   5.137   6.040  13.288 -1.2757 -0.8247 -0.3994
10612TIP3   OH253250   3.043   5.046   6.162 -0.9488  0.5906  0.6170
10612TIP3    H153251   3.021   4.963   6.120 -1.4482  0.6198  0.8100
10612TIP3    H253252   2.992   5.046   6.243 -0.8619  1.0320  0.6771
10613TIP3   OH253253   4.024   3.392  14.585  0.0339  0.4745 -0.2494
10613TIP3    H153254   4.114   3.373  14.560 -0.3875 -0.9452 -0.7576
10613TIP3    H253255   3.970   3.343  14.522 -1.0755 -0.7844  1.6056
10614TIP3   OH253256   6.150   1.129  11.646  0.2763  0.2040 -0.0484
10614TIP3    H153257   6.134   1.149  11.554 -0.1404  0.8897  0.1707
10614TIP3    H253258   6.148   1.214  11.690  3.7760  0.3470  0.1229
10615TIP3   OH253259   3.351   5.110  15.010  0.2254 -0.8860 -0.7119
10615TIP3    H153260   3.379   5.110  15.102  1.1865  0.3539 -0.9743
10615TIP3    H253261   3.431   5.091  14.961  0.3153  0.9977 -1.3896
10616TIP3   OH253262   5.829   0.316   5.661 -0.6534  0.3459 -0.1404
10616TIP3    H153263   5.734   0.312   5.676 -0.8045  0.6112 -0.9435
10616TIP3    H253264   5.844   0.405   5.627 -0.3073 -0.0943 -1.1819
10617TIP3   OH253265   4.018   6.401   2.048  0.0234 -0.2553  0.0556
10617TIP3    H153266   3.945   6.386   1.988  0.8735 -0.8744 -0.8470
10617TIP3    H253267   4.015   6.495   2.066 -2.0549 -0.5304  1.4570
10618TIP3   OH253268   3.490   0.504   1.788  0.5994 -0.8627 -0.0269
10618TIP3    H153269   3.443   0.533   1.866  1.0214 -1.2222  0.3702
10618TIP3    H253270   3.422   0.486   1.724  0.2984  0.3940 -0.0803
10619TIP3   OH253271   3.942   1.722   4.162 -0.6169 -0.2616 -0.2266
10619TIP3    H153272   3.981   1.657   4.104 -1.8174 -2.2679  1.0735
10619TIP3    H253273   3.878   1.768   4.107  0.7008  0.3191 -1.3321
10620TIP3   OH253274   1.267   6.119  12.817  0.0949 -0.5440 -0.2861
10620TIP3    H153275   1.285   6.205  12.855  0.9152 -1.5718  1.7567
10620TIP3    H253276   1.345   6.067  12.835 -1.1116 -2.2826  0.1943
10621TIP3   OH253277   3.950   6.733  10.758  0.4800  0.6104  0.1659
10621TIP3    H153278   3.916   6.644  10.759  1.2601  0.3123  1.1012
10621TIP3    H253279   3.957   6.758  10.850  4.3360 -0.0024  0.1995
10622TIP3   OH253280   3.354   1.185  15.979 -0.2834  0.1653 -0.2777
10622TIP3    H153281   3.377   1.148  16.064  1.3536  0.1610 -0.6844
10622TIP3    H253282   3.387   1.275  15.982 -1.7591  0.7358 -0.3020
10623TIP3   OH253283   3.206   5.210   3.630  0.7280 -0.2855  0.2136
10623TIP3    H153284   3.248   5.268   3.694  0.6167 -0.0277  0.0541
10623TIP3    H253285   3.195   5.264   3.552  1.7010 -0.8687 -0.3467
10624TIP3   OH253286   4.753   6.454   1.821  0.2375 -0.4379  0.3937
10624TIP3    H153287   4.693   6.389   1.857  1.4995 -1.5478  0.5455
10624TIP3    H253288   4.799   6.408   1.751 -0.2769  0.9035 -0.8806
10625TIP3   OH253289   3.920   6.164   0.190  0.6871  0.3339  0.3267
10625TIP3    H153290   4.005   6.126   0.167 -0.2597 -0.8217 -1.4916
10625TIP3    H253291   3.915   6.244   0.137  0.8676  0.6966  0.8550
10626TIP3   OH253292   6.469   5.626   0.717  0.7545  0.1736 -0.1329
10626TIP3    H153293   6.517   5.600   0.638 -0.2234  0.7419 -0.9449
10626TIP3    H253294   6.441   5.543   0.756  1.1363 -0.1158 -0.4668
10627TIP3   OH253295   2.609   1.884   4.950 -0.1931 -0.4810  0.2426
10627TIP3    H153296   2.695   1.866   4.988 -0.2078 -0.9522  0.0607
10627TIP3    H253297   2.565   1.800   4.950 -2.0847  0.3269  3.7788
10628TIP3   OH253298   4.941   2.516   4.470 -0.5191  0.1697 -0.9850
10628TIP3    H153299   4.939   2.557   4.556  0.6912 -0.7520 -0.4812
10628TIP3    H253300   4.878   2.565   4.418  0.7143  2.5632 -0.3791
10629TIP3   OH253301   3.058   4.730   6.330  0.2039 -0.1824 -0.0750
10629TIP3    H153302   2.977   4.779   6.336  0.6240  0.3817  2.3221
10629TIP3    H253303   3.037   4.655   6.275 -2.4393 -0.8832  1.6764
10630TIP3   OH253304   1.754   5.061   4.578  0.7009  0.1915  0.2332
10630TIP3    H153305   1.776   5.016   4.497  0.2750  0.6263 -0.1300
10630TIP3    H253306   1.817   5.027   4.643  0.9959 -0.2054 -0.2588
10631TIP3   OH253307   2.037   3.213  11.009 -0.5008  0.1675  0.0886
10631TIP3    H153308   2.109   3.250  10.957 -2.5498  1.8347 -1.7812
10631TIP3    H253309   2.046   3.118  10.997  0.6641  0.3885 -1.1275
10632TIP3   OH253310   4.648   0.577   2.832 -0.1642  0.3413 -0.0293
10632TIP3    H153311   4.679   0.488   2.820 -0.2500  0.4246 -0.9756
10632TIP3    H253312   4.603   0.598   2.750  1.0698  1.7465 -0.3902
10633TIP3   OH253313   6.607   6.448  14.814 -0.3139  0.0158 -0.4287
10633TIP3    H153314   6.636   6.489  14.733 -1.0118 -0.6433 -1.0376
10633TIP3    H253315   6.517   6.419  14.795 -0.0514 -1.2668  0.1474
10634TIP3   OH253316   0.168   6.295   4.101 -0.0525 -0.4733 -0.2817
10634TIP3    H153317   0.220   6.215   4.099  0.1863 -0.3754  1.0707
10634TIP3    H253318   0.095   6.275   4.160 -0.3390  0.0931 -0.4388
10635TIP3   OH253319   2.110   4.834  11.258 -0.4465  0.6589  0.0941
10635TIP3    H153320   2.078   4.924  11.256 -1.1885  0.5523  3.2270
10635TIP3    H253321   2.031   4.780  11.250 -0.5113  0.3617  2.3103
10636TIP3   OH253322   6.444   2.499   2.799  0.4051 -0.0217 -0.2555
10636TIP3    H153323   6.456   2.412   2.837 -0.4883  0.0482  0.2329
10636TIP3    H253324   6.434   2.484   2.705  0.1131 -0.4674 -0.1552
10637TIP3   OH253325   1.675   4.031   3.863  0.0151  0.3830 -0.0439
10637TIP3    H153326   1.655   4.107   3.809  0.2512  1.5887  1.4846
10637TIP3    H253327   1.753   4.057   3.914 -0.3130 -0.5922  1.0113
10638TIP3   OH253328   1.683   0.974  17.093  0.1648 -0.5183 -0.1761
10638TIP3    H153329   1.742   1.046  17.072  0.3861 -0.2334  1.2866
10638TIP3    H253330   1.668   0.929  17.010  1.6344  0.0095 -0.7496
10639TIP3   OH253331   6.293   2.694  11.097 -0.0030 -0.2052 -0.4340
10639TIP3    H153332   6.297   2.674  11.003  0.4064  0.3365 -0.5345
10639TIP3    H253333   6.362   2.758  11.111  0.0192 -0.3735  0.2666
10640TIP3   OH253334   6.294   0.156  11.583  0.4845  0.6293  0.7166
10640TIP3    H153335   6.267   0.164  11.492  0.2083  2.1537  0.9126
10640TIP3    H253336   6.249   0.078  11.615  0.2698  0.3172 -0.3328
10641TIP3   OH253337   1.938   0.257   1.426  0.3875 -0.4104 -0.4963
10641TIP3    H153338   1.939   0.257   1.330  1.7882 -1.3051 -0.5184
10641TIP3    H253339   2.020   0.299   1.451  0.5030 -1.0632  0.2813
10642TIP3   OH253340   6.025   2.703  11.451  0.0675 -0.1914  0.0487
10642TIP3    H153341   6.088   2.746  11.393  0.8014 -3.1219 -1.5709
10642TIP3    H253342   6.002   2.769  11.516  1.2340  2.4675 -2.0408
10643TIP3   OH253343   1.908   1.236  13.262 -0.4068 -0.1506  0.2617
10643TIP3    H153344   1.871   1.287  13.333  0.4322  2.0362 -0.7838
10643TIP3    H253345   1.980   1.188  13.303  0.2233  1.2579  0.8863
10644TIP3   OH253346   3.558   2.288  16.570 -0.0059  0.4328  0.2873
10644TIP3    H153347   3.649   2.308  16.593 -0.2930  0.8841  1.0801
10644TIP3    H253348   3.517   2.373  16.559  0.1131  0.2434 -2.0385
10645TIP3   OH253349   2.519   4.891   3.716  0.0995 -0.1713  0.5630
10645TIP3    H153350   2.463   4.853   3.648  1.8215 -0.5108 -0.7538
10645TIP3    H253351   2.607   4.863   3.692  0.9899  1.3859  1.8245
10646TIP3   OH253352   0.045   2.608  16.668 -0.0205 -0.4840  0.2405
10646TIP3    H153353   0.070   2.695  16.698 -2.0190  0.9988 -2.0275
10646TIP3    H253354   0.052   2.553  16.746 -1.1873  2.2388  2.4376
10647TIP3   OH253355   5.049   1.800   1.377 -0.0785 -0.7084  0.3597
10647TIP3    H153356   4.993   1.754   1.439 -0.9227 -0.3552 -0.1330
10647TIP3    H253357   5.043   1.749   1.296  0.2434 -0.6131  0.2713
10648TIP3   OH253358   6.456   2.472   4.072  0.1702  0.4344  0.2876
10648TIP3    H153359   6.426   2.383   4.091 -0.7723  0.6655 -0.0505
10648TIP3    H253360   6.430   2.523   4.149  2.8550 -0.0028  1.5954
10649TIP3   OH253361   3.583   4.801   2.268 -0.3240  0.2768 -0.0491
10649TIP3    H153362   3.624   4.809   2.181  0.6175 -0.2321  0.3341
10649TIP3    H253363   3.566   4.707   2.278 -1.7202  0.4983 -0.2501
10650TIP3   OH253364   1.909   2.373   2.313 -0.2026  0.0409 -0.2715
10650TIP3    H153365   1.837   2.364   2.375 -0.3826  0.1781 -0.4587
10650TIP3    H253366   1.964   2.443   2.350 -1.0433  1.1012 -0.9591
10651TIP3   OH253367   4.156   1.329   2.998 -0.2948 -0.0947 -0.0917
10651TIP3    H153368   4.243   1.296   3.018 -0.4343 -0.6681 -0.4094
10651TIP3    H253369   4.172   1.413   2.954  0.1672 -0.9099 -1.5415
10652TIP3   OH253370   3.449   2.860   6.237 -0.0847 -0.4991  0.1934
10652TIP3    H153371   3.398   2.779   6.230  0.3959 -0.9487  1.6149
10652TIP3    H253372   3.432   2.892   6.325  0.7591  0.2533  0.0995
10653TIP3   OH253373   4.307   5.464  11.308  0.0069  0.4009 -0.3281
10653TIP3    H153374   4.342   5.464  11.397 -2.1778  0.8586  0.6073
10653TIP3    H253375   4.372   5.511  11.256 -0.2424  3.3761  1.7786
10654TIP3   OH253376   6.737   2.937  15.447  0.3729  0.4624 -0.8093
10654TIP3    H153377   6.788   2.963  15.371 -0.9221  1.5374 -1.3678
10654TIP3    H253378   6.650   2.916  15.411 -0.3453  1.2747  0.3749
10655TIP3   OH253379   6.677   0.801  13.767  0.1765 -0.3432 -0.6955
10655TIP3    H153380   6.698   0.723  13.819 -1.6608  0.9050  2.2100
10655TIP3    H253381   6.735   0.796  13.691  0.0727 -4.5482 -0.7402
10656TIP3   OH253382   6.439   4.166   2.829  0.2437 -0.1964 -0.0888
10656TIP3    H153383   6.381   4.199   2.898 -1.1677 -2.1001 -0.3096
10656TIP3    H253384   6.473   4.245   2.787 -0.7522  0.9803  1.2242
10657TIP3   OH253385   3.489   6.388   0.207 -0.1309 -0.3286 -0.2512
10657TIP3    H153386   3.506   6.310   0.155  1.3762 -0.2655  0.0870
10657TIP3    H253387   3.438   6.445   0.149 -1.3168 -1.5632 -0.4689
10658TIP3   OH253388   2.092   0.255  14.087 -0.0561 -0.3427 -0.0343
10658TIP3    H153389   2.148   0.203  14.029 -1.4214 -1.8566 -0.0707
10658TIP3    H253390   2.018   0.198  14.106 -0.5546  0.8153  1.7285
10659TIP3   OH253391   5.183   4.862  12.801 -0.4396  0.2830  0.0737
10659TIP3    H153392   5.150   4.887  12.888  0.1916  0.7738  0.1827
10659TIP3    H253393   5.191   4.767  12.804 -1.8977  0.1308  0.0179
10660TIP3   OH253394   0.930   4.266  11.757  0.0335 -0.1700 -0.0731
10660TIP3    H153395   0.957   4.327  11.688  1.7654  0.4218  1.0600
10660TIP3    H253396   1.003   4.204  11.763 -1.6288 -2.4070 -1.1410
10661TIP3   OH253397   2.771   3.750   1.504 -0.0713  0.3384  0.1639
10661TIP3    H153398   2.816   3.825   1.541 -1.1987  0.3018  1.6921
10661TIP3    H253399   2.701   3.787   1.450 -1.6009  0.4836  2.1164
10662TIP3   OH253400   1.076   2.415  16.130  0.0509  0.2502 -0.3445
10662TIP3    H153401   1.168   2.399  16.106 -0.6502 -0.1631 -3.1050
10662TIP3    H253402   1.069   2.511  16.135  0.7401  0.2701  0.4650
10663TIP3   OH253403   3.198   2.251  15.722 -0.1151 -0.8457 -0.1910
10663TIP3    H153404   3.231   2.216  15.639  1.2487  0.8591 -0.4357
10663TIP3    H253405   3.260   2.220  15.787 -0.1590 -0.7138 -0.0866
10664TIP3   OH253406   3.279   5.405  14.369  0.2408 -0.5020 -0.1310
10664TIP3    H153407   3.319   5.490  14.348 -1.4752  0.3139 -0.2484
10664TIP3    H253408   3.191   5.410  14.331 -0.3099 -1.8815  0.8843
10665TIP3   OH253409   0.209   2.884  15.581 -0.2069  0.2252 -0.4260
10665TIP3    H153410   0.200   2.821  15.653  0.4837 -1.0738 -1.4201
10665TIP3    H253411   0.121   2.895  15.547 -0.3832  0.0428 -0.0300
10666TIP3   OH253412   2.396   5.317   3.075  0.0714  0.1356 -0.0508
10666TIP3    H153413   2.307   5.298   3.043  0.2188  0.5180 -0.7001
10666TIP3    H253414   2.414   5.247   3.138 -1.3050  0.9102  1.2912
10667TIP3   OH253415   5.456   6.630   2.811  0.5533 -0.0453  0.4312
10667TIP3    H153416   5.425   6.591   2.729  0.0250 -0.1457  0.6780
10667TIP3    H253417   5.534   6.579   2.834  0.4386 -0.3110  0.2293
10668TIP3   OH253418   4.843   3.488   1.906 -0.1830 -0.6208  0.2201
10668TIP3    H153419   4.765   3.519   1.952  0.1568 -0.0882  0.4541
10668TIP3    H253420   4.810   3.430   1.838 -0.8859  0.6274 -0.5450
10669TIP3   OH253421   1.501   2.872   4.237  0.1233 -0.0633  0.3112
10669TIP3    H153422   1.501   2.963   4.206 -0.4904 -0.3407 -0.5369
10669TIP3    H253423   1.412   2.858   4.269 -0.7901 -1.2911 -2.4684
10670TIP3   OH253424   2.279   5.484   3.309 -0.3520 -0.0608 -0.5747
10670TIP3    H153425   2.365   5.525   3.320 -0.2170 -0.6506  0.8029
10670TIP3    H253426   2.250   5.512   3.222  0.7948  0.9482 -0.6632
10671TIP3   OH253427   0.089   0.289   2.658  0.1660  0.2912 -0.1021
10671TIP3    H153428  -0.006   0.283   2.650  0.2788 -1.2613 -0.5787
10671TIP3    H253429   0.119   0.198   2.657  1.7753  0.7728 -1.5686
10672TIP3   OH253430   5.957   3.669   1.030  0.0421 -0.1824  0.0513
10672TIP3    H153431   6.046   3.678   1.065  0.1708 -1.6747  0.1870
10672TIP3    H253432   5.902   3.720   1.091  1.0750  3.3347 -1.7065
10673TIP3   OH253433   3.710   3.617  12.998 -0.0031 -0.2974  0.2192
10673TIP3    H153434   3.717   3.529  12.960 -1.4265 -0.3597  0.0246
10673TIP3    H253435   3.799   3.639  13.026  0.9457 -0.6751 -2.2142
10674TIP3   OH253436   4.782   3.823  11.698  0.1485 -0.6940 -0.2224
10674TIP3    H153437   4.744   3.738  11.718  0.3583 -0.7545 -0.0855
10674TIP3    H253438   4.836   3.845  11.774 -0.0322 -0.3646 -0.1851
10675TIP3   OH253439   0.345   5.778   2.010 -0.1967  0.0709  0.2181
10675TIP3    H153440   0.367   5.863   1.971  0.4784  0.1243  0.7030
10675TIP3    H253441   0.429   5.739   2.033 -0.5749  0.2196  1.9843
10676TIP3   OH253442   5.424   5.278   4.346 -0.1731 -0.2017  0.1270
10676TIP3    H153443   5.388   5.212   4.405  0.8299  0.0382  1.0380
10676TIP3    H253444   5.442   5.353   4.401  0.3932  0.1843 -0.5606
10677TIP3   OH253445   6.011   4.737  10.953 -0.1058 -0.1695  0.7989
10677TIP3    H153446   5.992   4.677  10.881 -0.4449 -0.9137  1.4892
10677TIP3    H253447   6.031   4.680  11.027 -1.3688  0.5476  1.7223
10678TIP3   OH253448   3.405   1.717  16.184 -0.0611  0.0648  0.1767
10678TIP3    H153449   3.353   1.680  16.255  0.6167 -2.3889 -0.5182
10678TIP3    H253450   3.345   1.720  16.110  0.4422 -1.8355 -0.3590
10679TIP3   OH253451   5.610   2.856   1.501 -0.7924 -0.1448 -0.3542
10679TIP3    H153452   5.700   2.845   1.532 -0.2145  3.0806 -0.5730
10679TIP3    H253453   5.557   2.844   1.579  0.0525  0.3969  0.3270
10680TIP3   OH253454   5.428   6.053   4.021 -0.4204 -0.8242 -0.1814
10680TIP3    H153455   5.362   6.107   4.065  0.2318  1.0633 -1.4188
10680TIP3    H253456   5.415   5.965   4.058 -2.5616 -0.1868  0.7586
10681TIP3   OH253457   5.824   6.143  14.049  0.1557 -0.3477  0.3116
10681TIP3    H153458   5.750   6.204  14.047  0.9306  0.6136 -1.5917
10681TIP3    H253459   5.795   6.068  13.996  0.1152 -0.5436  0.6034
10682TIP3   OH253460   0.092   3.404   0.166  0.0205  0.0195 -0.3204
10682TIP3    H153461   0.140   3.356   0.098  0.1690 -0.8947  0.4146
10682TIP3    H253462   0.046   3.473   0.118 -0.5128 -1.0889 -1.4635
10683TIP3   OH253463   6.627   4.190   4.368  0.0358  0.0432 -0.0405
10683TIP3    H153464   6.532   4.192   4.355  0.0942  0.9123 -0.3875
10683TIP3    H253465   6.641   4.119   4.430 -1.0210  1.0958  1.4741
10684TIP3   OH253466   1.930   0.941   3.581 -0.4561 -0.2453  0.3238
10684TIP3    H153467   1.862   0.886   3.619 -0.5251 -0.8433 -0.6133
10684TIP3    H253468   1.882   1.006   3.530 -0.4179  1.4765  2.3903
10685TIP3   OH253469   2.213   0.304  11.142 -0.3742  0.0947  0.3994
10685TIP3    H153470   2.302   0.269  11.148 -0.3443  0.2756  1.2116
10685TIP3    H253471   2.225   0.396  11.119 -0.4799 -0.5386 -2.5013
10686TIP3   OH253472   6.449   4.628  15.933 -0.1439  0.0437 -0.8040
10686TIP3    H153473   6.536   4.657  15.905  0.9526  0.4506  2.5490
10686TIP3    H253474   6.390   4.693  15.897  1.0097  0.2920 -2.3849
10687TIP3   OH253475   2.963   3.962   2.117  0.6197  0.1120 -0.2054
10687TIP3    H153476   2.896   3.894   2.128  1.4119 -0.6808 -0.1748
10687TIP3    H253477   2.996   3.978   2.206 -0.1209  1.1372 -0.0966
10688TIP3   OH253478   4.631   5.240   1.557  0.5046  0.2233 -0.9636
10688TIP3    H153479   4.600   5.324   1.524 -0.3115  0.1005 -0.5269
10688TIP3    H253480   4.557   5.181   1.546  0.4715 -0.0072  0.3236
10689TIP3   OH253481   4.361   3.477   0.933  0.1608 -0.0064 -0.7884
10689TIP3    H153482   4.408   3.523   1.003 -0.7983 -0.5557  0.2412
10689TIP3    H253483   4.341   3.391   0.969 -3.1645  0.7627 -0.4607
10690TIP3   OH253484   6.338   4.151  16.979 -0.2283  0.3984  0.0277
10690TIP3    H153485   6.375   4.240  16.978  0.3828  0.1507 -0.0225
10690TIP3    H253486   6.415   4.094  16.978 -0.6055 -0.1312  0.6023
10691TIP3   OH253487   6.450   0.252  15.427 -0.3538 -0.1287  0.4639
10691TIP3    H153488   6.412   0.213  15.348 -2.8699  1.2560  0.8643
10691TIP3    H253489   6.517   0.312  15.394  0.8788 -1.9020 -0.3751
10692TIP3   OH253490   5.126   1.722   6.320  0.3546  0.1001 -0.1976
10692TIP3    H153491   5.103   1.676   6.401 -1.5413 -0.4090 -0.9693
10692TIP3    H253492   5.086   1.809   6.331 -2.2645 -0.8329 -1.6093
10693TIP3   OH253493   5.924   4.525   3.843 -0.3774  0.5187 -0.2347
10693TIP3    H153494   5.879   4.577   3.777  0.5542  1.1063 -0.4265
10693TIP3    H253495   5.996   4.483   3.797 -0.7600 -0.4775  0.0495
10694TIP3   OH253496   5.572   4.239  13.993 -0.1575  0.5443  0.8007
10694TIP3    H153497   5.542   4.220  13.904 -1.9307 -1.0198  1.6446
10694TIP3    H253498   5.654   4.285  13.981 -0.1163  0.0065 -1.6449
10695TIP3   OH253499   1.633   5.403  13.676 -0.3734  0.1615  0.1778
10695TIP3    H153500   1.698   5.344  13.714  0.4210  0.5487 -0.5252
10695TIP3    H253501   1.685   5.470  13.632 -1.2534  1.5406  1.1606
10696TIP3   OH253502   2.666   6.485   1.710 -0.4031 -0.3768 -0.3469
10696TIP3    H153503   2.721   6.461   1.635  0.1203  0.7758 -0.3668
10696TIP3    H253504   2.624   6.567   1.683  0.8033  0.7613  1.0777
10697TIP3   OH253505   0.982   4.159   2.991  0.0781  0.1493  0.2764
10697TIP3    H153506   0.935   4.242   2.982  0.4608  0.3240 -0.2500
10697TIP3    H253507   1.063   4.183   3.035  0.4796  0.1818 -0.4532
10698TIP3   OH253508   0.926   0.323  16.887  0.2425  0.1453  0.1218
10698TIP3    H153509   0.865   0.392  16.914  1.5004  1.4059 -0.1271
10698TIP3    H253510   1.012   0.361  16.901  0.9944 -1.4876  0.1832
10699TIP3   OH253511   0.264   3.289  11.884  0.2359  0.5840  0.5323
10699TIP3    H153512   0.262   3.193  11.888 -0.4886  0.6261  1.5042
10699TIP3    H253513   0.247   3.317  11.974  0.1119  1.6314  0.1937
10700TIP3   OH253514   0.811   1.273  14.857  0.2100 -0.3400 -0.4009
10700TIP3    H153515   0.740   1.286  14.919 -0.5466 -1.8211 -0.9136
10700TIP3    H253516   0.851   1.359  14.848  0.8651 -0.2015  2.7081
10701TIP3   OH253517   0.711   6.594   3.704  0.4492  0.1775 -0.0278
10701TIP3    H153518   0.678   6.549   3.626  1.3452  1.2451 -1.0604
10701TIP3    H253519   0.794   6.633   3.677  1.0568  0.1333  1.6259
10702TIP3   OH253520   1.832   1.642   2.290  0.8971 -0.3848 -0.0386
10702TIP3    H153521   1.907   1.691   2.324  1.0203  0.3774 -1.3650
10702TIP3    H253522   1.771   1.710   2.260  0.5696 -1.0347 -0.8540
10703TIP3   OH253523   2.785   5.498  14.729  0.0987 -0.7737  0.0639
10703TIP3    H153524   2.736   5.579  14.713 -2.8447 -1.6624  3.4063
10703TIP3    H253525   2.867   5.528  14.768 -0.3914  0.6318  0.0907
10704TIP3   OH253526   0.670   5.653   5.823  0.1927 -0.0158 -0.3407
10704TIP3    H153527   0.594   5.625   5.773  0.0639 -1.2171  0.4871
10704TIP3    H253528   0.635   5.713   5.888  0.1089  0.2027 -0.5836
10705TIP3   OH253529   1.856   4.200  14.379  0.0542 -0.5516  0.3638
10705TIP3    H153530   1.812   4.126  14.422 -0.0602  0.1972  1.5908
10705TIP3    H253531   1.903   4.244  14.450 -2.1315  2.1875  0.2914
10706TIP3   OH253532   3.781   1.364  13.331 -0.0362  0.2302 -0.0090
10706TIP3    H153533   3.741   1.281  13.359 -0.6383  0.7625  0.7656
10706TIP3    H253534   3.817   1.346  13.244 -2.5433 -0.1151 -1.0460
10707TIP3   OH253535   1.612   4.260   3.160  0.1448 -0.2779 -0.1471
10707TIP3    H153536   1.626   4.203   3.236 -1.2257 -0.5603 -0.0772
10707TIP3    H253537   1.634   4.348   3.192  2.4446 -0.7324 -0.3059
10708TIP3   OH253538   2.318   6.023   4.775  0.7148  0.1738 -0.8646
10708TIP3    H153539   2.255   6.074   4.726  1.1744  0.2306 -1.4014
10708TIP3    H253540   2.295   5.932   4.758 -0.3977  0.1734  0.4680
10709TIP3   OH253541   0.413   5.766  14.737 -0.5305 -0.4221  0.4998
10709TIP3    H153542   0.440   5.755  14.646 -0.6520 -2.3064  0.6579
10709TIP3    H253543   0.434   5.857  14.758 -1.8604  0.4968 -1.8449
10710TIP3   OH253544   2.228   3.062  16.371  0.0842 -0.0142  0.0735
10710TIP3    H153545   2.237   3.112  16.453 -0.2043 -1.8163  1.2629
10710TIP3    H253546   2.297   2.996  16.376 -0.3968 -0.5890 -0.8212
10711TIP3   OH253547   2.887   5.676  14.410  0.5090 -0.3327 -0.6309
10711TIP3    H153548   2.963   5.634  14.450  0.7660 -0.0561 -0.8246
10711TIP3    H253549   2.834   5.706  14.483  0.3703 -0.9064 -0.4889
10712TIP3   OH253550   1.742   6.591   5.263 -0.3947  0.0197 -0.1232
10712TIP3    H153551   1.807   6.540   5.311 -0.3389  1.2102  1.1218
10712TIP3    H253552   1.728   6.541   5.182  1.6379 -0.5607 -0.1828
10713TIP3   OH253553   1.026   1.364   6.779  0.1158 -0.4178 -0.1198
10713TIP3    H153554   1.047   1.271   6.787 -1.6535 -0.7955  0.3819
10713TIP3    H253555   0.953   1.367   6.717  0.5274  0.7064 -0.5848
10714TIP3   OH253556   6.424   5.642  12.950 -0.0499  0.1692 -0.3326
10714TIP3    H153557   6.336   5.654  12.915 -0.2929  0.0166  0.2093
10714TIP3    H253558   6.423   5.555  12.989  0.1079  0.4614  0.3461
10715TIP3   OH253559   1.577   2.984  15.728 -0.0812 -0.1876 -0.0839
10715TIP3    H153560   1.567   2.989  15.823  0.2032 -0.4702 -0.0374
10715TIP3    H253561   1.577   3.075  15.699  2.3224  0.0624  0.4456
10716TIP3   OH253562   3.298   5.254   4.398  0.1922  0.1611  0.2335
10716TIP3    H153563   3.255   5.254   4.484  0.0255 -1.0841  0.1679
10716TIP3    H253564   3.381   5.300   4.414 -0.2126  0.7129  0.8466
10717TIP3   OH253565   3.448   2.974   3.292 -0.7276  0.4466  0.2347
10717TIP3    H153566   3.402   2.898   3.257  0.9019  0.7282 -2.9560
10717TIP3    H253567   3.541   2.956   3.273 -0.0958  2.2760  1.3507
10718TIP3   OH253568   4.621   5.599  11.097  0.2458  0.0414 -0.0685
10718TIP3    H153569   4.588   5.509  11.104 -0.3865  0.1411 -1.4352
10718TIP3    H253570   4.548   5.653  11.127  0.9192  0.1111  1.5871
10719TIP3   OH253571   1.339   3.513  16.761 -0.6670 -0.2963 -0.1520
10719TIP3    H153572   1.279   3.534  16.690 -0.2854  0.6142 -0.2137
10719TIP3    H253573   1.357   3.597  16.804  1.2898 -0.3638 -0.7246
10720TIP3   OH253574   5.780   3.079   1.303  0.1578  0.4439  0.3336
10720TIP3    H153575   5.749   3.096   1.392  2.4054 -0.3582  1.3403
10720TIP3    H253576   5.840   3.004   1.312  0.8351  0.6676 -1.7641
10721TIP3   OH253577   4.014   5.431   6.316 -0.2657 -0.5615 -0.0333
10721TIP3    H153578   4.075   5.503   6.329 -0.9977  0.0691 -0.0372
10721TIP3    H253579   4.041   5.391   6.233  2.1497 -2.3427  1.4896
10722TIP3   OH253580   6.160   2.006   0.125  0.5694 -0.0745 -0.5023
10722TIP3    H153581   6.108   1.935   0.087 -1.9185  0.9663  0.7566
10722TIP3    H253582   6.118   2.025   0.209  1.2430  2.7666 -0.7009
10723TIP3   OH253583   0.100   3.734  17.271  0.5246 -0.1574  0.0838
10723TIP3    H153584   0.157   3.803  17.306 -0.8042  0.0766  1.9261
10723TIP3    H253585   0.023   3.736  17.328 -0.0257 -2.4628 -0.4946
10724TIP3   OH253586   6.508   3.268   5.240 -0.0066  0.4946 -0.0989
10724TIP3    H153587   6.458   3.197   5.199  1.0497 -0.0204 -0.5656
10724TIP3    H253588   6.552   3.311   5.166 -0.0582  1.1709  0.2600
10725TIP3   OH253589   5.653   2.049  15.591  0.1156  0.3372 -0.0384
10725TIP3    H153590   5.688   2.136  15.574 -2.2674  1.5744  0.8319
10725TIP3    H253591   5.596   2.032  15.517  0.9439 -0.7247 -0.4437
10726TIP3   OH253592   0.728   4.368  17.004  0.2036  0.1197 -0.1187
10726TIP3    H153593   0.675   4.292  17.027  0.0990 -0.2252 -1.4294
10726TIP3    H253594   0.815   4.349  17.039 -0.3013  0.3107  1.2953
10727TIP3   OH253595   6.401   2.437   2.557  0.9595  0.5090  0.2089
10727TIP3    H153596   6.453   2.427   2.477  0.5961  1.4967 -0.1701
10727TIP3    H253597   6.314   2.462   2.526  0.3782 -0.6352  0.8589
10728TIP3   OH253598   5.755   0.743  15.585 -0.0870 -0.1038  0.1436
10728TIP3    H153599   5.765   0.771  15.676 -1.6147 -0.9502  0.6195
10728TIP3    H253600   5.838   0.701  15.563  0.5605  0.7370  0.9030
10729TIP3   OH253601   2.924   4.373  12.552  0.4299 -0.3737 -0.3616
10729TIP3    H153602   2.867   4.303  12.584 -2.6699  1.1810 -2.1008
10729TIP3    H253603   2.935   4.431  12.627 -1.9444  0.2506 -0.4184
10730TIP3   OH253604   6.645   6.008  12.852  0.1393  0.3755 -0.2670
10730TIP3    H153605   6.565   5.995  12.800 -0.0397  2.2848 -0.5411
10730TIP3    H253606   6.705   6.052  12.793  1.1441 -0.3321  0.1894
10731TIP3   OH253607   2.456   0.304   3.854  0.6100  0.1042 -0.6248
10731TIP3    H153608   2.365   0.291   3.827  1.0308 -2.1606 -1.1999
10731TIP3    H253609   2.461   0.269   3.942  0.6274  1.7022  0.0508
10732TIP3   OH253610   6.648   3.111  16.812  0.5407 -0.5551 -0.0479
10732TIP3    H153611   6.699   3.143  16.886 -2.3847  0.3681  1.7303
10732TIP3    H253612   6.650   3.183  16.749  0.8188 -0.2523  0.2989
10733TIP3   OH253613   2.393   1.634  14.355 -0.1326  0.6117  0.4397
10733TIP3    H153614   2.432   1.583  14.284 -0.7698 -0.7498  1.0197
10733TIP3    H253615   2.467   1.672  14.402  0.3562  0.2629 -0.0404
10734TIP3   OH253616   5.049   1.840  16.462 -0.4766  0.1340 -0.3028
10734TIP3    H153617   5.088   1.918  16.424 -0.6257  0.0510 -0.6276
10734TIP3    H253618   5.025   1.785  16.387 -0.0107 -0.4004 -0.0720
10735TIP3   OH253619   3.281   5.320  14.834  0.0987 -0.0581 -0.0094
10735TIP3    H153620   3.312   5.252  14.894 -0.7242 -0.4656 -0.0440
10735TIP3    H253621   3.357   5.338  14.778  0.9509  0.4868  1.2643
10736TIP3   OH253622   4.022   4.215  14.232 -0.2592  0.3178  0.4401
10736TIP3    H153623   4.039   4.225  14.138  0.8529 -0.1322  0.5859
10736TIP3    H253624   3.970   4.293  14.255 -2.5170 -0.6464 -0.9855
10737TIP3   OH253625   5.637   0.144   2.584 -0.1205 -1.1376  0.7697
10737TIP3    H153626   5.624   0.183   2.670  2.4305 -0.6587  1.0222
10737TIP3    H253627   5.660   0.217   2.527 -2.7864 -1.2901 -0.6553
10738TIP3   OH253628   5.089   1.949  11.322 -0.0266 -0.5115 -0.3411
10738TIP3    H153629   5.017   1.890  11.344  0.3105 -0.2284  1.7761
10738TIP3    H253630   5.109   1.994  11.404  1.9831  0.0617 -1.0713
10739TIP3   OH253631   5.830   1.360  16.730  0.1230 -0.5210 -0.6199
10739TIP3    H153632   5.842   1.265  16.729  0.9506 -0.4226 -1.8777
10739TIP3    H253633   5.892   1.390  16.797  2.4809 -0.6123 -2.6119
10740TIP3   OH253634   6.340   3.878   0.736 -0.5187 -0.1503  0.6983
10740TIP3    H153635   6.346   3.968   0.766  0.0555  0.4839 -1.2060
10740TIP3    H253636   6.252   3.870   0.698 -0.0730  0.0517 -0.4127
10741TIP3   OH253637   3.883   5.585  16.750 -0.1163  0.4371  0.2077
10741TIP3    H153638   3.830   5.544  16.681  2.5276 -1.2608 -0.9555
10741TIP3    H253639   3.860   5.537  16.830 -1.1700  0.5403 -0.0198
10742TIP3   OH253640   2.766   2.243  12.505  0.0170  0.3869  0.3781
10742TIP3    H153641   2.734   2.155  12.523  2.1961 -0.9422 -1.6966
10742TIP3    H253642   2.861   2.236  12.510  0.3941  1.9039 -2.5157
10743TIP3   OH253643   3.354   5.774   2.267 -0.6445 -0.1950 -0.0537
10743TIP3    H153644   3.416   5.739   2.203 -1.4284  1.5680 -1.9047
10743TIP3    H253645   3.268   5.751   2.232 -1.2236  3.4084 -1.4573
10744TIP3   OH253646   3.001   0.290  14.983  0.3009 -0.2346 -0.0239
10744TIP3    H153647   2.908   0.272  14.973 -0.2914  0.7170  2.9133
10744TIP3    H253648   3.017   0.367  14.928 -0.8541  0.1343  0.1375
10745TIP3   OH253649   3.384   3.576   2.991 -0.1288  0.4975  0.0057
10745TIP3    H153650   3.359   3.618   3.073  0.2434 -0.9852  0.9077
10745TIP3    H253651   3.477   3.560   3.000 -0.4266 -1.3578  0.1044
10746TIP3   OH253652   0.739   1.885  15.281 -0.0514  0.4839 -0.3004
10746TIP3    H153653   0.648   1.859  15.274  0.1019  0.3267 -1.8834
10746TIP3    H253654   0.789   1.810  15.250  0.7779 -0.3377  2.7048
10747TIP3   OH253655   5.131   6.733   1.728 -0.0889 -0.2854  0.4203
10747TIP3    H153656   5.105   6.669   1.662  0.2658 -0.9574  0.9078
10747TIP3    H253657   5.064   6.727   1.795  1.6871 -2.7617  2.1725
10748TIP3   OH253658   6.548   1.524   5.347  0.1181  0.3378 -0.4249
10748TIP3    H153659   6.589   1.603   5.382 -1.4297  0.9633  0.0325
10748TIP3    H253660   6.618   1.482   5.297  2.0617  0.0724  2.2806
10749TIP3   OH253661   3.448   4.678   3.895 -0.1557 -0.0039 -0.1265
10749TIP3    H153662   3.525   4.661   3.841  1.3793 -1.3794  2.3198
10749TIP3    H253663   3.394   4.599   3.884 -0.9304  0.6634 -1.3006
10750TIP3   OH253664   1.572   0.452  15.139  0.2454 -0.0772  0.1975
10750TIP3    H153665   1.495   0.438  15.085 -0.2725 -2.5648  1.4176
10750TIP3    H253666   1.563   0.542  15.172 -1.6467 -0.0092 -0.4091
10751TIP3   OH253667   6.073   4.614  15.069 -0.0832 -0.3460  0.3181
10751TIP3    H153668   6.001   4.586  15.126 -1.0725  1.7004  0.1614
10751TIP3    H253669   6.039   4.604  14.980  0.7230 -1.6065  0.1249
10752TIP3   OH253670   0.680   5.637  14.317 -0.5707  0.0274  0.1651
10752TIP3    H153671   0.619   5.565  14.327  0.3539 -0.7121  0.6769
10752TIP3    H253672   0.717   5.650  14.405 -0.2837  0.7220 -0.0475
10753TIP3   OH253673   2.947   5.177  17.129 -0.0237 -0.2244 -0.0505
10753TIP3    H153674   2.906   5.096  17.162  0.5098 -1.4273 -2.1659
10753TIP3    H253675   2.873   5.234  17.109 -0.5542 -1.1341 -0.7870
10754TIP3   OH253676   3.137   4.995   0.444  0.1339 -0.0849  0.2972
10754TIP3    H153677   3.044   4.979   0.431  0.2806 -2.2593  1.5399
10754TIP3    H253678   3.150   5.085   0.413 -1.9731 -0.3704 -1.7096
10755TIP3   OH253679   3.924   1.715  13.220  0.4388 -0.0728  0.3125
10755TIP3    H153680   3.989   1.671  13.165 -0.3112 -0.5643 -0.2075
10755TIP3    H253681   3.974   1.779  13.270  1.3669 -0.6592  0.1622
10756TIP3   OH253682   3.730   6.200   4.340 -0.4674  0.8408  0.4119
10756TIP3    H153683   3.754   6.160   4.256  0.9911  1.5399  0.4669
10756TIP3    H253684   3.656   6.257   4.318 -0.5256  0.5126 -0.2753
10757TIP3   OH253685   5.896   5.379   4.717 -0.3330  0.3102 -0.2534
10757TIP3    H153686   5.873   5.308   4.776 -1.6918  0.6155 -0.3879
10757TIP3    H253687   5.890   5.341   4.629  0.4144  0.2013 -0.2628
10758TIP3   OH253688   1.927   4.951   3.946  0.6407  0.4833 -0.2178
10758TIP3    H153689   1.892   4.920   3.862  3.7829 -1.0089 -1.1278
10758TIP3    H253690   1.940   4.870   3.997  0.1569  1.2537  1.1888
10759TIP3   OH253691   2.213   5.401  13.522  0.0687  0.2033  0.0021
10759TIP3    H153692   2.278   5.353  13.574  0.2229  1.5198  1.0780
10759TIP3    H253693   2.237   5.493  13.532  0.5710  0.5003 -3.1044
10760TIP3   OH253694   6.299   1.139  13.171  0.1503 -0.0650 -0.2183
10760TIP3    H153695   6.330   1.206  13.110  0.7564 -1.0153 -0.9931
10760TIP3    H253696   6.331   1.168  13.257 -0.9150  1.4100 -0.2907
10761TIP3   OH253697   3.874   2.563   3.791  0.0766  0.3722 -0.0012
10761TIP3    H153698   3.951   2.511   3.767  0.1051  1.3383 -2.1775
10761TIP3    H253699   3.802   2.500   3.793  0.3708 -0.0237 -1.1550
10762TIP3   OH253700   1.104   5.370   4.479  0.0313  0.3296  0.2446
10762TIP3    H153701   1.045   5.364   4.553  1.4454 -0.2828  1.3792
10762TIP3    H253702   1.111   5.281   4.446  0.4267  0.3683  0.2130
10763TIP3   OH253703   1.784   3.974  17.192 -0.1571 -0.1590  0.1288
10763TIP3    H153704   1.826   3.920  17.258  0.7917 -1.3740 -1.4043
10763TIP3    H253705   1.789   4.063  17.227  0.6282 -0.7157  1.5113
10764TIP3   OH253706   4.816   3.775  13.500 -0.3850 -0.0772  0.0252
10764TIP3    H153707   4.782   3.840  13.438  1.0121  1.7899  1.0847
10764TIP3    H253708   4.908   3.765  13.476 -0.5675 -1.6874 -0.0876
10765TIP3   OH253709   6.081   1.055   4.709  0.4029 -0.1745  0.0216
10765TIP3    H153710   6.030   1.000   4.651  2.7287  0.4510 -2.8381
10765TIP3    H253711   6.105   1.131   4.656  1.3841  1.2238  2.2939
10766TIP3   OH253712   0.035   2.560  12.296  0.2351  0.5984  0.6501
10766TIP3    H153713  -0.052   2.587  12.326 -0.0363  0.4498 -0.0072
10766TIP3    H253714   0.078   2.528  12.376 -0.6003 -0.1036  0.8336
10767TIP3   OH253715   4.413   1.534   1.226 -0.2015  0.3295 -0.6003
10767TIP3    H153716   4.426   1.624   1.255  2.0771 -0.1617  0.1255
10767TIP3    H253717   4.443   1.481   1.300  0.9093 -0.9806 -1.9350
10768TIP3   OH253718   5.538   6.422  16.017 -0.1318  0.4047 -0.1854
10768TIP3    H153719   5.489   6.389  15.941  0.6415 -1.1404 -0.0413
10768TIP3    H253720   5.505   6.511  16.029 -0.4908  0.5917 -2.1486
10769TIP3   OH253721   5.569   2.382   3.920 -0.1104 -0.1725 -0.5231
10769TIP3    H153722   5.591   2.456   3.864  1.3445 -1.2839 -1.5103
10769TIP3    H253723   5.474   2.383   3.926 -0.1653  1.1928 -1.3032
10770TIP3   OH253724   4.736   2.059  12.565 -0.3264 -0.2335 -0.3667
10770TIP3    H153725   4.816   2.110  12.577  0.0587 -0.9923  0.4011
10770TIP3    H253726   4.741   1.990  12.631 -2.1605  0.3533  0.4449
10771TIP3   OH253727   3.659   4.984   2.761 -0.1267  0.0772 -0.1839
10771TIP3    H153728   3.566   4.960   2.765  0.1989 -1.1329  0.5089
10771TIP3    H253729   3.693   4.935   2.686  0.7117 -2.4060  1.6901
10772TIP3   OH253730   0.758   0.241  14.128  0.7207 -0.3860 -0.0943
10772TIP3    H153731   0.684   0.191  14.095  2.9673 -1.3729 -4.4604
10772TIP3    H253732   0.817   0.176  14.166  2.0767 -0.7052 -2.5582
10773TIP3   OH253733   5.015   1.504   1.819  0.6799  0.6595 -0.6121
10773TIP3    H153734   5.029   1.409   1.822  2.2348  0.8540 -0.5657
10773TIP3    H253735   4.941   1.520   1.878  1.8502 -0.3103  1.2098
10774TIP3   OH253736   4.145   6.005  14.992  0.2056  0.1722 -0.0683
10774TIP3    H153737   4.103   5.921  14.977 -0.0247  0.4195 -0.8454
10774TIP3    H253738   4.199   6.019  14.915  2.9407 -0.8270  1.5150
10775TIP3   OH253739   1.146   6.530   2.312 -0.9153 -0.1071  0.1641
10775TIP3    H153740   1.057   6.556   2.287 -1.1783  0.5894  1.7629
10775TIP3    H253741   1.136   6.489   2.398  0.4853  1.4151  1.1068
10776TIP3   OH253742   1.062   6.557   3.977 -0.0356 -0.3286 -0.4812
10776TIP3    H153743   1.060   6.505   3.897  0.4284  0.1372 -0.8041
10776TIP3    H253744   1.014   6.637   3.955  1.8841  0.7604 -1.0088
10777TIP3   OH253745   1.959   4.126  11.262  0.9348 -0.0858  0.2048
10777TIP3    H153746   2.028   4.090  11.318  0.2597  2.6309  3.0549
10777TIP3    H253747   1.970   4.221  11.269 -0.8580  0.3862 -2.2496
10778TIP3   OH253748   0.062   0.402   0.449  0.0312  0.9418 -0.0556
10778TIP3    H153749   0.006   0.385   0.373 -0.1942  1.3765  0.0084
10778TIP3    H253750   0.049   0.495   0.467  1.5730  1.3190 -0.7006
10779TIP3   OH253751   2.720   1.236  16.461 -0.2978  0.6133  0.0749
10779TIP3    H153752   2.642   1.186  16.484 -1.4179  1.9963 -0.5843
10779TIP3    H253753   2.710   1.319  16.508  0.1937  1.2519 -0.9120
10780TIP3   OH253754   1.238   0.894  15.399  0.0112  0.7804 -0.1037
10780TIP3    H153755   1.192   0.811  15.406  0.0545  0.8614  1.4539
10780TIP3    H253756   1.169   0.960  15.409  0.4370  0.9058  2.7527
10781TIP3   OH253757   2.507   1.428   2.784 -0.4364  0.6853  0.0863
10781TIP3    H153758   2.514   1.371   2.708 -1.3057  1.0658 -0.2962
10781TIP3    H253759   2.597   1.451   2.805 -0.1904  0.8920 -1.0878
10782TIP3   OH253760   6.253   2.728  14.457  0.3486 -0.6362 -0.1608
10782TIP3    H153761   6.318   2.664  14.487  1.4241  0.9646  1.1608
10782TIP3    H253762   6.305   2.806  14.436 -0.9969  0.1200 -0.8068
10783TIP3   OH253763   0.268   1.726   3.201 -0.5201 -0.0884  0.2263
10783TIP3    H153764   0.319   1.672   3.140 -0.8652 -1.6809  1.2752
10783TIP3    H253765   0.185   1.680   3.210 -2.4173  2.6565 -1.7426
10784TIP3   OH253766   4.130   5.028   2.608  0.4889 -0.3301 -0.0458
10784TIP3    H153767   4.055   5.071   2.566 -0.8458 -0.5605  1.9734
10784TIP3    H253768   4.115   4.934   2.594 -0.6574 -0.4978  1.8753
10785TIP3   OH253769   4.359   6.452  15.410 -0.1487 -0.1716  0.9151
10785TIP3    H153770   4.268   6.460  15.437 -0.1469 -2.0997  1.6043
10785TIP3    H253771   4.373   6.358  15.399  1.4724  0.1608 -0.2321
10786TIP3   OH253772   1.041   2.068   4.632  0.0189  0.3170 -0.1630
10786TIP3    H153773   1.129   2.102   4.614  0.5205 -1.4618 -1.2674
10786TIP3    H253774   1.038   1.983   4.588 -1.9296 -0.1042  0.6726
10787TIP3   OH253775   1.913   1.341   5.385  0.4314 -0.4248 -0.1115
10787TIP3    H153776   1.922   1.350   5.290 -0.0240  0.1946 -0.0995
10787TIP3    H253777   2.001   1.358   5.418  0.9190 -2.0033 -0.4972
10788TIP3   OH253778   4.039   2.996   2.805 -0.2106  0.4045  0.0739
10788TIP3    H153779   4.025   2.944   2.884 -1.7224 -0.3190 -0.6110
10788TIP3    H253780   4.092   2.939   2.748  0.5477  0.7707  0.4019
10789TIP3   OH253781   4.308   5.500   3.454 -0.4939  0.0651 -0.2989
10789TIP3    H153782   4.275   5.531   3.370 -1.8918  0.2810  0.3044
10789TIP3    H253783   4.310   5.405   3.445  2.1545  0.1330 -1.5457
10790TIP3   OH253784   3.096   3.636  17.001 -0.2087  0.0212  0.2541
10790TIP3    H153785   3.087   3.569  16.934 -5.0202 -2.4302  2.8551
10790TIP3    H253786   3.164   3.603  17.060 -2.2643 -2.6672  1.3055
10791TIP3   OH253787   2.096   3.350  13.839 -0.2727 -0.3146 -0.6597
10791TIP3    H153788   2.144   3.332  13.920 -0.4806  0.0600 -0.4520
10791TIP3    H253789   2.158   3.399  13.785 -0.2700 -0.2171 -0.5680
10792TIP3   OH253790   2.645   6.121  17.100  0.1796  0.3205  0.0154
10792TIP3    H153791   2.633   6.030  17.074  0.9979 -0.0840  0.9840
10792TIP3    H253792   2.670   6.117  17.192  1.2514  1.4537 -0.1956
10793TIP3   OH253793   4.952   1.859  15.460 -0.1309 -0.0686  0.1484
10793TIP3    H153794   5.043   1.846  15.435 -0.0437 -3.0578  1.5510
10793TIP3    H253795   4.955   1.919  15.534  0.6946 -0.1049  0.1498
10794TIP3   OH253796   4.144   5.502   2.754 -0.4567 -0.1155  0.1503
10794TIP3    H153797   4.111   5.509   2.844 -1.5998  0.2149 -0.2887
10794TIP3    H253798   4.148   5.408   2.737  0.3945 -0.2052  0.7594
10795TIP3   OH253799   4.033   6.469  15.779  0.5021  0.0781  0.1799
10795TIP3    H153800   3.965   6.417  15.738  1.0234 -0.7197  0.3004
10795TIP3    H253801   4.109   6.410  15.785  1.9997  1.6185 -2.1304
10796TIP3   OH253802   3.295   4.915  16.829  0.2715 -0.0874 -0.4718
10796TIP3    H153803   3.268   4.951  16.913  0.6920  4.8387 -2.1391
10796TIP3    H253804   3.390   4.928  16.827  0.2484  0.0412 -1.7437
10797TIP3   OH253805   1.214   0.022   2.461 -0.0593 -0.4184 -0.1528
10797TIP3    H153806   1.128  -0.015   2.440  0.4527 -1.0912 -1.1903
10797TIP3    H253807   1.257   0.032   2.376  1.5982 -1.9123  0.4301
10798TIP3   OH253808   2.711   4.714  11.028 -0.2219 -0.3125  0.3253
10798TIP3    H153809   2.731   4.698  10.936 -0.3601 -0.6130  0.3485
10798TIP3    H253810   2.621   4.747  11.028 -0.0476  0.1812  0.3075
10799TIP3   OH253811   6.049   3.892  14.479 -0.0348  0.1020  0.6471
10799TIP3    H153812   5.968   3.944  14.479 -0.2209 -0.1810  0.7086
10799TIP3    H253813   6.117   3.953  14.451 -0.1332  0.5617  1.3621
10800TIP3   OH253814   6.453   4.715  13.074 -0.4078 -0.0185  0.2929
10800TIP3    H153815   6.403   4.650  13.024  0.7523 -1.3061  0.7347
10800TIP3    H253816   6.494   4.770  13.007  0.2203 -1.0220 -0.1839
10801TIP3   OH253817   5.154   4.275   0.608 -0.7666  0.5317  0.0073
10801TIP3    H153818   5.210   4.341   0.648 -1.4982  1.3811 -0.3309
10801TIP3    H253819   5.179   4.274   0.515  1.5560 -2.0742  0.5307
10802TIP3   OH253820   5.526   4.525   5.569  0.3548 -0.5255  0.6263
10802TIP3    H153821   5.475   4.445   5.571 -0.4531 -0.0100  2.7865
10802TIP3    H253822   5.614   4.499   5.598  0.6719 -0.9511 -0.6411
10803TIP3   OH253823   2.610   4.047  15.545 -0.4256 -0.1720  0.1436
10803TIP3    H153824   2.665   3.986  15.594  0.2262  1.9104  2.2028
10803TIP3    H253825   2.673   4.103  15.499 -1.0221 -1.6812 -2.6852
10804TIP3   OH253826   4.092   4.832   0.873  0.0433  0.3922  0.2896
10804TIP3    H153827   4.071   4.738   0.871 -0.4360  0.5021  0.0923
10804TIP3    H253828   4.014   4.875   0.837  1.1894  0.6965 -1.9881
10805TIP3   OH253829   0.503   6.358   1.072 -0.2352 -0.0764  0.2827
10805TIP3    H153830   0.567   6.369   1.002 -0.0600  3.1919  0.8304
10805TIP3    H253831   0.555   6.341   1.150 -0.4043 -3.0211 -0.1280
10806TIP3   OH253832   0.593   1.611  13.750  0.1537  0.4536  0.8756
10806TIP3    H153833   0.580   1.607  13.844 -2.5629 -0.2811  0.5613
10806TIP3    H253834   0.529   1.675  13.719  1.5273  1.2770 -0.4222
10807TIP3   OH253835   3.858   2.853   0.885 -0.2663  0.2588 -0.5704
10807TIP3    H153836   3.873   2.948   0.880  0.5571  0.2250  0.8005
10807TIP3    H253837   3.830   2.838   0.976 -0.5687 -0.7973 -0.8266
10808TIP3   OH253838   4.583   3.874  17.229 -0.0359 -0.0771  0.5961
10808TIP3    H153839   4.584   3.810  17.301 -0.7708 -1.5978 -0.6795
10808TIP3    H253840   4.516   3.841  17.169  0.8785  0.8803 -1.0101
10809TIP3   OH253841   1.012   4.078   1.923  0.2672  0.0746  0.1330
10809TIP3    H153842   0.940   4.093   1.862 -0.1011 -1.4836  0.1350
10809TIP3    H253843   1.019   3.983   1.929  1.3439  0.1960  1.3057
10810TIP3   OH253844   2.785   1.507   1.468  0.7522 -0.1129 -0.3108
10810TIP3    H153845   2.756   1.442   1.404  0.9076  0.4707 -0.9886
10810TIP3    H253846   2.818   1.580   1.415  2.1267 -0.1554  0.4303
10811TIP3   OH253847   1.508   1.049   3.773 -0.2855 -0.1616 -0.0554
10811TIP3    H153848   1.450   0.973   3.777  0.6440 -0.9468 -1.1684
10811TIP3    H253849   1.504   1.078   3.682  2.1005 -1.0837 -0.5237
10812TIP3   OH253850   1.095   1.147   3.269  0.3300 -0.1835  1.0136
10812TIP3    H153851   1.034   1.111   3.205  0.7267 -1.7507  1.4926
10812TIP3    H253852   1.040   1.193   3.332  0.0208  3.2765 -1.4772
10813TIP3   OH253853   0.530   2.522   6.370  0.0148  0.1179  0.1595
10813TIP3    H153854   0.436   2.514   6.356  0.0218  1.1202 -0.5148
10813TIP3    H253855   0.545   2.616   6.385  0.8623 -0.0745  0.6302
10814TIP3   OH253856   5.938   4.179   5.116 -0.4953  0.3190 -0.6110
10814TIP3    H153857   5.876   4.132   5.173  0.8201  0.5462  1.0921
10814TIP3    H253858   5.883   4.215   5.047 -2.3486  0.7603  0.9764
10815TIP3   OH253859   1.998   2.751  11.752 -0.7987 -0.0890 -0.7395
10815TIP3    H153860   2.090   2.774  11.735 -0.6352 -1.1031 -1.3563
10815TIP3    H253861   1.955   2.834  11.771  0.3936  0.3261  0.2783
10816TIP3   OH253862   1.062   6.057   1.851 -0.3451 -0.3699  0.2939
10816TIP3    H153863   0.980   6.044   1.899 -0.0284 -0.4192  0.8221
10816TIP3    H253864   1.078   6.151   1.856  0.4724 -0.5536  1.5967
10817TIP3   OH253865   6.225   1.188  16.448 -0.1541  0.8882  0.1305
10817TIP3    H153866   6.160   1.221  16.387 -0.5392 -0.0609 -0.0013
10817TIP3    H253867   6.199   1.223  16.533 -0.7456  0.6598  0.0492
10818TIP3   OH253868   4.479   4.960   3.199  0.0922  0.0474 -0.2812
10818TIP3    H153869   4.472   5.022   3.272 -1.0530 -1.5254  1.0076
10818TIP3    H253870   4.572   4.957   3.178  0.5674 -0.0772  1.6810
10819TIP3   OH253871   2.691   0.764   3.554 -0.2408 -0.4628  0.1401
10819TIP3    H153872   2.638   0.782   3.631 -0.0214 -2.1112  0.7195
10819TIP3    H253873   2.775   0.807   3.572  0.3711 -2.1455  1.5917
10820TIP3   OH253874   2.858   1.810   5.821 -0.1952  0.0944  0.4293
10820TIP3    H153875   2.841   1.750   5.894 -0.2869  0.1985  0.4926
10820TIP3    H253876   2.949   1.793   5.797 -0.0974  0.2140  0.7073
10821TIP3   OH253877   0.480   0.623   1.028 -0.0153 -0.0148 -0.7133
10821TIP3    H153878   0.562   0.575   1.037 -0.6352 -0.7530  1.6604
10821TIP3    H253879   0.500   0.711   1.061 -0.1858 -0.2429  0.0237
10822TIP3   OH253880   2.690   2.536   5.729  0.4251  1.0181 -0.0218
10822TIP3    H153881   2.610   2.488   5.749 -0.2020  0.8873 -2.5216
10822TIP3    H253882   2.758   2.489   5.778 -0.7896  0.3066  1.0801
10823TIP3   OH253883   3.219   2.365   1.241  0.9632 -0.5640 -0.2580
10823TIP3    H153884   3.217   2.270   1.250 -1.4292 -0.4901  0.7618
10823TIP3    H253885   3.250   2.397   1.326  1.4100 -0.4017 -0.4764
10824TIP3   OH253886   5.437   4.103   3.178  0.2523  0.4508  0.2904
10824TIP3    H153887   5.416   4.087   3.086  1.0326 -0.2529  0.2272
10824TIP3    H253888   5.356   4.140   3.215  0.0726  1.1352 -0.7642
10825TIP3   OH253889   6.425   0.250   2.371  0.5576  0.1112 -0.1088
10825TIP3    H153890   6.433   0.161   2.338  0.6750  0.5330 -1.2414
10825TIP3    H253891   6.369   0.241   2.449 -0.0146 -0.8559 -0.6096
10826TIP3   OH253892   2.135   4.218  12.007 -0.3118  0.2031 -0.5934
10826TIP3    H153893   2.176   4.171  11.934 -0.2510  0.3692 -0.6652
10826TIP3    H253894   2.139   4.156  12.079  1.7184  0.8434 -0.0754
10827TIP3   OH253895   1.192   6.381  15.086  0.4327  0.2092 -0.2675
10827TIP3    H153896   1.139   6.457  15.108 -0.3144 -0.4462  0.2361
10827TIP3    H253897   1.195   6.330  15.167  2.4114  0.5545 -0.0592
10828TIP3   OH253898   4.005   4.436   0.174  0.6070  0.1106 -0.5938
10828TIP3    H153899   3.924   4.433   0.225  1.0071  0.8262  0.1033
10828TIP3    H253900   3.977   4.460   0.086 -0.0666 -0.9215 -0.6816
10829TIP3   OH253901   6.186   6.690   0.989 -0.0368  0.2835 -0.5138
10829TIP3    H153902   6.266   6.710   0.941 -0.7442  3.4319 -0.6298
10829TIP3    H253903   6.135   6.635   0.930  0.9399  0.4426 -1.5331
10830TIP3   OH253904   2.310   5.606  10.904  0.1832 -0.4143 -0.1384
10830TIP3    H153905   2.300   5.537  10.839 -0.9791  0.6326 -1.1194
10830TIP3    H253906   2.258   5.575  10.979 -1.5259 -0.0031 -1.1030
10831TIP3   OH253907   4.419   6.764  16.618  0.5936  0.3447  0.4333
10831TIP3    H153908   4.374   6.684  16.646  0.1075  1.1188  1.9973
10831TIP3    H253909   4.474   6.737  16.545 -0.9674 -1.0285 -0.2836
10832TIP3   OH253910   6.283   6.466  17.053  0.0228 -0.1179 -0.6268
10832TIP3    H153911   6.301   6.557  17.077  1.2148  0.0727 -2.0984
10832TIP3    H253912   6.237   6.472  16.969 -0.2896 -0.8815 -0.5200
10833TIP3   OH253913   5.881   3.920   0.004  0.2491 -0.2900  0.4654
10833TIP3    H153914   5.892   3.841  -0.049 -1.9759  0.2659 -0.9564
10833TIP3    H253915   5.818   3.895   0.072  1.3781 -0.3670  1.5182
10834TIP3   OH253916   1.873   4.137   5.696 -0.5410 -0.1174 -0.0308
10834TIP3    H153917   1.944   4.086   5.658 -0.5533  0.6537 -1.1560
10834TIP3    H253918   1.916   4.203   5.750 -0.3521  0.6650 -1.1089
10835TIP3   OH253919   4.561   0.076   3.063 -0.2235 -0.2484  0.5083
10835TIP3    H153920   4.633   0.119   3.017  0.0684 -0.6623  0.5760
10835TIP3    H253921   4.516   0.025   2.995 -1.4371  1.2766  0.1279
10836TIP3   OH253922   0.113   1.795   6.416  0.1324 -0.0638 -0.0394
10836TIP3    H153923   0.059   1.862   6.458  1.0142  0.4606  0.2694
10836TIP3    H253924   0.082   1.713   6.455 -1.6947  0.0187 -1.2089
10837TIP3   OH253925   0.502   0.410   6.240  0.0126 -0.2211  0.4392
10837TIP3    H153926   0.449   0.483   6.209  0.9127  0.4384  0.3907
10837TIP3    H253927   0.576   0.452   6.285  0.8302 -1.0906 -0.0604
10838TIP3   OH253928   6.725   3.011   2.078  0.3157  0.1020  0.2547
10838TIP3    H153929   6.793   3.071   2.107 -0.9398  1.0087  1.4508
10838TIP3    H253930   6.710   2.954   2.153  0.7020 -0.9879 -0.4824
10839TIP3   OH253931   5.922   5.309  12.952  0.3302  0.1381  0.2730
10839TIP3    H153932   5.961   5.277  12.870  0.4469 -1.7514  1.0257
10839TIP3    H253933   5.981   5.378  12.981  0.7231  0.2848 -0.8335
10840TIP3   OH253934   3.598   3.132  17.175 -0.2023  0.6980 -0.0349
10840TIP3    H153935   3.667   3.145  17.240  0.0149  0.0231 -0.1214
10840TIP3    H253936   3.523   3.099  17.225 -0.2885  0.9096 -0.0214
10841TIP3   OH253937   0.327   3.723  13.141 -0.5252 -0.0603  0.3186
10841TIP3    H153938   0.243   3.679  13.154 -0.6153 -0.4651 -1.3902
10841TIP3    H253939   0.327   3.747  13.048  2.4321 -2.7353 -0.5535
10842TIP3   OH253940   1.995   4.930  17.003 -0.5481  0.8187  0.7363
10842TIP3    H153941   2.002   5.025  16.991 -4.3231  1.0060 -1.7469
10842TIP3    H253942   2.056   4.893  16.938 -0.9985  1.6190 -0.1658
10843TIP3   OH253943   1.485   5.800   0.442  0.0623 -0.3786 -0.4500
10843TIP3    H153944   1.517   5.887   0.469  1.1593 -0.2688 -1.9727
10843TIP3    H253945   1.555   5.741   0.469 -0.3622 -0.6987 -0.0539
10844TIP3   OH253946   0.290   1.621   2.804 -0.0615  0.7384 -0.2891
10844TIP3    H153947   0.196   1.641   2.801  0.0449  1.1708 -1.9269
10844TIP3    H253948   0.297   1.546   2.862 -1.6705 -0.4906 -1.5906
10845TIP3   OH253949   1.663   6.576  13.176 -0.4778  0.1839 -0.2269
10845TIP3    H153950   1.699   6.651  13.129  1.4956 -1.6765 -1.8902
10845TIP3    H253951   1.725   6.505  13.160 -2.0636 -1.7595  1.5478
10846TIP3   OH253952   1.107   4.784   3.679  0.0101 -0.1170  0.5423
10846TIP3    H153953   1.020   4.803   3.645  0.5888  1.7080 -0.0281
10846TIP3    H253954   1.131   4.863   3.728  1.3307 -0.5966  0.7085
10847TIP3   OH253955   1.150   4.945   0.727 -0.5131  0.1741  0.3064
10847TIP3    H153956   1.206   4.961   0.802 -1.0809 -1.3741  1.1091
10847TIP3    H253957   1.115   4.857   0.741 -0.7148 -0.1316 -1.7273
10848TIP3   OH253958   5.616   5.816  15.727 -0.7798  0.5469 -0.5410
10848TIP3    H153959   5.541   5.847  15.778 -1.5436 -0.3907 -1.0561
10848TIP3    H253960   5.680   5.789  15.793 -1.8044 -0.7732 -0.0373
10849TIP3   OH253961   4.002   4.528  16.629 -0.2443  0.3293 -0.2838
10849TIP3    H153962   4.020   4.457  16.691  0.3865  1.9908  1.5495
10849TIP3    H253963   4.089   4.564  16.609 -0.5017  0.2410 -1.6657
10850TIP3   OH253964   5.554   1.504   6.769  0.2557  0.0294  0.2173
10850TIP3    H153965   5.565   1.429   6.711  0.1054  0.3060 -0.1674
10850TIP3    H253966   5.640   1.515   6.811  0.8235  0.7718 -1.0832
10851TIP3   OH253967   3.229   5.108  13.408 -0.4248 -0.5198 -0.0259
10851TIP3    H153968   3.148   5.061  13.429 -2.2016  2.1901 -0.3691
10851TIP3    H253969   3.239   5.171  13.479  2.3033 -1.7567  0.8126
10852TIP3   OH253970   5.168   1.906   3.235 -0.3981 -0.0271 -0.6957
10852TIP3    H153971   5.101   1.864   3.290  0.1774  1.1137  0.9548
10852TIP3    H253972   5.133   1.898   3.146 -1.3098 -2.0645 -0.2380
10853TIP3   OH253973   4.175   6.294   2.677 -0.4314  0.1716 -0.1504
10853TIP3    H153974   4.213   6.211   2.648  0.6948  1.2206 -1.9574
10853TIP3    H253975   4.091   6.300   2.631  0.7057  1.1761 -2.2645
10854TIP3   OH253976   4.384   4.896   5.719 -0.1926  0.1248 -0.8704
10854TIP3    H153977   4.319   4.875   5.786  0.2922  1.4581  0.0668
10854TIP3    H253978   4.358   4.844   5.643 -0.3028 -2.0644  0.5700
10855TIP3   OH253979   6.276   2.111  16.008 -0.2237  0.0309 -0.3204
10855TIP3    H153980   6.310   2.200  16.012  1.1410 -0.4174 -1.1405
10855TIP3    H253981   6.301   2.080  15.921 -3.3946 -0.1269 -1.2903
10856TIP3   OH253982   3.429   6.361  13.761  0.2151  1.0865 -0.2613
10856TIP3    H153983   3.391   6.296  13.821  0.0735  1.8683  0.5232
10856TIP3    H253984   3.497   6.313  13.714  0.5017  0.4971  0.7097
10857TIP3   OH253985   5.669   4.566  15.005 -0.5872 -0.4314 -0.4149
10857TIP3    H153986   5.722   4.638  14.971  1.0245 -0.4021  1.9059
10857TIP3    H253987   5.579   4.599  15.001 -0.0775  0.9731 -1.0812
10858TIP3   OH253988   4.093   4.380   0.598 -0.0213  0.3105 -0.5857
10858TIP3    H153989   4.092   4.452   0.536 -1.1389  0.4900 -0.3808
10858TIP3    H253990   4.133   4.416   0.677  1.1376  0.1626 -1.0880
10859TIP3   OH253991   2.584   6.536   3.006  0.3367  0.3172  0.1808
10859TIP3    H153992   2.548   6.565   2.922 -0.1057 -0.5826  0.0524
10859TIP3    H253993   2.667   6.495   2.983 -0.1499 -0.6262  0.0889
10860TIP3   OH253994   6.046   4.200   1.254 -0.4770  0.1582 -0.0497
10860TIP3    H153995   6.115   4.169   1.195 -0.6790 -0.9928  0.2946
10860TIP3    H253996   5.996   4.262   1.201  0.6300  0.7927 -0.3986
10861TIP3   OH253997   2.366   4.222   0.679 -0.3033  0.2200  0.3728
10861TIP3    H153998   2.398   4.136   0.709 -0.1955  0.9050  2.4097
10861TIP3    H253999   2.412   4.285   0.735 -1.3347  1.5413 -0.2189
10862TIP3   OH254000   0.008   0.769  16.513  0.6845  0.1102 -0.2224
10862TIP3    H154001  -0.024   0.692  16.466 -2.1162  0.8077  0.3587
10862TIP3    H254002  -0.039   0.842  16.473  0.0231  0.9906  2.0103
10863TIP3   OH254003   6.227   3.737   5.472  0.0676 -0.2654  0.3819
10863TIP3    H154004   6.294   3.801   5.497 -0.2238 -0.0629  0.6624
10863TIP3    H254005   6.276   3.660   5.444  0.4193 -0.3173  1.0979
10864TIP3   OH254006   3.897   4.754   3.585  0.3155 -0.2754  0.2696
10864TIP3    H154007   3.945   4.837   3.578 -0.4588  0.1286 -0.4054
10864TIP3    H254008   3.887   4.740   3.679 -1.4317  1.5350  0.4233
10865TIP3   OH254009   5.090   5.040  11.427 -0.3650  0.0445 -0.1595
10865TIP3    H154010   5.081   5.057  11.334 -4.5142  0.6171  0.1446
10865TIP3    H254011   5.066   5.123  11.469  0.7785 -0.3896  1.4355
10866TIP3   OH254012   6.218   5.536   1.153 -0.0306  0.0184  0.3223
10866TIP3    H154013   6.176   5.505   1.072  2.0541 -0.6883 -0.5481
10866TIP3    H254014   6.155   5.513   1.221 -2.3705  1.6477 -1.1350
10867TIP3   OH254015   2.835   0.344  13.731 -0.4268 -0.3515 -0.3741
10867TIP3    H154016   2.839   0.373  13.822 -0.8905  0.8710 -0.7187
10867TIP3    H254017   2.742   0.322  13.717 -0.4714  0.0546 -0.7226
10868TIP3   OH254018   6.697   1.306   6.535 -0.4259 -0.0785 -0.4411
10868TIP3    H154019   6.757   1.239   6.502 -0.3529 -0.2565  0.0342
10868TIP3    H254020   6.633   1.257   6.587 -0.9046  0.1259 -0.8340
10869TIP3   OH254021   0.204   6.387  11.518 -0.4473 -0.3855 -0.2318
10869TIP3    H154022   0.274   6.383  11.452  0.8398  0.5585  0.9925
10869TIP3    H254023   0.225   6.318  11.580 -0.6500 -0.1595  0.0930
10870TIP3   OH254024   2.645   5.369   3.245 -0.5271 -0.5835 -0.4144
10870TIP3    H154025   2.572   5.309   3.232 -0.3237 -1.2722  1.3944
10870TIP3    H254026   2.610   5.439   3.301 -0.4959  0.5132 -1.7095
10871TIP3   OH254027   1.646   6.089  16.492  0.2613  0.3956 -0.2288
10871TIP3    H154028   1.596   6.111  16.413  0.3942  0.3076 -0.3370
10871TIP3    H254029   1.725   6.046  16.460 -0.3793 -1.0297 -0.0016
10872TIP3   OH254030   2.745   4.476  16.726  0.1352  0.5093 -0.3266
10872TIP3    H154031   2.744   4.380  16.724 -1.0200  0.4309  1.8600
10872TIP3    H254032   2.672   4.500  16.781 -0.6347  2.7702 -2.1765
10873TIP3   OH254033   3.983   3.366  16.255  0.4944  0.4228  0.8334
10873TIP3    H154034   3.951   3.276  16.244 -0.9533  0.7881  1.6982
10873TIP3    H254035   4.060   3.358  16.311  1.5095 -0.4225 -0.6227
10874TIP3   OH254036   0.333   4.073  15.822  0.4738 -0.7704  0.8395
10874TIP3    H154037   0.333   4.129  15.900  2.7561 -0.5058  0.7189
10874TIP3    H254038   0.258   4.015  15.834  0.3435 -0.2561  2.8726
10875TIP3   OH254039   3.520   1.495   1.867 -0.7030 -0.2449 -0.2174
10875TIP3    H154040   3.465   1.563   1.905 -1.9778 -2.0442  1.3080
10875TIP3    H254041   3.463   1.419   1.857  1.2489 -1.9290  0.6057
10876TIP3   OH254042   6.530   3.271   0.365  0.7933  0.0718  0.1735
10876TIP3    H154043   6.436   3.285   0.363  0.8133  1.8884  3.7894
10876TIP3    H254044   6.541   3.186   0.407  0.8633 -0.8062 -1.5073
10877TIP3   OH254045   5.114   6.004   1.238 -0.2356 -0.0944  0.4125
10877TIP3    H154046   5.196   5.957   1.226 -0.2560 -0.1600  0.5266
10877TIP3    H254047   5.047   5.935   1.241 -0.0872 -0.2241  2.4464
10878TIP3   OH254048   4.080   3.496   0.466  0.6780 -0.5534  0.1187
10878TIP3    H154049   4.050   3.564   0.407  1.7157  0.1691  0.3885
10878TIP3    H254050   4.077   3.536   0.553  0.4561 -1.1430  0.3848
10879TIP3   OH254051   5.993   2.309  13.431  0.4116 -0.0939  1.0612
10879TIP3    H154052   5.969   2.234  13.377  0.5750 -0.8697  2.0279
10879TIP3    H254053   6.086   2.323  13.413  0.3260  0.0285  0.7071
10880TIP3   OH254054   4.962   3.200   1.066  0.4378 -0.2858 -0.2503
10880TIP3    H154055   4.883   3.169   1.111  0.5492 -1.1937 -0.6509
10880TIP3    H254056   5.026   3.129   1.079  0.7812 -0.1241 -0.9996
10881TIP3   OH254057   2.360   6.311  11.236  0.2556 -0.0513  0.0730
10881TIP3    H154058   2.311   6.290  11.316 -1.8100  0.4521 -0.9858
10881TIP3    H254059   2.393   6.399  11.251  2.6669 -1.1029  1.5902
10882TIP3   OH254060   4.841   5.818  12.596 -0.7690 -0.0106 -0.5402
10882TIP3    H154061   4.886   5.737  12.569 -1.1903 -0.2859 -0.4112
10882TIP3    H254062   4.902   5.859  12.657 -0.5204 -0.1937 -0.6601
10883TIP3   OH254063   5.037   5.128   2.024  0.3254 -0.3771  0.0668
10883TIP3    H154064   5.015   5.037   2.005  1.6063 -0.3368 -1.9912
10883TIP3    H254065   5.020   5.174   1.942 -1.3719  1.4956  1.3871
10884TIP3   OH254066   3.793   1.857  15.406  0.2419 -0.4727  0.2079
10884TIP3    H154067   3.758   1.848  15.317 -0.4024 -1.6488  0.5561
10884TIP3    H254068   3.737   1.801  15.459  0.8061 -0.0134  1.3100
10885TIP3   OH254069   5.472   1.955  10.985  0.4624 -0.2168  0.0221
10885TIP3    H154070   5.449   2.027  10.926 -1.3348 -0.0740  0.8370
10885TIP3    H254071   5.546   1.988  11.036 -0.0895  0.9152  0.1151
10886TIP3   OH254072   3.367   0.246  11.689  0.1448  0.2559 -0.2067
10886TIP3    H154073   3.304   0.184  11.652  1.7910 -0.9192 -1.1951
10886TIP3    H254074   3.332   0.266  11.776 -0.6805 -1.7595 -0.0060
10887TIP3   OH254075   2.355   4.706  11.195 -0.4949 -0.5849 -0.6416
10887TIP3    H154076   2.285   4.769  11.213  0.4661  0.2380  0.3523
10887TIP3    H254077   2.394   4.736  11.114  1.6424  1.7449  1.1132
10888TIP3   OH254078   4.960   2.274  13.594  0.9238  0.0473 -0.3108
10888TIP3    H154079   4.914   2.357  13.603 -0.7634 -1.0058  1.4754
10888TIP3    H254080   5.012   2.267  13.673  3.1540  0.5417 -1.6503
10889TIP3   OH254081   3.687   5.169   0.304 -0.2677 -0.1246  0.1939
10889TIP3    H154082   3.654   5.255   0.330 -0.7153 -0.3425  0.3502
10889TIP3    H254083   3.611   5.125   0.266  0.1928 -0.0844 -0.8089
10890TIP3   OH254084   0.633   5.814  16.735 -0.6242  0.6765 -0.1676
10890TIP3    H154085   0.633   5.722  16.762  1.5512  1.0295  1.3346
10890TIP3    H254086   0.541   5.834  16.719 -1.1788 -1.7170 -0.4524
10891TIP3   OH254087   1.198   1.184  15.720  0.5376  0.5874  0.0575
10891TIP3    H154088   1.236   1.115  15.774 -1.0499  0.4273  1.0097
10891TIP3    H254089   1.111   1.152  15.697 -0.0337  2.0429  0.0922
10892TIP3   OH254090   1.481   5.039   3.867  0.6129  0.3948  0.4424
10892TIP3    H154091   1.496   5.104   3.935 -1.7556  0.0996  1.3360
10892TIP3    H254092   1.516   4.957   3.903 -0.2875  0.3172  1.1501
10893TIP3   OH254093   4.366   6.088  12.026  0.3698 -0.0883 -0.2524
10893TIP3    H154094   4.335   6.178  12.018  0.6061 -0.1000 -1.3846
10893TIP3    H254095   4.349   6.049  11.941 -0.2867 -1.3066  0.4100
10894TIP3   OH254096   5.861   0.683  13.882  0.3601  0.0575 -0.2846
10894TIP3    H154097   5.881   0.694  13.975 -1.1193  0.8256 -0.0304
10894TIP3    H254098   5.866   0.588  13.868 -2.8578 -0.5006  1.4675
10895TIP3   OH254099   6.655   5.494   2.168 -0.3928 -0.4023 -0.4254
10895TIP3    H154100   6.662   5.415   2.114  0.5568  0.2344 -1.2781
10895TIP3    H254101   6.664   5.566   2.106  2.5795  0.3776  0.7159
10896TIP3   OH254102   6.688   2.826   5.003  0.1693  0.1778 -0.2864
10896TIP3    H154103   6.682   2.734   4.979 -1.5232  0.3510 -0.6473
10896TIP3    H254104   6.756   2.861   4.945 -0.4144 -0.4703 -1.4083
10897TIP3   OH254105   4.851   6.261   4.652  1.0251 -0.1949 -0.5499
10897TIP3    H154106   4.897   6.325   4.598 -0.7247  1.7210  0.1070
10897TIP3    H254107   4.834   6.306   4.735 -1.0842 -1.1580 -0.3885
10898TIP3   OH254108   1.159   4.042   0.481 -0.0371 -0.4701 -0.0114
10898TIP3    H154109   1.080   4.095   0.487 -0.3193 -0.9760  0.9350
10898TIP3    H254110   1.212   4.085   0.413  0.2430  1.6608  1.4725
10899TIP3   OH254111   6.559   3.997  12.925  0.2062  0.1282 -0.5504
10899TIP3    H154112   6.499   3.940  12.973 -1.1546  1.9570  0.0175
10899TIP3    H254113   6.637   4.000  12.979 -0.3605  0.1618  0.2872
10900TIP3   OH254114   3.378   5.207  17.141 -0.0682  0.9838  0.3479
10900TIP3    H154115   3.468   5.217  17.111 -0.1245 -1.2397 -0.7737
10900TIP3    H254116   3.383   5.212  17.236  1.1784  1.1618  0.2873
10901TIP3   OH254117   2.461   2.274   4.845  0.6102  0.4636  0.2255
10901TIP3    H154118   2.538   2.223   4.820 -0.6637 -2.0460  1.1659
10901TIP3    H254119   2.392   2.244   4.786 -1.2576 -2.1705  3.4515
10902TIP3   OH254120   2.381   0.822   5.745  0.6019 -0.1898  0.5124
10902TIP3    H154121   2.377   0.828   5.649  2.4133  1.1661  0.4625
10902TIP3    H254122   2.310   0.880   5.775 -0.7477 -1.5330  0.0391
10903TIP3   OH254123   4.737   6.023   1.977  0.0466 -0.1654  0.5980
10903TIP3    H154124   4.690   5.965   2.038 -2.1960  1.6469  0.7326
10903TIP3    H254125   4.821   6.039   2.020  0.8514 -3.3682  0.4595
10904TIP3   OH254126   2.312   3.946  15.664  0.0045 -0.5312 -0.6056
10904TIP3    H154127   2.300   4.036  15.632  1.0276 -0.6836 -1.4869
10904TIP3    H254128   2.268   3.945  15.748 -0.7882  0.5528 -0.9764
10905TIP3   OH254129   0.867   3.499  13.425 -0.0389  0.1697 -0.0566
10905TIP3    H154130   0.936   3.436  13.446 -2.6488 -2.4497  1.3111
10905TIP3    H254131   0.858   3.495  13.330  0.0672 -1.3204 -0.0224
10906TIP3   OH254132   4.999   1.907   1.972  0.1606 -0.0680 -0.6617
10906TIP3    H154133   5.010   1.920   2.066  2.0545 -0.2972 -0.8042
10906TIP3    H254134   5.061   1.837   1.951 -0.5278 -0.2925 -2.0137
10907TIP3   OH254135   5.075   3.662   1.461 -0.1179  0.0580 -0.2632
10907TIP3    H154136   5.032   3.701   1.385 -1.2822 -2.0685 -0.8039
10907TIP3    H254137   5.039   3.710   1.536 -0.1740  1.1362 -0.9603
10908TIP3   OH254138   1.562   3.153   3.168  0.5098  1.1813 -0.0535
10908TIP3    H154139   1.543   3.235   3.124  0.6321  1.7417  0.9068
10908TIP3    H254140   1.655   3.157   3.188  0.5874  0.6610 -0.2792
10909TIP3   OH254141   6.622   1.862   2.071 -0.4188  0.5555  0.5379
10909TIP3    H154142   6.574   1.880   2.152 -0.2509  0.1844  0.7227
10909TIP3    H254143   6.706   1.906   2.084 -0.2387  0.1550  0.7354
10910TIP3   OH254144   5.155   0.668  16.475  0.3136  0.2140  0.0716
10910TIP3    H154145   5.210   0.738  16.510 -0.7058  0.2140  1.8168
10910TIP3    H254146   5.176   0.592  16.530 -0.0373 -0.3091 -0.5044
10911TIP3   OH254147   4.804   4.516   2.905  0.0522  0.5247 -0.2658
10911TIP3    H154148   4.753   4.596   2.889  1.9814  1.6776 -0.9623
10911TIP3    H254149   4.854   4.535   2.984 -0.1219 -0.3423  0.0542
10912TIP3   OH254150   5.355   4.120   0.943  0.4521  0.3845 -0.2735
10912TIP3    H154151   5.264   4.127   0.914  0.3686 -1.6900 -0.6752
10912TIP3    H254152   5.372   4.026   0.946  2.2320  0.6872  0.9485
10913TIP3   OH254153   1.423   2.906  12.316 -0.3594 -0.6376 -0.2172
10913TIP3    H154154   1.447   2.959  12.240 -0.3564  1.8150  1.3909
10913TIP3    H254155   1.505   2.864  12.342 -0.3898 -1.6060 -1.6040
10914TIP3   OH254156   5.396   5.799   1.508  0.5118 -0.1185 -0.1059
10914TIP3    H154157   5.391   5.889   1.539  2.0753 -0.5791  1.6672
10914TIP3    H254158   5.351   5.800   1.423 -0.1863  2.1330  0.2317
10915TIP3   OH254159   0.637   3.639  15.237 -0.6130 -0.2112  0.1595
10915TIP3    H154160   0.577   3.699  15.192 -1.1970 -0.3327  0.7705
10915TIP3    H254161   0.595   3.553  15.230 -0.0453 -0.4731 -0.2283
10916TIP3   OH254162   3.706   3.861  15.228  0.1209 -0.0862  0.6206
10916TIP3    H154163   3.734   3.952  15.221 -1.2432  0.2552 -1.3045
10916TIP3    H254164   3.624   3.866  15.278  0.0427 -0.2448  0.5079
10917TIP3   OH254165   6.277   6.332  12.067  0.3515 -0.6975  0.2620
10917TIP3    H154166   6.303   6.265  12.004  1.4912 -0.3707  0.3693
10917TIP3    H254167   6.254   6.408  12.012  1.0844 -0.5002  0.2185
10918TIP3   OH254168   0.206   6.298  15.315 -0.0049  0.4585 -0.0894
10918TIP3    H154169   0.201   6.382  15.270  1.8413 -1.2489 -3.9101
10918TIP3    H254170   0.176   6.234  15.250 -0.8353 -1.9666  2.4667
10919TIP3   OH254171   4.023   2.948   2.202  0.0584 -0.5226  0.2293
10919TIP3    H154172   3.961   2.927   2.132 -0.8177  0.2404  0.7563
10919TIP3    H254173   3.971   2.943   2.282  0.8592 -0.5856  0.7530
10920TIP3   OH254174   5.973   0.572  16.225 -0.0737 -0.2569 -0.6102
10920TIP3    H154175   5.881   0.550  16.209 -0.1026 -1.6359  1.1197
10920TIP3    H254176   6.022   0.497  16.192  0.6288  1.1507 -2.9845
10921TIP3   OH254177   3.563   1.356   4.874 -0.0606  0.8692 -0.6595
10921TIP3    H154178   3.540   1.265   4.857 -0.8590  1.1468 -1.1331
10921TIP3    H254179   3.583   1.358   4.968  2.1947 -0.2304 -1.0458
10922TIP3   OH254180   6.394   3.558   2.088 -0.3226  0.2241  0.0037
10922TIP3    H154181   6.339   3.549   2.010  0.3704  0.8809 -0.5680
10922TIP3    H254182   6.375   3.479   2.138  0.2426 -0.9130 -1.4877
10923TIP3   OH254183   2.720   4.018   3.596  0.2417  0.4363  0.3059
10923TIP3    H154184   2.748   3.928   3.579  2.1528  1.2643 -1.3265
10923TIP3    H254185   2.704   4.020   3.691  2.8873 -0.9779  0.8967
10924TIP3   OH254186   1.750   1.533   0.852 -0.4537  0.1698  0.5665
10924TIP3    H154187   1.803   1.495   0.922 -0.2649 -3.6497 -1.3667
10924TIP3    H254188   1.674   1.475   0.845 -0.0810 -0.1230 -2.7556
10925TIP3   OH254189   0.369   5.785  12.954  0.5795 -0.1488  0.4759
10925TIP3    H154190   0.331   5.856  13.006  1.9436  0.6542  0.4426
10925TIP3    H254191   0.345   5.706  13.001 -0.7931  0.3441  0.6397
10926TIP3   OH254192   6.045   0.522  15.240  0.5506 -0.4136  0.3001
10926TIP3    H154193   6.030   0.446  15.297  0.2173 -0.9227 -0.4481
10926TIP3    H254194   6.138   0.519  15.220  0.2605 -1.5720 -1.0058
10927TIP3   OH254195   3.691   3.296  16.870 -0.2944 -0.0230  0.1400
10927TIP3    H154196   3.603   3.258  16.868  0.0056 -0.7295  0.2083
10927TIP3    H254197   3.702   3.335  16.783 -0.8029  0.3789  0.2469
10928TIP3   OH254198   2.593   5.724  16.382  0.3585  0.3088  0.1193
10928TIP3    H154199   2.625   5.634  16.376 -2.4410 -0.8575  0.9002
10928TIP3    H254200   2.610   5.749  16.473 -1.8608 -0.7905  0.9142
10929TIP3   OH254201   1.985   4.653  16.855  0.0684 -0.0037 -0.6790
10929TIP3    H154202   1.953   4.565  16.834  0.4712 -0.0609 -1.0556
10929TIP3    H254203   2.021   4.686  16.773 -2.4088  1.5475 -1.2846
10930TIP3   OH254204   3.236   5.801   0.757 -0.0854 -0.1904 -0.7123
10930TIP3    H154205   3.272   5.777   0.671 -1.3774  0.7782 -1.5787
10930TIP3    H254206   3.188   5.882   0.740 -0.6923 -0.1880  0.8643
10931TIP3   OH254207   5.929   4.549  12.443  0.1720 -0.6550  0.0097
10931TIP3    H154208   6.005   4.580  12.393  0.1242  0.4478  0.6041
10931TIP3    H254209   5.909   4.464  12.403  2.5364 -1.6375  0.7162
10932TIP3   OH254210   4.716   3.198   1.208  0.2176  0.0109 -0.3472
10932TIP3    H154211   4.700   3.280   1.161  1.5718  0.0763 -0.7391
10932TIP3    H254212   4.632   3.153   1.206 -0.4612  1.2386 -0.4179
10933TIP3   OH254213   3.880   2.533   2.376  0.1600  0.2443  0.1387
10933TIP3    H154214   3.922   2.479   2.310 -0.7920 -0.3801  0.0226
10933TIP3    H254215   3.836   2.602   2.326  0.1273  0.2522  0.1781
10934TIP3   OH254216   0.419   6.293  14.779  0.0088 -0.3327  0.1314
10934TIP3    H154217   0.467   6.350  14.840 -0.6727 -1.0549  1.3926
10934TIP3    H254218   0.329   6.325  14.784  0.2874  0.9755 -2.1648
10935TIP3   OH254219   3.240   1.586   0.501  0.2355  0.2767  0.5981
10935TIP3    H154220   3.260   1.645   0.574 -0.5500 -0.2259  1.2411
10935TIP3    H254221   3.157   1.618   0.467  0.1375 -0.0577  0.5244
10936TIP3   OH254222   6.175   6.262  16.225  0.5874  0.1938  0.7701
10936TIP3    H154223   6.126   6.194  16.272 -1.4831  0.3962 -0.9452
10936TIP3    H254224   6.262   6.225  16.214 -0.1109 -1.6495  1.0331
10937TIP3   OH254225   3.286   2.661  12.889  0.4058  0.0454 -0.2370
10937TIP3    H154226   3.382   2.667  12.892  0.3860  0.1164  0.2128
10937TIP3    H254227   3.259   2.658  12.980 -0.1724  2.0997 -0.3104
10938TIP3   OH254228   5.376   4.786  10.672  0.1413 -0.1312 -0.6010
10938TIP3    H154229   5.441   4.808  10.738  1.0311  1.3864 -1.9287
10938TIP3    H254230   5.299   4.837  10.696  0.1710 -0.2447 -0.2591
10939TIP3   OH254231   1.193   4.245  16.288  0.0740  0.3580 -0.2228
10939TIP3    H154232   1.282   4.210  16.282  0.4109  1.2434 -0.5986
10939TIP3    H254233   1.182   4.298  16.209  0.1556  2.3471  1.0239
10940TIP3   OH254234   5.569   5.034  10.530  0.2538 -0.0340  0.0069
10940TIP3    H154235   5.593   5.070  10.616 -0.1778 -0.5428  0.3504
10940TIP3    H254236   5.512   5.101  10.492 -0.7602 -0.4369  0.7545
10941TIP3   OH254237   3.039   0.316  16.835 -0.0158 -0.5863 -0.1515
10941TIP3    H154238   3.037   0.377  16.762 -0.0873 -1.1351 -0.6166
10941TIP3    H254239   3.030   0.371  16.913 -2.0531 -0.1506 -0.6377
10942TIP3   OH254240   2.931   6.296  12.381 -0.2462  0.0413 -0.3880
10942TIP3    H154241   2.842   6.329  12.369 -1.0273 -2.2990 -1.5363
10942TIP3    H254242   2.940   6.286  12.476 -1.1020  0.5255 -0.2412
10943TIP3   OH254243   5.638   3.403   2.651  0.4361  0.6592 -0.1753
10943TIP3    H154244   5.705   3.379   2.715  0.3405  1.1335  0.1051
10943TIP3    H254245   5.685   3.453   2.584  0.7405 -0.7348 -1.0453
10944TIP3   OH254246   6.368   0.301   1.624  0.0227 -0.1732  0.2878
10944TIP3    H154247   6.452   0.273   1.589  0.8500  0.9502  1.2794
10944TIP3    H254248   6.366   0.396   1.610 -0.2005  0.1122  1.9892
10945TIP3   OH254249   1.549   3.452   4.744  0.0419  0.5052 -0.2042
10945TIP3    H154250   1.527   3.450   4.837 -0.8607  0.7254 -0.4039
10945TIP3    H254251   1.616   3.384   4.734 -0.5197 -0.1586  0.4412
10946TIP3   OH254252   0.225   1.414  14.462  0.1001  0.5886 -0.0285
10946TIP3    H154253   0.215   1.335  14.514  0.0503  1.6946  1.7431
10946TIP3    H254254   0.204   1.388  14.373  0.0910 -1.3701  0.5165
10947TIP3   OH254255   3.449   1.162   3.717  0.6068  0.2603 -0.2308
10947TIP3    H154256   3.354   1.154   3.709  0.5316 -1.1621  1.4444
10947TIP3    H254257   3.466   1.159   3.811  2.3566 -0.1299 -0.5183
10948TIP3   OH254258   5.102   1.223   1.782  0.2445 -0.2073 -0.2675
10948TIP3    H154259   5.044   1.179   1.720  1.1957 -1.0946 -0.5443
10948TIP3    H254260   5.133   1.153   1.840 -1.1963  0.6869  1.7346
10949TIP3   OH254261   2.011   0.260   3.456  0.6116  0.3395 -0.5587
10949TIP3    H154262   2.031   0.251   3.363  1.5542 -1.2737 -0.2411
10949TIP3    H254263   1.964   0.343   3.463  1.2652  0.9002 -2.3489
10950TIP3   OH254264   2.488   2.097  12.719  0.0093  0.6103  1.0408
10950TIP3    H154265   2.419   2.031  12.720 -0.4358  1.0273 -0.2487
10950TIP3    H254266   2.567   2.050  12.690 -0.2888  0.6175  0.1961
10951TIP3   OH254267   5.715   5.419  12.240  0.4790  0.3824 -0.0390
10951TIP3    H154268   5.623   5.409  12.264  0.5423 -1.8859 -0.5177
10951TIP3    H254269   5.713   5.457  12.152 -0.2857 -3.4504 -1.9081
10952TIP3   OH254270   5.230   4.458   2.257  0.1515 -0.1357 -0.4725
10952TIP3    H154271   5.241   4.539   2.207  0.3701  0.3678  0.3753
10952TIP3    H254272   5.136   4.440   2.253  0.1247  0.0752 -0.7900
10953TIP3   OH254273   3.855   2.422  14.562 -0.1774 -0.1108 -0.0373
10953TIP3    H154274   3.764   2.392  14.561  0.3083 -1.6742 -0.7734
10953TIP3    H254275   3.855   2.500  14.507 -0.7268 -1.2569 -1.7130
10954TIP3   OH254276   4.607   3.146   5.092 -0.1136  0.2233 -0.3029
10954TIP3    H154277   4.665   3.071   5.105 -0.1289  0.3569  0.6396
10954TIP3    H254278   4.611   3.165   4.998  1.1421  0.0529 -0.2904
10955TIP3   OH254279   3.389   2.934  10.827  0.0349 -0.1445  0.4411
10955TIP3    H154280   3.434   2.918  10.744 -1.2868 -0.6295 -0.1992
10955TIP3    H254281   3.449   2.990  10.876  0.5588  0.6871 -1.0901
10956TIP3   OH254282   2.364   0.958  11.085  0.0889  0.0220  0.0206
10956TIP3    H154283   2.313   0.878  11.094 -0.3072  0.1205 -1.1831
10956TIP3    H254284   2.455   0.928  11.079 -0.0982 -0.3969 -0.9651
10957TIP3   OH254285   3.662   5.281  12.169  0.2250 -0.1909  0.0788
10957TIP3    H154286   3.710   5.221  12.113  0.7319 -0.1186  0.4329
10957TIP3    H254287   3.613   5.337  12.109  0.3820 -0.4286 -0.2702
10958TIP3   OH254288   3.450   0.023   5.166  0.0672 -0.1325 -0.2750
10958TIP3    H154289   3.359   0.023   5.136 -0.2147 -0.9663  0.5236
10958TIP3    H254290   3.448   0.070   5.249  0.6607  1.2461 -1.0092
10959TIP3   OH254291   4.474   2.722   0.207  0.0843  0.0241  0.4053
10959TIP3    H154292   4.490   2.685   0.294  1.5008  1.7760  0.9754
10959TIP3    H254293   4.522   2.665   0.147 -0.4424 -0.8806  0.8204
10960TIP3   OH254294   3.139   4.396   2.923 -0.2348 -0.2872 -0.2776
10960TIP3    H154295   3.097   4.452   2.987  0.6116  0.1953 -0.1381
10960TIP3    H254296   3.233   4.403   2.942 -0.0298 -0.7259 -1.0837
10961TIP3   OH254297   6.547   5.021  11.629  1.0003  0.0101  0.0304
10961TIP3    H154298   6.610   4.950  11.619  2.5363  1.5197 -1.7014
10961TIP3    H254299   6.468   4.990  11.585  1.6200 -0.6745 -0.6137
10962TIP3   OH254300   4.960   3.286   2.649 -0.0437 -0.1683 -0.2304
10962TIP3    H154301   5.011   3.353   2.695  0.0251  0.1821 -0.8188
10962TIP3    H254302   4.874   3.325   2.637 -0.7778 -1.0871  1.5601
10963TIP3   OH254303   3.794   1.161  11.360  0.8024  0.0439 -0.0153
10963TIP3    H154304   3.707   1.128  11.382  0.1613  0.9671 -1.0503
10963TIP3    H254305   3.797   1.156  11.264  1.4555  1.0895 -0.0553
10964TIP3   OH254306   1.646   0.796   0.784 -0.1496 -0.9110 -0.2404
10964TIP3    H154307   1.633   0.853   0.709 -1.6701  0.8646  1.2615
10964TIP3    H254308   1.729   0.751   0.766  0.7423  1.2019 -1.8744
10965TIP3   OH254309   6.469   4.134   0.640 -0.7248 -0.1062  0.7424
10965TIP3    H154310   6.399   4.108   0.580 -0.1238  0.1974 -0.1112
10965TIP3    H254311   6.503   4.215   0.603  0.8709 -0.8684  0.4653
10966TIP3   OH254312   0.978   5.163  17.246  0.2068 -0.1473  0.2864
10966TIP3    H154313   0.938   5.249  17.240  1.0114  0.2004 -0.3020
10966TIP3    H254314   1.055   5.176  17.301  1.3992 -0.0545 -1.3359
10967TIP3   OH254315   1.927   4.392  17.054  0.1234 -0.0422  0.3072
10967TIP3    H154316   1.992   4.395  16.984  0.1277  0.5864  0.3278
10967TIP3    H254317   1.907   4.299  17.065  0.6604 -0.2002 -0.0283
10968TIP3   OH254318   1.913   2.557   0.362  0.2988  0.3061 -0.0138
10968TIP3    H154319   1.984   2.536   0.302  0.7594 -1.9226  1.1881
10968TIP3    H254320   1.890   2.473   0.403 -2.3974  1.0958  0.3389
10969TIP3   OH254321   5.112   0.964  15.853 -0.5637 -0.1513 -0.0065
10969TIP3    H154322   5.197   1.006  15.838 -0.2731 -0.9300 -0.5893
10969TIP3    H254323   5.129   0.901  15.924 -0.3202 -1.2202 -0.9761
10970TIP3   OH254324   0.822   3.355  15.883  0.1366  0.3221 -0.3292
10970TIP3    H154325   0.756   3.419  15.857  0.5527  0.5551 -0.8198
10970TIP3    H254326   0.775   3.295  15.942 -0.8415 -0.2399 -1.6250
10971TIP3   OH254327   2.077   2.282   5.097  0.0165  0.5964  0.1756
10971TIP3    H154328   2.117   2.368   5.081 -0.1847  0.7166  0.3144
10971TIP3    H254329   2.037   2.259   5.013 -2.2158  1.8454  0.8177
10972TIP3   OH254330   0.646   3.502  11.339 -0.5912 -1.0576  0.5441
10972TIP3    H154331   0.691   3.460  11.265 -1.5357 -0.2111 -0.5542
10972TIP3    H254332   0.638   3.433  11.405  0.6520 -1.7181  0.0248
10973TIP3   OH254333   3.787   1.082   5.691  0.1386  0.3404  0.0125
10973TIP3    H154334   3.796   1.154   5.628  0.9280  1.1053  0.9779
10973TIP3    H254335   3.798   1.123   5.776 -0.8756 -0.6926  0.6751
10974TIP3   OH254336   0.282   6.757   1.805  0.3641 -0.7297  0.2619
10974TIP3    H154337   0.292   6.712   1.889  2.5587 -0.7654  0.0286
10974TIP3    H254338   0.370   6.787   1.783 -0.0239 -1.2451 -2.3179
10975TIP3   OH254339   2.470   4.204   2.950  1.0094 -0.0632 -0.5035
10975TIP3    H154340   2.426   4.271   2.897  0.5997 -1.4818 -2.0517
10975TIP3    H254341   2.524   4.253   3.012 -1.5348  1.7565  0.4568
10976TIP3   OH254342   1.672   1.918   0.141  0.4525 -0.3651  0.6095
10976TIP3    H154343   1.639   1.890   0.227  1.0294 -0.5586  0.7719
10976TIP3    H254344   1.767   1.905   0.147  0.7030  1.2932  0.5544
10977TIP3   OH254345   2.843   1.016   2.395 -0.0257  0.8164  0.0774
10977TIP3    H154346   2.781   1.084   2.422  0.5768  1.4875 -0.2089
10977TIP3    H254347   2.887   0.990   2.475 -1.6415 -0.6792  0.5365
10978TIP3   OH254348   5.492   2.961   1.022 -0.0145 -0.1265  0.1467
10978TIP3    H154349   5.423   2.979   0.959  1.1011  2.2394 -0.4984
10978TIP3    H254350   5.542   3.043   1.028  0.6296 -0.6230  3.2305
10979TIP3   OH254351   2.459   2.120   0.199  0.0238  0.2889 -0.6900
10979TIP3    H154352   2.442   2.152   0.287  0.9758 -0.8889 -0.0429
10979TIP3    H254353   2.420   2.185   0.141 -0.8822  0.9257  0.6019
10980TIP3   OH254354   3.094   0.240  15.614  0.3618  0.0571 -0.1840
10980TIP3    H154355   3.064   0.273  15.529  0.4412 -0.0014 -0.2345
10980TIP3    H254356   3.186   0.265  15.618  0.5372 -0.5217 -0.4043
10981TIP3   OH254357   3.672   1.428  15.224 -0.1194 -0.6892  0.0962
10981TIP3    H154358   3.623   1.479  15.160 -0.3179 -1.2305 -0.1905
10981TIP3    H254359   3.681   1.342  15.184 -0.2328 -1.0346  0.7900
10982TIP3   OH254360   4.317   2.193  13.496 -0.0265  0.2766 -0.0795
10982TIP3    H154361   4.337   2.264  13.558  0.5559 -1.4764  1.8776
10982TIP3    H254362   4.260   2.233  13.430 -2.7260  1.7977  2.8852
10983TIP3   OH254363   6.525   4.857  12.841  0.1248  0.3627  0.2100
10983TIP3    H154364   6.609   4.901  12.832  0.5428 -0.5037 -0.2670
10983TIP3    H254365   6.467   4.923  12.879  1.0049  0.9824  0.5051
10984TIP3   OH254366   2.383   4.974  16.069 -0.0100 -0.4395 -0.3180
10984TIP3    H154367   2.472   4.941  16.065  0.2288  0.1832 -0.3146
10984TIP3    H254368   2.392   5.069  16.061 -0.6367 -0.3328  0.1287
10985TIP3   OH254369   4.283   0.387  13.676  0.3886  0.6789  0.1689
10985TIP3    H154370   4.297   0.310  13.731 -1.8155 -0.4545 -0.7190
10985TIP3    H254371   4.303   0.356  13.587 -1.0005  0.9548 -0.2540
10986TIP3   OH254372   2.552   1.675  16.061  0.1079  0.1344  0.3161
10986TIP3    H154373   2.640   1.667  16.026 -0.3865 -0.7403 -0.7774
10986TIP3    H254374   2.521   1.760  16.029 -0.8251 -1.2012 -2.6476
10987TIP3   OH254375   1.255   1.597   1.942  0.2178 -0.0578 -0.7151
10987TIP3    H154376   1.263   1.512   1.985 -1.7012  0.1744  0.2443
10987TIP3    H254377   1.258   1.578   1.849  2.2202 -0.8523 -0.5312
10988TIP3   OH254378   5.012   2.202  15.183  0.2022  0.1142  0.6439
10988TIP3    H154379   5.040   2.293  15.191 -2.1095  0.8753  0.8812
10988TIP3    H254380   4.941   2.204  15.119  0.8246 -1.7309 -0.1916
10989TIP3   OH254381   5.218   6.405   0.705 -0.1437 -0.6223 -0.0199
10989TIP3    H154382   5.138   6.449   0.676 -0.6863 -2.1684 -1.0273
10989TIP3    H254383   5.265   6.471   0.756 -1.8839  0.4389  0.2956
10990TIP3   OH254384   2.790   0.512  15.355  0.4482 -0.1749  0.4930
10990TIP3    H154385   2.775   0.540  15.264 -1.5917 -0.0126  0.8319
10990TIP3    H254386   2.727   0.441  15.369  0.8997 -0.3586  1.7258
10991TIP3   OH254387   6.755   4.977   2.345 -0.8895 -0.3207 -0.3837
10991TIP3    H154388   6.669   5.010   2.371 -0.2124  0.5184  0.9121
10991TIP3    H254389   6.815   5.049   2.363 -0.1027 -0.3023 -2.7911
10992TIP3   OH254390   5.068   2.737  12.545  0.6485  0.2208  0.3998
10992TIP3    H154391   5.054   2.675  12.618 -1.1996 -0.6629 -0.6326
10992TIP3    H254392   5.029   2.819  12.575 -0.0360 -0.1177  0.4494
10993TIP3   OH254393   5.676   6.167  13.689  0.1924 -0.4175  0.5840
10993TIP3    H154394   5.628   6.230  13.743 -1.1704 -0.4897 -0.4934
10993TIP3    H254395   5.608   6.120  13.642  1.3118 -0.9441 -0.5533
10994TIP3   OH254396   4.832   5.093   4.391  0.3141  0.6151  0.3805
10994TIP3    H154397   4.813   5.001   4.407  0.1614  0.4349 -0.7261
10994TIP3    H254398   4.922   5.093   4.358 -0.4862  0.5350 -2.0174
10995TIP3   OH254399   4.110   6.460   1.487 -0.1662 -0.6475  0.1604
10995TIP3    H154400   4.068   6.402   1.551  1.4595 -0.2878  1.6359
10995TIP3    H254401   4.177   6.507   1.538 -0.9319  2.0291 -1.0969
10996TIP3   OH254402   3.825   1.306   5.493 -0.5461  0.2285  0.3889
10996TIP3    H154403   3.847   1.398   5.510  0.2794  0.1642 -0.2599
10996TIP3    H254404   3.730   1.304   5.491 -0.6014  0.8094  1.7686
10997TIP3   OH254405   3.591   5.390   5.734  0.5910  0.2864 -0.6387
10997TIP3    H154406   3.657   5.413   5.800  0.9079  0.9102 -1.1620
10997TIP3    H254407   3.608   5.298   5.714  0.4296  0.0612  0.2160
10998TIP3   OH254408   3.590   0.791   2.442  0.2991  0.2333 -0.0411
10998TIP3    H154409   3.599   0.876   2.485 -0.1117  0.2641 -0.0058
10998TIP3    H254410   3.653   0.735   2.486 -0.5178  0.1053  1.0246
10999TIP3   OH254411   2.705   5.640  16.868  0.1582 -0.3846 -0.1113
10999TIP3    H154412   2.795   5.614  16.849  0.4449 -0.3612  1.1430
10999TIP3    H254413   2.659   5.557  16.883 -0.1773 -0.4311 -1.2555
11000TIP3   OH254414   3.096   5.915   5.865  0.2101  0.1206 -0.3666
11000TIP3    H154415   3.144   5.968   5.928  0.4840 -0.2727 -0.2402
11000TIP3    H254416   3.141   5.930   5.782  0.2008  0.1942 -0.3585
11001TIP3   OH254417   4.976   4.987   3.813 -0.6844  0.9825  0.2461
11001TIP3    H154418   4.992   5.077   3.841  2.7315  0.9847 -1.2045
11001TIP3    H254419   4.994   4.987   3.719  0.1081 -1.3056  0.3282
11002TIP3   OH254420   5.369   4.120   1.714  0.7893  0.4092 -0.8364
11002TIP3    H154421   5.354   4.041   1.766  2.3534 -1.3346 -2.8395
11002TIP3    H254422   5.463   4.119   1.696  0.4683  1.4144 -2.8882
11003TIP3   OH254423   4.462   3.971   4.918  0.0558 -0.1819  0.1697
11003TIP3    H154424   4.380   3.989   4.965 -0.6176  0.1874 -1.1145
11003TIP3    H254425   4.488   3.884   4.948 -0.1469  0.1991  1.5162
11004TIP3   OH254426   3.312   3.611  16.815 -0.6422 -0.0350 -0.3441
11004TIP3    H154427   3.322   3.517  16.829 -0.0100  0.1257  0.3501
11004TIP3    H254428   3.309   3.621  16.720 -0.7483 -0.7549 -0.4235
11005TIP3   OH254429   6.695   1.247  14.018  0.1668 -0.0112  0.0445
11005TIP3    H154430   6.684   1.153  14.033 -1.9532 -0.2185 -2.0993
11005TIP3    H254431   6.702   1.255  13.922 -1.1581  2.0861  0.0635
11006TIP3   OH254432   0.662   4.106   2.412 -0.1008  0.0916  0.3378
11006TIP3    H154433   0.641   4.090   2.504 -1.1393 -0.2717  0.0576
11006TIP3    H254434   0.580   4.137   2.374  0.4020  0.5547 -0.4021
11007TIP3   OH254435   2.428   3.299   3.221 -0.8960  0.2045 -0.0863
11007TIP3    H154436   2.409   3.214   3.259 -0.7065  0.0379 -0.3654
11007TIP3    H254437   2.385   3.299   3.136 -0.8586  0.3683 -0.1071
11008TIP3   OH254438   5.145   5.951   3.746  0.3638  0.1968  0.0249
11008TIP3    H154439   5.087   5.948   3.822  0.0640 -1.6864 -0.2372
11008TIP3    H254440   5.192   5.867   3.748  1.6893  0.8775 -0.8495
11009TIP3   OH254441   1.612   0.850  11.707 -0.1763 -0.1796 -0.1999
11009TIP3    H154442   1.617   0.886  11.796  0.7350  0.4604 -0.5035
11009TIP3    H254443   1.642   0.921  11.650  1.7867 -1.4345 -0.8138
11010TIP3   OH254444   2.468   5.565   5.858  0.2092  0.5410  0.1665
11010TIP3    H154445   2.379   5.578   5.825  0.2788 -0.3644 -0.4342
11010TIP3    H254446   2.516   5.643   5.831  0.6795 -0.7649 -3.4567
11011TIP3   OH254447   1.213   6.186   5.197  0.3112 -0.4241 -0.1842
11011TIP3    H154448   1.306   6.205   5.202 -0.1379  1.7112  1.2012
11011TIP3    H254449   1.204   6.129   5.120  2.4705  1.1046 -1.6728
11012TIP3   OH254450   2.979   4.572  10.756  0.4382  0.0472 -0.5734
11012TIP3    H154451   2.899   4.528  10.727  0.8568 -1.6155  0.6470
11012TIP3    H254452   2.949   4.646  10.808 -0.3933 -1.6707  1.5198
11013TIP3   OH254453   4.318   5.656   4.551 -0.3526  0.4022 -0.5423
11013TIP3    H154454   4.312   5.670   4.457 -1.0024  1.5986 -0.3458
11013TIP3    H254455   4.330   5.744   4.588  2.0055 -0.2204  0.3765
11014TIP3   OH254456   4.597   0.133   6.501 -0.4636 -0.6152 -0.3388
11014TIP3    H154457   4.654   0.057   6.510 -0.3422 -0.4710  0.1773
11014TIP3    H254458   4.645   0.192   6.443 -0.7025 -1.0659 -0.9941
11015TIP3   OH254459   6.590   2.601   5.421 -0.0244 -0.3206  0.2961
11015TIP3    H154460   6.546   2.518   5.439  0.9150 -1.1922 -1.1910
11015TIP3    H254461   6.531   2.668   5.455 -2.6700 -1.4098 -1.8551
11016TIP3   OH254462   3.099   2.408   0.962  0.3684  0.3142  0.4502
11016TIP3    H154463   3.020   2.399   0.908 -0.6492 -0.0993  1.9412
11016TIP3    H254464   3.171   2.411   0.899 -0.5920 -2.0480 -0.8760
11017TIP3   OH254465   0.126   0.335   5.514  0.8695  0.2921 -0.5011
11017TIP3    H154466   0.176   0.261   5.480 -1.5906 -1.8978  0.2697
11017TIP3    H254467   0.045   0.334   5.462  0.3840  1.8569  0.1759
11018TIP3   OH254468   4.460   6.453  16.036  0.4042  0.3683  0.1906
11018TIP3    H154469   4.525   6.465  15.967  1.0764  1.0806  0.9193
11018TIP3    H254470   4.477   6.525  16.097  0.5716 -0.8687  1.6670
11019TIP3   OH254471   3.880   4.243   4.317 -0.1606  0.1841  0.0636
11019TIP3    H154472   3.923   4.276   4.238  0.4248 -0.3294  0.1601
11019TIP3    H254473   3.848   4.322   4.362  1.9414  0.7321  0.7088
11020TIP3   OH254474   5.845   4.467   4.342  0.1014 -0.2160  0.1837
11020TIP3    H154475   5.845   4.387   4.289 -0.5073 -0.2351  0.2041
11020TIP3    H254476   5.893   4.443   4.421 -0.1837 -0.5985  0.2448
11021TIP3   OH254477   4.147   3.552   0.766  0.2018  0.6566  0.4582
11021TIP3    H154478   4.201   3.534   0.843 -0.5117 -1.0424  0.6111
11021TIP3    H254479   4.105   3.635   0.785  0.0411  0.2755  1.9250
11022TIP3   OH254480   6.738   1.325  16.897  0.1743 -0.3185  0.1554
11022TIP3    H154481   6.718   1.387  16.826  2.4719  0.1437 -0.1621
11022TIP3    H254482   6.670   1.341  16.962 -0.2800  1.3590 -0.6609
11023TIP3   OH254483   0.468   6.381   5.321 -0.2658  0.2636  0.4017
11023TIP3    H154484   0.562   6.379   5.304 -0.2371 -0.0244  0.5959
11023TIP3    H254485   0.461   6.404   5.413 -0.4184  1.6408  0.0728
11024TIP3   OH254486   5.095   4.869  13.057  0.5058  0.3513  0.3160
11024TIP3    H154487   5.001   4.879  13.045  0.4388 -0.3916  0.1516
11024TIP3    H254488   5.106   4.854  13.151  0.4993  0.7923  0.3895
11025TIP3   OH254489   4.872   0.947   6.120 -0.0542 -0.3451  0.4452
11025TIP3    H154490   4.906   1.004   6.189  0.0028 -1.3245  1.2507
11025TIP3    H254491   4.808   0.892   6.165 -1.8607  0.6428 -0.7933
11026TIP3   OH254492   3.731   6.317  15.276  0.4777 -0.2739 -0.0594
11026TIP3    H154493   3.754   6.232  15.315  0.8681  0.3543  1.1404
11026TIP3    H254494   3.673   6.295  15.203 -0.6826 -1.4908  1.1645
11027TIP3   OH254495   6.648   4.743  11.673  0.2863 -0.2333  0.0701
11027TIP3    H154496   6.695   4.665  11.703  0.6472  0.2798  0.9021
11027TIP3    H254497   6.716   4.810  11.664 -0.1095  0.1717  0.0378
11028TIP3   OH254498   6.137   2.363   5.409  0.1138 -0.0234 -0.2833
11028TIP3    H154499   6.122   2.289   5.350 -2.2109  0.5768 -0.5528
11028TIP3    H254500   6.073   2.351   5.479 -0.0194  1.4902 -0.1144
11029TIP3   OH254501   0.261   0.242  14.956  0.3744 -0.0273  0.1478
11029TIP3    H154502   0.241   0.183  15.028 -1.3093  0.3553  0.0262
11029TIP3    H254503   0.291   0.184  14.886 -1.7404 -0.8547 -0.1460
11030TIP3   OH254504   3.070   2.768  12.511  0.0178  0.2569 -0.1658
11030TIP3    H154505   3.107   2.807  12.432 -1.1700 -0.7970 -1.2997
11030TIP3    H254506   3.085   2.833  12.580  1.5094  0.9890 -1.1474
11031TIP3   OH254507   3.961   3.500   3.665 -0.0246 -0.8454  0.0929
11031TIP3    H154508   4.003   3.458   3.590  2.4486  2.6827 -0.7317
11031TIP3    H254509   4.027   3.498   3.734  0.8248  2.6983 -0.4518
11032TIP3   OH254510   1.926   3.183   2.214  0.3963 -0.2576  0.1855
11032TIP3    H154511   1.886   3.100   2.240  1.2450 -0.3567  1.2515
11032TIP3    H254512   1.862   3.249   2.241 -0.7599 -0.5809 -1.6154
11033TIP3   OH254513   2.315   5.573  17.102  0.2394  0.1106  0.9395
11033TIP3    H154514   2.249   5.603  17.164 -0.0172 -0.6171  1.0245
11033TIP3    H254515   2.387   5.542  17.157 -0.3003 -1.2563  0.9137
11034TIP3   OH254516   4.625   4.222  14.689  0.1040 -0.2728  0.2748
11034TIP3    H154517   4.642   4.204  14.782  0.4189  0.6157  0.4002
11034TIP3    H254518   4.627   4.136  14.648 -0.0097 -0.6790  1.0891
11035TIP3   OH254519   6.463   6.553  11.818 -0.2368 -0.4907 -0.1190
11035TIP3    H154520   6.392   6.549  11.881 -0.4469 -1.7927 -0.4257
11035TIP3    H254521   6.527   6.488  11.848 -0.7901 -1.8537 -1.7440
11036TIP3   OH254522   0.310   5.358  13.977 -0.0253 -0.2809  0.5953
11036TIP3    H154523   0.244   5.427  13.992  0.6072  0.3130  0.6767
11036TIP3    H254524   0.283   5.317  13.895  0.7517  1.4570 -0.5854
11037TIP3   OH254525   3.629   2.059  16.410 -0.4347  0.0275 -0.0401
11037TIP3    H154526   3.686   2.050  16.334 -0.4117  0.5799 -0.0931
11037TIP3    H254527   3.641   2.150  16.438  0.9059 -0.6188  1.6730
11038TIP3   OH254528   6.633   6.407  17.158  0.2013 -0.1769 -0.0004
11038TIP3    H154529   6.613   6.359  17.239  1.4719  0.1019  0.5024
11038TIP3    H254530   6.715   6.367  17.127 -0.6034 -0.7373 -1.5327
11039TIP3   OH254531   1.045   3.545  17.242 -0.0194 -0.0081  0.0250
11039TIP3    H154532   1.086   3.500  17.316  0.4164 -0.2660 -0.3696
11039TIP3    H254533   0.976   3.598  17.282  1.4556  1.3541  0.8369
11040TIP3   OH254534   1.455   4.625  13.786  0.1934  0.4819  0.0974
11040TIP3    H154535   1.541   4.585  13.799  0.1540  0.7181  1.1497
11040TIP3    H254536   1.394   4.567  13.830 -0.1498  0.5238 -0.3090
11041TIP3   OH254537   3.139   4.911   5.800  0.2489  0.1575 -0.0573
11041TIP3    H154538   3.190   4.890   5.878  0.6336 -2.1517 -0.8600
11041TIP3    H254539   3.164   5.001   5.779  1.5275  0.1970  1.4215
11042TIP3   OH254540   5.917   5.888   3.985  0.0849 -0.4826 -0.4305
11042TIP3    H154541   5.977   5.962   3.991 -0.3471 -0.1754  0.1476
11042TIP3    H254542   5.960   5.828   3.925  1.3753 -0.6354  0.5900
11043TIP3   OH254543   3.623   5.473  12.974  0.0148  0.2455  0.1875
11043TIP3    H154544   3.588   5.416  12.905  0.8989 -0.1157  0.0298
11043TIP3    H254545   3.623   5.560  12.935 -1.6626  0.4400  0.5434
11044TIP3   OH254546   6.342   5.381   5.173 -0.5063 -0.7111  0.8434
11044TIP3    H154547   6.389   5.298   5.167 -0.1312 -0.4263 -0.3737
11044TIP3    H254548   6.290   5.373   5.253  0.9527 -1.3764  1.7745
11045TIP3   OH254549   6.341   2.044   3.616  0.1346 -0.3291 -0.4209
11045TIP3    H154550   6.262   1.990   3.611  0.1052 -0.2705 -0.6145
11045TIP3    H254551   6.403   1.992   3.666  0.5151 -1.0421 -1.5961
11046TIP3   OH254552   1.066   4.685  13.390  0.1716 -0.0118  0.1041
11046TIP3    H154553   1.126   4.734  13.334 -1.7915 -0.9655 -3.0954
11046TIP3    H254554   1.112   4.604  13.410  1.1674  0.6288  0.4864
11047TIP3   OH254555   4.502   6.414  11.886  0.5810  0.3650 -0.5777
11047TIP3    H154556   4.448   6.484  11.848  0.1104  0.1956 -0.2250
11047TIP3    H254557   4.439   6.355  11.928  1.1540  1.4764  2.0440
11048TIP3   OH254558   4.824   5.251   0.987 -0.6723  0.5345  0.3766
11048TIP3    H154559   4.763   5.299   0.931 -1.7779 -0.9827  0.2525
11048TIP3    H254560   4.904   5.244   0.935 -1.0916  0.7025 -0.2956
11049TIP3   OH254561   6.227   2.133   4.874  0.2655  0.4546 -0.3107
11049TIP3    H154562   6.252   2.041   4.886 -2.0595 -0.0875  1.2475
11049TIP3    H254563   6.299   2.183   4.911  1.6955 -0.6831 -1.4118
11050TIP3   OH254564   0.838   3.825   5.258  0.4949  0.2875 -0.0794
11050TIP3    H154565   0.857   3.879   5.335  0.5528  1.4995 -0.9200
11050TIP3    H254566   0.916   3.769   5.248  0.6838  0.4493  0.4584
11051TIP3   OH254567   6.362   2.309   5.750 -0.0299 -0.1536  0.1069
11051TIP3    H154568   6.355   2.266   5.665  0.1966  1.4020 -0.7465
11051TIP3    H254569   6.293   2.270   5.803 -0.6231 -0.6797 -1.0224
11052TIP3   OH254570   2.000   6.511   3.548 -0.7583  0.2375 -0.0386
11052TIP3    H154571   2.057   6.574   3.593 -0.0071  0.3195 -1.0652
11052TIP3    H254572   1.962   6.459   3.619  0.0396  0.6436  0.7167
11053TIP3   OH254573   2.237   3.253  10.823  0.6058  0.0486  0.8310
11053TIP3    H154574   2.241   3.348  10.813  0.7011  0.0912  1.2663
11053TIP3    H254575   2.327   3.223  10.812  0.3048 -0.2401 -1.5684
11054TIP3   OH254576   6.095   3.352  14.887 -0.0706  0.5460  0.4540
11054TIP3    H154577   6.062   3.402  14.812 -1.4702 -0.3258  0.4658
11054TIP3    H254578   6.041   3.273  14.890  0.9408 -0.1457  1.5018
11055TIP3   OH254579   6.683   0.600  12.120  0.3713 -0.6412  0.4221
11055TIP3    H154580   6.735   0.556  12.053 -1.1113 -3.3270  0.8988
11055TIP3    H254581   6.594   0.601  12.086 -0.0523 -0.1918  1.4934
11056TIP3   OH254582   2.372   5.791   2.861 -0.4544 -0.2335 -0.1946
11056TIP3    H154583   2.313   5.723   2.893 -0.7558 -0.4076 -1.0825
11056TIP3    H254584   2.441   5.796   2.927 -0.0277 -1.9116 -0.4608
11057TIP3   OH254585   0.271   5.977   5.111 -0.7089 -0.4758  0.1852
11057TIP3    H154586   0.255   6.009   5.200  0.5430 -1.2411  0.7216
11057TIP3    H254587   0.328   5.901   5.123  0.3027 -0.0109 -1.3147
11058TIP3   OH254588   0.052   0.804   1.172 -0.1687  0.0457 -1.0913
11058TIP3    H154589   0.110   0.762   1.235 -0.7064  3.2369  1.8267
11058TIP3    H254590  -0.006   0.734   1.142  1.4571 -2.0379  0.3598
11059TIP3   OH254591   3.780   4.414   3.349 -0.3399  0.7493 -0.2501
11059TIP3    H154592   3.850   4.362   3.389 -2.3130 -0.2475  2.1806
11059TIP3    H254593   3.749   4.360   3.275  0.0105  0.1597  0.0243
11060TIP3   OH254594   1.085   2.420   4.793 -0.6656 -0.1205  0.4680
11060TIP3    H154595   1.121   2.434   4.706 -1.0797 -1.1203  0.1246
11060TIP3    H254596   1.056   2.507   4.821 -0.9573  0.1386 -0.5821
11061TIP3   OH254597   1.617   2.196   4.863  0.3857 -0.1927  0.0645
11061TIP3    H154598   1.537   2.245   4.885  0.5822  0.4957 -0.7225
11061TIP3    H254599   1.588   2.130   4.800  0.1448 -1.0197  1.0264
11062TIP3   OH254600   2.919   2.264  16.377 -0.0037  0.3323 -0.9013
11062TIP3    H154601   2.891   2.201  16.444 -0.2354  0.7666 -0.5835
11062TIP3    H254602   2.939   2.210  16.301 -0.6172 -0.0861 -0.7709
11063TIP3   OH254603   5.343   5.021   4.415  0.5822 -0.0955 -0.1202
11063TIP3    H154604   5.390   4.938   4.422  0.7726 -0.0078 -0.3234
11063TIP3    H254605   5.271   5.003   4.354  1.4351  0.2383 -1.2582
11064TIP3   OH254606   4.019   5.025   5.179  0.0932  0.1698 -0.1384
11064TIP3    H154607   4.037   5.102   5.233 -2.7857  0.1906  0.9663
11064TIP3    H254608   3.941   5.048   5.129 -1.1802 -2.1496  0.6332
11065TIP3   OH254609   4.381   1.718   5.000 -0.2616  0.1362 -0.7499
11065TIP3    H154610   4.334   1.721   5.084  1.2397  0.7895  0.0992
11065TIP3    H254611   4.400   1.810   4.980  1.6560 -0.1691 -0.4729
11066TIP3   OH254612   0.710   2.888   5.118  0.4161 -0.1326 -0.3656
11066TIP3    H154613   0.692   2.797   5.096 -1.3516 -0.1888  1.0477
11066TIP3    H254614   0.656   2.905   5.195  1.4343  1.8450 -0.0255
11067TIP3   OH254615   0.034   0.775  17.281 -0.7177  0.1617  0.1172
11067TIP3    H154616  -0.022   0.817  17.215 -0.7269 -1.0712 -0.6895
11067TIP3    H254617   0.118   0.764  17.237 -0.8265 -0.9884  0.1741
11068TIP3   OH254618   4.684   1.844   4.026 -0.1115  0.0053 -0.1231
11068TIP3    H154619   4.672   1.793   3.946 -0.0236 -2.0737  1.1176
11068TIP3    H254620   4.756   1.904   4.005 -2.1014  1.7861 -2.5697
11069TIP3   OH254621   0.882   5.758  15.704  0.3242 -0.0586 -0.0467
11069TIP3    H154622   0.972   5.769  15.672  0.4480  0.6150  0.5122
11069TIP3    H254623   0.875   5.819  15.777 -1.0330  0.9740 -0.9826
11070TIP3   OH254624   0.012   0.469  15.782  0.4937  0.7775  0.4841
11070TIP3    H154625  -0.037   0.426  15.851 -0.2319  0.3773 -0.2647
11070TIP3    H254626  -0.042   0.543  15.756  0.4928  0.6058 -0.0269
11071TIP3   OH254627   0.831   1.632  14.541  0.2673  0.0610 -0.0002
11071TIP3    H154628   0.763   1.577  14.502  0.5474 -0.6255  0.4378
11071TIP3    H254629   0.784   1.707  14.577 -0.2609 -0.4199  0.3256
11072TIP3   OH254630   1.916   5.423   3.882  0.0105 -0.4601  0.3909
11072TIP3    H154631   1.985   5.460   3.827 -0.0948 -1.0874 -0.1819
11072TIP3    H254632   1.845   5.404   3.821  0.2893 -2.1517  0.5644
11073TIP3   OH254633   4.965   6.743  14.659  0.1778 -0.0060 -0.0344
11073TIP3    H154634   5.021   6.699  14.595 -2.2462  0.5479 -2.7133
11073TIP3    H254635   4.936   6.673  14.718  0.0769 -1.1297 -1.3830
11074TIP3   OH254636   6.591   1.333   0.548 -0.5235  0.0238 -0.2309
11074TIP3    H154637   6.531   1.373   0.486  0.3599 -0.7734 -1.6629
11074TIP3    H254638   6.591   1.240   0.524  0.6218 -0.1239  0.2923
11075TIP3   OH254639   3.280   6.120   3.633  0.5430  0.3515  0.2268
11075TIP3    H154640   3.278   6.024   3.638  1.6884  0.1774 -1.7127
11075TIP3    H254641   3.191   6.146   3.655 -0.1357 -1.2413 -0.4311
11076TIP3   OH254642   3.039   5.190  14.801 -0.8111  0.5941  0.0419
11076TIP3    H154643   3.013   5.243  14.725 -0.5772 -0.1638 -0.5809
11076TIP3    H254644   3.112   5.238  14.839  2.8155 -1.5342 -3.3892
11077TIP3   OH254645   1.936   6.042  11.969  0.3824 -0.2051  0.0545
11077TIP3    H154646   1.941   5.947  11.971 -1.7204 -0.3852 -0.9473
11077TIP3    H254647   1.854   6.061  11.924  0.8176  2.0922  0.1094
11078TIP3   OH254648   5.038   4.106  17.243  0.0857  0.3261 -0.3622
11078TIP3    H154649   4.985   4.167  17.294  0.1086 -0.0537  0.1226
11078TIP3    H254650   4.974   4.060  17.188  0.0196  0.4940 -0.4260
11079TIP3   OH254651   5.990   5.015   4.458 -0.0106  0.1220  0.6946
11079TIP3    H154652   6.024   4.960   4.387 -3.1840  1.5545 -2.2445
11079TIP3    H254653   6.057   5.083   4.470  0.9622 -0.6057 -0.3653
11080TIP3   OH254654   3.678   3.012   2.265 -0.3574  0.4195  0.5890
11080TIP3    H154655   3.590   2.991   2.297 -0.7015  2.8557  1.4265
11080TIP3    H254656   3.688   3.106   2.281  1.3743  0.7805 -1.9969
11081TIP3   OH254657   0.929   1.566   2.087  0.0892  0.3016 -0.1450
11081TIP3    H154658   0.990   1.639   2.092  1.6475 -0.8207 -1.6463
11081TIP3    H254659   0.875   1.585   2.010  0.8405 -0.3540 -0.8448
11082TIP3   OH254660   5.659   0.314  11.917 -0.1305 -1.1947 -0.1193
11082TIP3    H154661   5.663   0.409  11.911  2.5371 -1.2061  0.3045
11082TIP3    H254662   5.671   0.284  11.826 -0.1098 -1.1151 -0.1437
11083TIP3   OH254663   0.687   5.294  11.112 -0.7343  0.3752 -0.9841
11083TIP3    H154664   0.752   5.257  11.053 -0.7751 -0.8708 -0.2777
11083TIP3    H254665   0.613   5.318  11.055 -0.4141  0.0404 -1.5439
11084TIP3   OH254666   4.648   1.406   5.412 -0.3396  0.3704  0.3226
11084TIP3    H154667   4.568   1.354   5.406  0.5251 -1.0413  0.7935
11084TIP3    H254668   4.632   1.467   5.484 -0.8979 -0.0422  0.5503
11085TIP3   OH254669   1.880   4.691   3.558 -0.4770 -0.0707  0.0579
11085TIP3    H154670   1.946   4.692   3.489  1.8273 -0.3922  2.1096
11085TIP3    H254671   1.912   4.754   3.622  0.5586 -3.5703  3.3710
11086TIP3   OH254672   3.537   5.364   4.466 -0.7940 -0.3748  0.3306
11086TIP3    H154673   3.527   5.357   4.561  0.2901  0.1824  0.5096
11086TIP3    H254674   3.539   5.458   4.449 -0.3311 -0.4638 -0.1561
11087TIP3   OH254675   1.268   6.650   5.877 -0.3902 -0.2442  0.5594
11087TIP3    H154676   1.243   6.661   5.785  1.1591 -1.0592  0.0013
11087TIP3    H254677   1.185   6.635   5.923 -1.2196  0.4718 -0.6427
11088TIP3   OH254678   2.125   5.885   2.115 -0.3980  0.1097 -0.0983
11088TIP3    H154679   2.159   5.796   2.127  0.5622  0.5113  0.2972
11088TIP3    H254680   2.094   5.910   2.202  0.7569  0.7115  0.1646
11089TIP3   OH254681   1.752   1.171   5.580  0.2064 -0.5809 -0.1195
11089TIP3    H154682   1.800   1.221   5.514 -0.2908  1.3527  0.8996
11089TIP3    H254683   1.747   1.083   5.544  2.8006 -0.4062 -1.1350
11090TIP3   OH254684   1.265   3.666  16.330 -0.0553  0.3502 -0.0662
11090TIP3    H154685   1.241   3.581  16.366 -4.9272  1.0103 -1.0618
11090TIP3    H254686   1.257   3.727  16.403  1.4473  0.2847  0.1853
11091TIP3   OH254687   6.370   5.433   2.467 -0.2336 -0.7162  0.0822
11091TIP3    H154688   6.418   5.468   2.542  0.8069 -0.2555 -0.7658
11091TIP3    H254689   6.437   5.391   2.413 -0.6469  0.4605 -1.4302
11092TIP3   OH254690   0.937   6.292  13.602 -0.1173 -0.1368 -0.1401
11092TIP3    H154691   0.862   6.233  13.596  0.2604 -0.6377  0.0731
11092TIP3    H254692   0.952   6.303  13.696  0.3804 -0.4191 -0.1881
11093TIP3   OH254693   6.062   3.851  10.806 -0.2819 -0.3042  0.2068
11093TIP3    H154694   6.141   3.821  10.762  0.0286  1.1008 -0.2348
11093TIP3    H254695   6.065   3.809  10.892  0.8132 -0.4613  0.0988
11094TIP3   OH254696   2.745   4.784   3.557 -0.2030  0.1172  0.1416
11094TIP3    H154697   2.807   4.721   3.593 -0.7227 -0.1400  0.6060
11094TIP3    H254698   2.784   4.869   3.575  0.5080 -0.0631 -0.4996
11095TIP3   OH254699   4.209   0.471  16.808 -0.4904 -0.8683 -0.0604
11095TIP3    H154700   4.238   0.392  16.763  1.9768  0.3541 -0.7445
11095TIP3    H254701   4.140   0.507  16.751 -0.1619 -1.4197 -0.8189
11096TIP3   OH254702   6.723   1.570  16.219  0.0333  0.4107  0.4296
11096TIP3    H154703   6.653   1.558  16.283 -1.2162 -2.3975 -1.2767
11096TIP3    H254704   6.779   1.493  16.232  1.3526  1.2864  0.0199
11097TIP3   OH254705   6.706   0.362   2.988  0.2055  0.2195 -0.0419
11097TIP3    H154706   6.653   0.404   2.920  0.4353  0.7266  0.0908
11097TIP3    H254707   6.731   0.278   2.950 -0.0830  0.2860 -0.3904
11098TIP3   OH254708   0.193   3.797   5.650  0.0262 -0.6383  0.1444
11098TIP3    H154709   0.119   3.780   5.708 -0.9763  2.9212  0.1093
11098TIP3    H254710   0.246   3.861   5.697  1.2691 -0.5657 -1.2935
11099TIP3   OH254711   1.749   5.478  14.718 -0.1985 -0.4277 -0.3023
11099TIP3    H154712   1.841   5.463  14.737 -0.6419 -2.0792  0.7588
11099TIP3    H254713   1.744   5.484  14.623  0.7415 -2.5195 -0.5278
11100TIP3   OH254714   4.633   0.913   1.485 -0.2283  0.4646 -0.0607
11100TIP3    H154715   4.597   0.867   1.560  0.1689  0.0838 -0.0963
11100TIP3    H254716   4.690   0.848   1.442  0.0438  0.8703 -0.3244
11101TIP3   OH254717   4.810   1.225   4.854  0.1170  0.4547 -0.0666
11101TIP3    H154718   4.886   1.283   4.854 -0.0262  0.6703  1.4762
11101TIP3    H254719   4.841   1.146   4.808  0.7818  1.1328 -0.8134
11102TIP3   OH254720   4.759   3.715   0.342 -0.5640  0.0463  0.0862
11102TIP3    H154721   4.790   3.682   0.426 -0.7236 -0.8527 -0.1949
11102TIP3    H254722   4.829   3.772   0.311 -0.1267 -0.2933  0.4374
11103TIP3   OH254723   5.755   3.977  10.789 -0.4473 -0.0643 -0.6017
11103TIP3    H154724   5.758   4.057  10.842  0.1634 -0.2229 -0.3853
11103TIP3    H254725   5.847   3.957  10.770 -0.5272 -1.1176 -0.0242
11104TIP3   OH254726   5.630   1.281   6.443 -0.6412 -0.0305 -0.7049
11104TIP3    H154727   5.613   1.187   6.451 -0.9595  0.0277 -0.6960
11104TIP3    H254728   5.714   1.286   6.397 -1.3720 -0.3071 -2.1272
11105TIP3   OH254729   2.159   1.550  11.763  0.1075 -0.7259 -0.1896
11105TIP3    H154730   2.162   1.531  11.669  3.1598 -0.1660 -0.3333
11105TIP3    H254731   2.155   1.463  11.804  1.0806 -1.1201 -0.8701
11106TIP3   OH254732   2.893   2.413  13.918 -0.0479 -0.2134 -0.3333
11106TIP3    H154733   2.861   2.325  13.900 -1.0406  0.4636 -2.1536
11106TIP3    H254734   2.983   2.412  13.887  0.0174 -0.6541 -0.1374
11107TIP3   OH254735   4.348   2.340   2.904 -0.2541 -0.2510  0.3533
11107TIP3    H154736   4.302   2.260   2.878 -0.1953 -0.4284  0.7920
11107TIP3    H254737   4.283   2.409   2.895 -1.4501 -0.8297  3.4104
11108TIP3   OH254738   1.303   6.372   0.714  0.4877 -0.9125 -0.7873
11108TIP3    H154739   1.247   6.400   0.786  0.2347 -0.1563 -1.2654
11108TIP3    H254740   1.380   6.334   0.756  0.6523  0.1345 -0.1182
11109TIP3   OH254741   4.665   3.194  11.776  0.3460 -0.1235  0.0841
11109TIP3    H154742   4.707   3.235  11.851  0.3494  1.7119 -0.8682
11109TIP3    H254743   4.694   3.103  11.779 -0.3206 -0.3090  2.7309
11110TIP3   OH254744   4.205   2.518   3.973 -0.2805  0.8898  0.0668
11110TIP3    H154745   4.209   2.608   4.008 -0.5638  0.8275  0.2588
11110TIP3    H254746   4.219   2.529   3.879 -0.1929  1.1255  0.1048
11111TIP3   OH254747   2.139   1.527   1.943 -0.4478  0.1113  0.0080
11111TIP3    H154748   2.148   1.553   2.035  0.3600  0.1484 -0.0759
11111TIP3    H254749   2.198   1.586   1.896  0.2555 -0.8636 -0.3572
11112TIP3   OH254750   3.200   1.912  12.718  0.5882  0.4555 -0.6435
11112TIP3    H154751   3.248   1.915  12.800 -0.2622  1.8941 -0.1607
11112TIP3    H254752   3.265   1.936  12.651  1.0760  0.1541 -0.2802
11113TIP3   OH254753   3.172   4.678  14.844 -0.4719  0.0805 -1.1429
11113TIP3    H154754   3.170   4.773  14.859  0.4620  0.0284 -0.6531
11113TIP3    H254755   3.096   4.645  14.892 -0.4889  0.5215 -0.8564
11114TIP3   OH254756   3.640   4.239   0.583 -0.0552 -0.5203  0.0811
11114TIP3    H154757   3.602   4.322   0.613 -0.0574 -0.8292  0.9724
11114TIP3    H254758   3.634   4.243   0.488 -0.2244  0.4248  0.1183
11115TIP3   OH254759   1.891   5.237   1.109 -0.2128 -0.5627  0.1309
11115TIP3    H154760   1.973   5.247   1.061 -0.7975  0.4569 -0.6790
11115TIP3    H254761   1.874   5.143   1.107  0.8801 -0.7746  0.2290
11116TIP3   OH254762   4.295   5.527   2.531  0.6277 -0.1929  0.3006
11116TIP3    H154763   4.221   5.502   2.476 -0.8795  1.5217  1.4010
11116TIP3    H254764   4.262   5.520   2.621  1.5061  1.3356  0.7983
11117TIP3   OH254765   0.750   1.837   1.719 -0.2837  0.1122  0.0519
11117TIP3    H154766   0.783   1.897   1.652 -3.0318  0.4476 -1.1606
11117TIP3    H254767   0.726   1.758   1.670  0.4038 -0.8104  1.1474
11118TIP3   OH254768   3.859   0.439   3.012  0.1305 -0.4834  0.5920
11118TIP3    H154769   3.938   0.488   3.035  0.4874 -0.4394 -0.6560
11118TIP3    H254770   3.886   0.382   2.941 -1.4991  1.2872 -1.5856
11119TIP3   OH254771   0.278   0.758  12.916 -0.0053  0.1122  0.1956
11119TIP3    H154772   0.245   0.670  12.895  0.2408 -0.2322  1.2099
11119TIP3    H254773   0.331   0.782  12.840  0.1776 -0.7485  0.0340
11120TIP3   OH254774   5.991   1.778   1.488 -0.0663 -0.3415  0.0506
11120TIP3    H154775   5.931   1.714   1.526  0.8591 -1.4102 -0.2586
11120TIP3    H254776   6.050   1.801   1.560 -0.5582  0.3842  0.2350
11121TIP3   OH254777   4.502   1.930  15.488  0.5693  0.1046  0.1227
11121TIP3    H154778   4.583   1.882  15.507  0.0165 -1.1219 -0.5368
11121TIP3    H254779   4.453   1.872  15.431 -0.7119  0.9221  0.3671
11122TIP3   OH254780   3.085   3.468  14.750  0.6000  0.3468 -0.2230
11122TIP3    H154781   3.061   3.384  14.711  0.8000 -0.5177  1.4118
11122TIP3    H254782   3.140   3.445  14.825  2.5129  2.0413 -1.0053
11123TIP3   OH254783   5.372   3.035  10.684  0.3702  0.2227  0.1883
11123TIP3    H154784   5.359   3.016  10.777 -0.0015 -0.2323  0.0477
11123TIP3    H254785   5.296   3.090  10.661  1.4429  1.9475  0.5970
11124TIP3   OH254786   4.155   2.479  14.605 -0.1957  0.0375  0.0582
11124TIP3    H154787   4.230   2.451  14.656  1.0708 -0.1360 -1.8127
11124TIP3    H254788   4.079   2.459  14.660  1.0538 -0.7627  1.5432
11125TIP3   OH254789   6.123   3.089  10.970  0.1696 -0.3304  0.4481
11125TIP3    H154790   6.216   3.097  10.989  0.6413  1.2618 -2.0631
11125TIP3    H254791   6.098   3.175  10.937 -2.3774 -0.5329  1.5945
11126TIP3   OH254792   2.637   3.381   3.082  0.1522  0.2144  0.1350
11126TIP3    H154793   2.582   3.377   3.005  0.5042  1.2421 -0.1881
11126TIP3    H254794   2.580   3.356   3.154 -0.3079 -0.2799 -0.3962
11127TIP3   OH254795   0.128   2.754   2.340  0.0224 -0.2023 -0.4335
11127TIP3    H154796   0.125   2.771   2.434 -1.2204 -0.3292 -0.4327
11127TIP3    H254797   0.044   2.786   2.307  0.0551 -1.0095 -1.3496
11128TIP3   OH254798   2.499   3.816  16.863 -0.4658 -0.1321 -0.0179
11128TIP3    H154799   2.501   3.794  16.956  1.6294 -0.4371 -0.0848
11128TIP3    H254800   2.466   3.737  16.821  0.9704 -0.9464  0.2953
11129TIP3   OH254801   1.876   0.588  11.400 -0.6405 -0.3896  0.1728
11129TIP3    H154802   1.826   0.510  11.376 -0.6941  0.1501 -1.6307
11129TIP3    H254803   1.896   0.630  11.316 -0.8212  1.6654  1.1014
11130TIP3   OH254804   0.553   1.435  16.302  0.0497  0.1774 -0.5137
11130TIP3    H154805   0.622   1.491  16.335 -0.8888  0.1284  1.7213
11130TIP3    H254806   0.490   1.495  16.263  0.9500  0.2821 -1.8616
11131TIP3   OH254807   5.548   5.540  11.746 -0.2445 -0.2305  0.7067
11131TIP3    H154808   5.640   5.565  11.754 -0.4793  1.0274 -0.1698
11131TIP3    H254809   5.550   5.457  11.698  0.4153  0.2358 -0.1189
11132TIP3   OH254810   2.024   6.468   0.053  0.1629 -0.2417  0.1580
11132TIP3    H154811   2.106   6.495   0.012  0.1343 -0.4167 -0.0127
11132TIP3    H254812   2.031   6.502   0.143 -0.2950  1.1762 -0.3165
11133TIP3   OH254813   1.774   0.495   3.400  0.4901  0.0674  0.0441
11133TIP3    H154814   1.735   0.527   3.319  0.8406  2.3735  0.7063
11133TIP3    H254815   1.700   0.481   3.459  0.4280  1.6488  0.3729
11134TIP3   OH254816   0.134   4.284  16.130 -0.7442 -1.0863 -0.0348
11134TIP3    H154817   0.174   4.199  16.113 -1.6421 -1.2912 -1.2709
11134TIP3    H254818   0.132   4.291  16.225  1.3846 -1.4488  0.0958
11135TIP3   OH254819   6.096   1.050  16.874 -0.0189 -0.7760  0.2020
11135TIP3    H154820   6.112   1.013  16.961 -1.1167 -0.3395  0.6006
11135TIP3    H254821   6.154   1.126  16.869  1.5570 -1.9499 -0.2646
11136TIP3   OH254822   1.770   4.239   2.911  0.0733  0.1419  0.4709
11136TIP3    H154823   1.750   4.263   3.002 -0.7694  0.1095  0.2986
11136TIP3    H254824   1.845   4.179   2.918  0.0878  0.2295  1.1338
11137TIP3   OH254825   5.451   2.313   5.949  0.0038 -0.1471 -0.3626
11137TIP3    H154826   5.495   2.229   5.968 -0.1471  0.0101  0.7692
11137TIP3    H254827   5.364   2.303   5.987  0.2568  0.8060  0.4891
11138TIP3   OH254828   3.678   1.264   0.320 -0.1860  0.2485 -0.0578
11138TIP3    H154829   3.644   1.299   0.237 -0.7431 -0.0079  0.0560
11138TIP3    H254830   3.648   1.326   0.386 -1.6770 -0.7029  0.2173
11139TIP3   OH254831   4.388   5.319  14.976 -0.5322  0.5124  0.3857
11139TIP3    H154832   4.319   5.337  14.912 -0.5867  0.5287  0.4474
11139TIP3    H254833   4.466   5.304  14.924 -1.1346 -2.2950  0.1459
11140TIP3   OH254834   2.698   4.439  15.689  0.2393 -0.4498 -0.1263
11140TIP3    H154835   2.775   4.394  15.654  1.5972  0.9770  0.8629
11140TIP3    H254836   2.716   4.532  15.673 -0.6590 -0.0020  1.3103
11141TIP3   OH254837   6.070   2.735  15.296 -0.1096  0.0639  0.0389
11141TIP3    H154838   6.130   2.664  15.316  1.5682  2.2168  3.4656
11141TIP3    H254839   6.099   2.768  15.211  1.5929 -0.8728  0.2172
11142TIP3   OH254840   2.612   0.226  13.642  0.4334 -0.0286 -0.2333
11142TIP3    H154841   2.549   0.276  13.590  2.1125  0.8854 -1.4863
11142TIP3    H254842   2.659   0.173  13.579  0.8605 -0.7713  0.6832
11143TIP3   OH254843   0.698   0.248  15.959 -0.6375 -0.4560 -0.5030
11143TIP3    H154844   0.635   0.189  16.001  0.4440 -0.6730  0.8483
11143TIP3    H254845   0.682   0.333  16.000 -0.4304 -0.3859 -0.5683
11144TIP3   OH254846   5.563   4.583  10.975 -0.4952 -0.0135  0.0971
11144TIP3    H154847   5.555   4.540  11.060  2.0783  0.6332  0.7501
11144TIP3    H254848   5.609   4.520  10.921  0.4237  0.6484  0.0822
11145TIP3   OH254849   4.806   4.905   1.713 -0.3177 -0.1664  0.5528
11145TIP3    H154850   4.846   4.861   1.788  2.2808  1.7503  0.4177
11145TIP3    H254851   4.752   4.974   1.752  0.3901  0.3147  0.6966
11146TIP3   OH254852   3.644   4.422  16.464  0.3999  0.0300 -0.3155
11146TIP3    H154853   3.548   4.428  16.462  0.4702  1.7443 -1.1544
11146TIP3    H254854   3.665   4.401  16.554 -0.7779 -1.0776 -0.2600
11147TIP3   OH254855   2.769   4.487   2.344 -0.6340 -0.1876 -0.3690
11147TIP3    H154856   2.735   4.414   2.396 -5.7701  2.5069  0.7018
11147TIP3    H254857   2.750   4.463   2.253  0.0985 -1.1706 -0.2794
11148TIP3   OH254858   3.551   4.367   4.724  0.0875 -0.1491 -0.0768
11148TIP3    H154859   3.496   4.294   4.696  0.3710 -0.3121 -0.2038
11148TIP3    H254860   3.634   4.327   4.748  0.1379  0.0937  0.1601
11149TIP3   OH254861   3.729   0.792  11.176  0.7994  0.3763 -0.2858
11149TIP3    H154862   3.700   0.881  11.195  2.9611  1.0710  0.0251
11149TIP3    H254863   3.709   0.780  11.083  2.2373  1.9495 -0.8475
11150TIP3   OH254864   0.161   4.796  14.606  0.0797  0.3921  0.2534
11150TIP3    H154865   0.169   4.710  14.648  0.8750 -0.5353 -1.6749
11150TIP3    H254866   0.096   4.784  14.538  1.7191  0.6673 -1.4508
11151TIP3   OH254867   4.351   2.449  12.085  0.1388  0.3969  0.0421
11151TIP3    H154868   4.293   2.522  12.068  0.7549  0.9211  0.1501
11151TIP3    H254869   4.384   2.465  12.174  0.0689 -0.1560  0.1725
11152TIP3   OH254870   6.679   5.084  14.958  0.2979  1.0404 -0.0365
11152TIP3    H154871   6.625   5.135  14.897  0.3819 -0.4352 -1.4118
11152TIP3    H254872   6.753   5.054  14.906  0.5968  0.0757  0.8983
11153TIP3   OH254873   0.859   2.763  14.531 -0.1901  0.0422 -0.5320
11153TIP3    H154874   0.772   2.729  14.514  0.0900 -0.0973 -1.8161
11153TIP3    H254875   0.847   2.858  14.543 -0.5804 -0.0581 -0.1294
11154TIP3   OH254876   6.249   1.765  12.899  0.0215 -0.9910 -0.5741
11154TIP3    H154877   6.270   1.858  12.901  0.2016 -1.0391  0.0240
11154TIP3    H254878   6.251   1.742  12.806 -1.2135 -0.1384 -0.8409
11155TIP3   OH254879   1.284   2.706  12.140 -0.0367  0.0109 -0.6556
11155TIP3    H154880   1.331   2.643  12.194 -0.6170  0.8495  0.8751
11155TIP3    H254881   1.333   2.788  12.149 -0.0258  0.1184 -1.5819
11156TIP3   OH254882   5.435   2.403   5.488 -0.5567 -0.9294 -0.2005
11156TIP3    H154883   5.387   2.378   5.408 -1.0405  1.4674 -0.7619
11156TIP3    H254884   5.506   2.458   5.456  0.3782 -1.4685  0.9205
11157TIP3   OH254885   5.242   1.970  14.390 -0.3178 -0.5082  0.3207
11157TIP3    H154886   5.251   1.922  14.472  0.4771 -2.3379 -0.7806
11157TIP3    H254887   5.247   1.903  14.322 -1.5065  0.8779 -1.2343
11158TIP3   OH254888   6.296   0.969  12.273  0.2396  0.2609  0.2635
11158TIP3    H154889   6.289   1.059  12.305  1.5356  0.3060  0.4706
11158TIP3    H254890   6.390   0.955  12.259  0.1580 -1.3185  1.0032
11159TIP3   OH254891   4.913   3.792   4.333 -0.0510  0.1030  0.4523
11159TIP3    H154892   4.892   3.703   4.362  2.2257 -0.2008  1.3575
11159TIP3    H254893   4.874   3.798   4.246 -0.5118 -1.6688  0.4928
11160TIP3   OH254894   0.163   4.102  16.562 -0.3321  0.4005  0.1148
11160TIP3    H154895   0.069   4.097  16.580 -0.6359  0.0650 -1.4192
11160TIP3    H254896   0.191   4.011  16.555  0.2386  0.4819  1.0512
11161TIP3   OH254897   0.353   5.306   5.534 -0.4446  0.0724 -0.4708
11161TIP3    H154898   0.268   5.343   5.511  0.1278  1.2053 -0.8698
11161TIP3    H254899   0.357   5.222   5.489 -0.5359  0.9263 -2.1719
11162TIP3   OH254900   0.705   5.515  11.608 -0.0872  0.4948  0.3831
11162TIP3    H154901   0.658   5.486  11.686 -0.3864 -0.7469 -0.2194
11162TIP3    H254902   0.640   5.508  11.538  0.8888 -1.0516 -0.4294
11163TIP3   OH254903   5.467   0.510   0.441 -0.7667 -0.3760 -0.0278
11163TIP3    H154904   5.492   0.579   0.502 -0.7767 -1.0672  0.7757
11163TIP3    H254905   5.374   0.525   0.425 -1.1172 -1.0417  1.2808
11164TIP3   OH254906   4.156   0.924  13.208 -0.4018 -0.3847 -0.2253
11164TIP3    H154907   4.061   0.927  13.195 -0.3884  0.1777 -0.2218
11164TIP3    H254908   4.192   0.909  13.121 -0.3930  1.6817 -0.6283
11165TIP3   OH254909   0.629   4.231   3.458 -0.1043 -0.1519 -0.0376
11165TIP3    H154910   0.715   4.246   3.496 -0.5224  1.0639  0.4883
11165TIP3    H254911   0.647   4.203   3.368  0.8396 -0.3269  0.1982
11166TIP3   OH254912   4.901   3.112  10.430  0.0206  0.0577 -0.3698
11166TIP3    H154913   4.936   3.024  10.416  0.6403  0.1716  0.3932
11166TIP3    H254914   4.827   3.099  10.490 -0.2867 -0.0091 -0.7600
11167TIP3   OH254915   6.075   3.815  12.260  0.0444  0.1887 -0.0344
11167TIP3    H154916   6.056   3.748  12.326 -0.8207  1.6753  1.3146
11167TIP3    H254917   6.157   3.854  12.289 -0.9655  1.6918  0.9589
11168TIP3   OH254918   4.850   6.486   2.625 -0.0636  0.2316 -0.0017
11168TIP3    H154919   4.816   6.410   2.673  1.7625 -0.2362  0.6393
11168TIP3    H254920   4.867   6.551   2.693  2.0635 -0.2494 -0.0015
11169TIP3   OH254921   2.839   0.374  14.044 -0.7517  0.0602 -0.4069
11169TIP3    H154922   2.826   0.325  14.126  0.2545  0.9772  0.3268
11169TIP3    H254923   2.931   0.361  14.023 -1.1253 -0.6461 -1.7426
11170TIP3   OH254924   0.874   3.836  13.190  0.0224  0.7645 -0.2233
11170TIP3    H154925   0.887   3.872  13.278  0.5638  1.1337 -0.4509
11170TIP3    H254926   0.961   3.834  13.152  0.1213 -1.3257 -0.0189
11171TIP3   OH254927   4.965   2.996  13.604  0.4328 -0.0640  0.1354
11171TIP3    H154928   4.940   3.046  13.526 -0.3781  1.4232  1.2799
11171TIP3    H254929   4.970   3.062  13.673 -0.0964 -1.4974  1.6035
11172TIP3   OH254930   5.612   4.143  13.741 -0.4753  0.9281 -0.1470
11172TIP3    H154931   5.532   4.110  13.701 -0.1122  0.1150 -0.2224
11172TIP3    H254932   5.682   4.090  13.703  0.0332  1.1638  0.4340
11173TIP3   OH254933   3.153   3.669  11.125 -0.2132 -0.6871 -0.1241
11173TIP3    H154934   3.128   3.583  11.092 -1.4468 -1.0743  1.6608
11173TIP3    H254935   3.081   3.694  11.183 -0.3628  2.0253 -1.3734
11174TIP3   OH254936   2.197   5.608   5.778  0.4006 -0.1518 -0.1441
11174TIP3    H154937   2.252   5.686   5.768  1.4284 -0.6333  1.2676
11174TIP3    H254938   2.127   5.637   5.837  1.0864 -0.3919  0.8273
11175TIP3   OH254939   4.508   3.708   5.012  0.0941 -0.0976  0.3966
11175TIP3    H154940   4.601   3.692   4.996  0.4078  0.6442  1.4136
11175TIP3    H254941   4.480   3.636   5.068  0.3258  0.2800  0.9982
11176TIP3   OH254942   2.724   1.489  15.682 -0.4582  0.0147 -0.0260
11176TIP3    H154943   2.708   1.577  15.649 -0.8520 -0.0830 -0.0979
11176TIP3    H254944   2.819   1.479  15.677 -0.4709  0.1692 -0.7077
11177TIP3   OH254945   3.676   2.270  15.797  0.5132  0.0215 -0.4464
11177TIP3    H154946   3.624   2.234  15.870  0.7744 -2.3989 -1.3518
11177TIP3    H254947   3.612   2.313  15.741  0.0655  0.4274  0.3546
11178TIP3   OH254948   0.545   4.668  14.958 -0.2607 -0.1752 -0.6074
11178TIP3    H154949   0.567   4.575  14.969  3.1435  0.3560 -1.6406
11178TIP3    H254950   0.506   4.673  14.871 -0.9728 -0.6878 -0.3263
11179TIP3   OH254951   4.265   1.670   4.688  0.0976 -0.1893 -0.0720
11179TIP3    H154952   4.226   1.728   4.622  0.5808  1.0310  0.6704
11179TIP3    H254953   4.358   1.693   4.688  0.3466 -1.1783  0.0474
11180TIP3   OH254954   0.844   0.960   6.010 -0.0288 -0.2884 -0.2396
11180TIP3    H154955   0.821   1.041   5.965 -0.0411  0.5180  1.1681
11180TIP3    H254956   0.937   0.968   6.029 -0.3167  0.0459  1.1364
11181TIP3   OH254957   5.603   5.836   3.496  0.5433  0.0675 -0.9905
11181TIP3    H154958   5.650   5.911   3.533  1.0336 -1.1043  0.8777
11181TIP3    H254959   5.516   5.840   3.536  0.5270 -0.2967 -0.9905
11182TIP3   OH254960   3.454   1.694   1.172 -0.6846  0.4417 -0.0192
11182TIP3    H154961   3.480   1.663   1.085 -2.5250 -2.1466  0.2593
11182TIP3    H254962   3.534   1.728   1.211  0.7632 -0.9274 -1.6910
11183TIP3   OH254963   4.892   0.316  16.112  0.1458  0.0846  0.0819
11183TIP3    H154964   4.879   0.314  16.017 -0.3858  0.1506  0.1492
11183TIP3    H254965   4.960   0.252  16.128  0.7342  0.5660 -0.4230
11184TIP3   OH254966   1.048   4.403   0.512  0.4883  0.4734 -0.0756
11184TIP3    H154967   1.099   4.437   0.439  1.7249 -0.2385  0.4283
11184TIP3    H254968   1.112   4.383   0.580 -0.3535 -1.1558  0.3080
11185TIP3   OH254969   4.286   3.375   5.611  0.0518 -0.1036 -0.3113
11185TIP3    H154970   4.350   3.304   5.616 -1.3643 -1.4644 -0.9168
11185TIP3    H254971   4.268   3.385   5.518 -2.4384 -1.4746 -0.0455
11186TIP3   OH254972   0.828   0.565  13.257  0.4184  0.6484 -0.3315
11186TIP3    H154973   0.732   0.569  13.255  0.2057 -1.8434  1.2427
11186TIP3    H254974   0.853   0.526  13.174 -0.2505 -1.7578  0.5104
11187TIP3   OH254975   3.181   0.938  12.221 -0.3342 -0.6533  0.5539
11187TIP3    H154976   3.248   0.982  12.273  0.8523 -1.6720 -0.0477
11187TIP3    H254977   3.138   1.008  12.171  1.0928 -0.0943  0.0706
11188TIP3   OH254978   6.357   0.422  14.748 -0.5368  0.2160  0.4900
11188TIP3    H154979   6.264   0.426  14.770 -0.9015 -1.6804 -0.4573
11188TIP3    H254980   6.370   0.490  14.682 -1.7467 -0.8118 -0.8669
11189TIP3   OH254981   3.149   2.378   2.940  0.1108  0.5678 -0.3306
11189TIP3    H154982   3.170   2.328   2.861 -1.1193  0.6844 -0.7464
11189TIP3    H254983   3.058   2.405   2.928 -0.2207  0.2510  1.3148
11190TIP3   OH254984   6.181   4.182  11.797 -0.3837 -0.1306 -0.2476
11190TIP3    H154985   6.276   4.169  11.794 -0.2279  1.0760 -2.3936
11190TIP3    H254986   6.145   4.093  11.792  0.6033 -0.5790  0.2040
11191TIP3   OH254987   2.438   6.070   2.404  0.0684 -0.3014 -0.1292
11191TIP3    H154988   2.438   6.028   2.490  2.1990 -1.4358 -0.6124
11191TIP3    H254989   2.408   6.002   2.344 -0.9124  0.3310 -0.3941
11192TIP3   OH254990   0.532   5.513   4.049  0.0249 -0.8305  0.1263
11192TIP3    H154991   0.524   5.498   3.955 -2.4180 -0.5586  0.2149
11192TIP3    H254992   0.480   5.592   4.065  1.8896  0.2075  1.4950
11193TIP3   OH254993   6.438   3.734   2.450 -0.1384 -0.6681  0.4741
11193TIP3    H154994   6.444   3.770   2.362  0.6504 -2.2849 -0.1744
11193TIP3    H254995   6.479   3.647   2.444  2.1418  0.0906  2.9664
11194TIP3   OH254996   6.709   0.441  13.385  0.3461 -0.0602 -0.2393
11194TIP3    H154997   6.760   0.396  13.452  0.8227  0.4981 -0.2175
11194TIP3    H254998   6.685   0.372  13.323  0.5945 -0.4359  0.0757
11195TIP3   OH254999   3.666   3.485  11.327 -0.3918 -0.2209  0.5664
11195TIP3    H155000   3.630   3.440  11.250  0.3103  0.6206 -0.2875
11195TIP3    H255001   3.700   3.415  11.382  2.2879 -0.7749 -1.5407
11196TIP3   OH255002   0.121   1.129  12.218  0.0521 -0.4037 -0.4847
11196TIP3    H155003   0.193   1.094  12.270  1.2455  1.8452 -0.5335
11196TIP3    H255004   0.158   1.204  12.172 -1.5405 -0.9937 -2.9189
11197TIP3   OH255005   2.051   3.000  15.528  0.1984  0.1684 -0.7807
11197TIP3    H155006   2.002   3.006  15.610 -0.2962  0.2941 -1.0776
11197TIP3    H255007   2.126   3.057  15.540  0.8154 -0.7940  0.0528
11198TIP3   OH255008   6.047   3.952   3.273 -0.4196  0.4324 -0.6989
11198TIP3    H155009   6.015   4.042   3.278  1.5707  1.1506  3.8641
11198TIP3    H255010   5.988   3.903   3.331  1.2451 -0.1429  0.5625
11199TIP3   OH255011   6.523   5.959   2.724  0.2989 -0.8999 -0.4269
11199TIP3    H155012   6.494   5.908   2.800 -0.2387  0.3694  0.2448
11199TIP3    H255013   6.448   5.957   2.664  0.1165 -0.5417 -0.2122
11200TIP3   OH255014   0.178   3.494  13.643 -0.3703 -0.0066  0.2016
11200TIP3    H155015   0.092   3.459  13.619 -1.3154  1.1405  1.6908
11200TIP3    H255016   0.208   3.540  13.565 -0.1482 -2.0658 -1.0132
11201TIP3   OH255017   2.329   3.078  13.528 -0.0642  0.1483  0.3979
11201TIP3    H155018   2.398   3.144  13.525 -0.1980  0.2918  0.4596
11201TIP3    H255019   2.278   3.100  13.606 -1.3993  1.2820 -0.7443
11202TIP3   OH255020   2.517   3.706  14.935  0.8103  0.3879  0.0999
11202TIP3    H155021   2.470   3.749  15.005  1.3630  0.3387  0.5090
11202TIP3    H255022   2.556   3.778  14.884  0.7584  0.4077  0.0877
11203TIP3   OH255023   6.628   0.922  11.493 -0.2661 -0.3893 -0.2757
11203TIP3    H155024   6.575   0.992  11.531  0.8840  0.3468  0.0389
11203TIP3    H255025   6.567   0.849  11.480 -1.7743  1.0237 -1.6573
11204TIP3   OH255026   5.978   6.446   4.975 -0.1327  0.7958  0.1580
11204TIP3    H155027   5.885   6.427   4.990 -0.4894  2.4719  0.1846
11204TIP3    H255028   6.000   6.513   5.039  1.1758  0.2819  0.2893
11205TIP3   OH255029   2.893   3.447  16.636  0.1448 -0.0284 -0.5247
11205TIP3    H155030   2.872   3.510  16.706  0.6907 -0.9702  0.5315
11205TIP3    H255031   2.920   3.502  16.562 -0.0127  0.9973  0.1470
11206TIP3   OH255032   6.264   3.668   4.783 -0.1233 -0.2171  0.0948
11206TIP3    H155033   6.228   3.584   4.812 -0.2729 -0.5520 -0.9761
11206TIP3    H255034   6.358   3.654   4.778  0.0749  0.3021  1.7877
11207TIP3   OH255035   5.688   5.115   2.480  0.3967 -0.0884  0.3628
11207TIP3    H155036   5.696   5.205   2.446  0.4182 -0.3393 -0.3046
11207TIP3    H255037   5.723   5.060   2.410 -2.3296 -0.8528 -0.5419
11208TIP3   OH255038   4.415   0.604  13.204  0.5868  0.3937 -0.3671
11208TIP3    H155039   4.486   0.668  13.196 -0.3721  1.2191 -3.6736
11208TIP3    H255040   4.436   0.536  13.140  1.1872 -2.3978  2.5415
11209TIP3   OH255041   3.047   4.452  15.999  0.1422  0.4738  0.6259
11209TIP3    H155042   2.975   4.507  15.966  0.3951  2.3973  3.0263
11209TIP3    H255043   3.118   4.467  15.937 -1.1747 -0.7996 -1.3120
11210TIP3   OH255044   5.730   4.467  16.080 -0.2136  0.3067 -0.2590
11210TIP3    H155045   5.731   4.484  16.175 -0.9897  0.1272 -0.2172
11210TIP3    H255046   5.715   4.373  16.073  1.4864  0.0277 -0.5428
11211TIP3   OH255047   3.599   0.048  12.480 -0.3825  0.9490 -0.7086
11211TIP3    H155048   3.520   0.100  12.492 -0.6606  0.3355  0.2915
11211TIP3    H255049   3.577  -0.038  12.516 -0.0738 -0.0103 -2.6523
11212TIP3   OH255050   0.628   6.752   0.578 -0.2733 -0.6873 -0.0922
11212TIP3    H155051   0.620   6.792   0.665  1.2852 -0.1584 -0.1566
11212TIP3    H255052   0.570   6.803   0.522  1.8295  1.7305 -0.2156
11213TIP3   OH255053   5.403   0.350   3.455  0.1168  0.6309 -0.3358
11213TIP3    H155054   5.323   0.332   3.504 -0.4408  2.2385 -0.5934
11213TIP3    H255055   5.473   0.317   3.511 -0.7145 -1.8746 -0.6108
11214TIP3   OH255056   4.217   4.573  13.199 -0.0904 -0.3578 -0.4181
11214TIP3    H155057   4.141   4.630  13.183 -0.8847 -0.4572  2.5021
11214TIP3    H255058   4.183   4.484  13.184 -0.5104 -0.3798  0.5613
11215TIP3   OH255059   6.670   3.687   5.224  0.6997  0.0423 -0.4756
11215TIP3    H155060   6.683   3.769   5.270  1.6016 -0.1322 -0.4014
11215TIP3    H255061   6.711   3.621   5.280  0.2706 -0.4149 -0.6909
11216TIP3   OH255062   3.316   4.257  12.002  0.2295 -0.2918 -0.1413
11216TIP3    H155063   3.349   4.286  12.087 -0.1881 -0.1681 -0.0229
11216TIP3    H255064   3.390   4.209  11.963  0.1806 -0.9668  0.5818
11217TIP3   OH255065   4.849   0.795  11.244  0.2944  0.0908  0.4394
11217TIP3    H155066   4.911   0.841  11.188 -2.4748  2.1092 -1.2155
11217TIP3    H255067   4.804   0.864  11.293  0.3179 -1.3910  2.7057
11218TIP3   OH255068   2.240   2.623  14.827 -0.7060 -0.0744  0.4523
11218TIP3    H155069   2.314   2.588  14.777 -0.5446 -0.6125  1.0513
11218TIP3    H255070   2.240   2.572  14.908 -1.7737 -0.1165  0.4308
11219TIP3   OH255071   3.450   3.753  16.366  0.0482 -0.4830  0.4543
11219TIP3    H155072   3.362   3.722  16.387 -0.4896 -0.9049 -2.1405
11219TIP3    H255073   3.458   3.741  16.272  2.9556 -0.5677  0.6284
11220TIP3   OH255074   0.531   2.921  16.012  0.3797  0.5262  0.3368
11220TIP3    H155075   0.568   2.917  16.100 -0.3423 -3.2314  0.6555
11220TIP3    H255076   0.440   2.945  16.025  0.5640  1.1778  0.4608
11221TIP3   OH255077   2.777   4.030  12.235  0.0731 -0.4614  0.7186
11221TIP3    H155078   2.796   4.115  12.195  0.5502 -0.2071  1.4514
11221TIP3    H255079   2.763   3.971  12.161  0.8817  0.0034  0.1719
11222TIP3   OH255080   0.544   2.383   3.117 -0.0999  0.4926  0.0826
11222TIP3    H155081   0.611   2.315   3.117 -1.0386 -0.4602  1.0443
11222TIP3    H255082   0.462   2.337   3.128 -0.7602  1.7739  0.8142
11223TIP3   OH255083   2.150   4.950   3.090 -0.2595  0.2766 -0.4629
11223TIP3    H155084   2.066   4.906   3.075 -0.9707  1.3629  0.1413
11223TIP3    H255085   2.127   5.043   3.095  0.8709  0.5238  0.5118
11224TIP3   OH255086   0.929   4.589  14.796 -0.0579 -0.2609 -0.4164
11224TIP3    H155087   0.886   4.535  14.863  1.5868 -1.3635 -0.1818
11224TIP3    H255088   1.009   4.620  14.839  0.0728  0.6237 -1.2677
11225TIP3   OH255089   2.836   1.263  12.326 -0.0498  0.3058  0.2115
11225TIP3    H155090   2.906   1.290  12.385 -0.3381  1.0465  0.2218
11225TIP3    H255091   2.826   1.169  12.342 -0.5184  0.6094  1.7582
11226TIP3   OH255092   6.653   3.448   1.043  0.1799 -0.0681 -0.4784
11226TIP3    H155093   6.613   3.494   1.117 -2.2352 -1.0158 -1.1159
11226TIP3    H255094   6.678   3.518   0.982 -1.6289  0.5349 -0.5737
11227TIP3   OH255095   3.396   6.048   3.026  0.3025 -0.6552  0.3854
11227TIP3    H155096   3.466   6.096   2.982 -0.1466 -0.4416 -0.1112
11227TIP3    H255097   3.347   6.115   3.074 -0.8852 -0.4438 -1.0548
11228TIP3   OH255098   4.502   1.064   0.579 -0.4219  0.1584  0.5301
11228TIP3    H155099   4.431   1.087   0.519 -0.6588 -0.0355  0.7311
11228TIP3    H255100   4.459   1.014   0.649  0.1726 -1.6092 -0.2985
11229TIP3   OH255101   1.801   5.568  13.503  0.1991  0.0016  0.5155
11229TIP3    H155102   1.828   5.654  13.534  0.3662  0.0975  0.1107
11229TIP3    H255103   1.750   5.586  13.424  1.1812 -0.3283 -0.2098
11230TIP3   OH255104   2.962   3.861   1.268  0.0453  0.2156  0.6381
11230TIP3    H155105   2.867   3.872   1.269  0.2752  3.1561  0.2450
11230TIP3    H255106   2.992   3.903   1.349  0.9930 -0.9729  0.9234
11231TIP3   OH255107   3.928   2.103  16.644  0.2759  0.7863 -0.2352
11231TIP3    H155108   3.927   2.199  16.648 -0.5545  0.7940 -0.5105
11231TIP3    H255109   3.992   2.084  16.575 -0.2801  1.1813 -0.8800
11232TIP3   OH255110   3.929   3.576  11.939 -0.1296  0.5220  0.5955
11232TIP3    H155111   4.022   3.555  11.931 -0.4584 -1.3100  1.0556
11232TIP3    H255112   3.924   3.631  12.017  0.3952 -0.8722  1.6539
11233TIP3   OH255113   5.031   5.242   5.621  0.3780 -0.1245 -0.0260
11233TIP3    H155114   4.962   5.253   5.686 -0.1107 -0.7661 -0.4301
11233TIP3    H255115   5.089   5.176   5.659  0.6255  0.2043  0.1824
11234TIP3   OH255116   2.247   1.189  12.854 -0.5276 -0.2484  0.1830
11234TIP3    H155117   2.183   1.126  12.823 -0.1535  0.0474 -1.2808
11234TIP3    H255118   2.269   1.160  12.943 -2.1226 -0.7668  0.4336
11235TIP3   OH255119   3.379   0.626  16.008 -0.4532  0.3234 -0.7599
11235TIP3    H155120   3.389   0.720  16.026 -1.2469  0.1656  0.5745
11235TIP3    H255121   3.468   0.591  16.016 -0.3522  0.7479  0.0981
11236TIP3   OH255122   4.481   5.834   1.759 -0.4258 -0.1005  0.1847
11236TIP3    H155123   4.463   5.743   1.779  0.1968 -0.5568 -1.1377
11236TIP3    H255124   4.468   5.841   1.664  0.1303  1.0223  0.1628
11237TIP3   OH255125   5.572   3.749  13.260  0.0427 -0.0936  0.1634
11237TIP3    H155126   5.655   3.711  13.290  1.4291  1.3389 -1.5946
11237TIP3    H255127   5.542   3.803  13.333  0.1681 -1.3152  1.1467
11238TIP3   OH255128   2.874   2.662   0.967 -0.1043  0.9774  0.4544
11238TIP3    H155129   2.958   2.644   1.010  1.0292 -0.1725 -2.0697
11238TIP3    H255130   2.812   2.604   1.012  1.3953 -1.5149 -0.4913
11239TIP3   OH255131   2.542   5.538   3.437  0.0388 -0.9353 -0.2967
11239TIP3    H155132   2.621   5.558   3.488  0.3634  0.4349 -1.2866
11239TIP3    H255133   2.481   5.503   3.501  0.9850 -0.7387  0.7509
11240TIP3   OH255134   3.738   1.866  11.994 -0.2810  0.0068 -0.3780
11240TIP3    H155135   3.824   1.905  12.008  0.0923 -0.5437 -1.0858
11240TIP3    H255136   3.721   1.878  11.901 -0.7604 -0.3206 -0.3354
11241TIP3   OH255137   1.071   4.247   2.343  0.0779 -0.1735  0.0549
11241TIP3    H155138   1.107   4.231   2.430  0.4992  0.9143  0.0892
11241TIP3    H255139   1.077   4.162   2.299  1.9305 -0.2356  0.3500
11242TIP3   OH255140   0.106   4.797  11.193 -0.4084  1.0600  0.6489
11242TIP3    H155141   0.058   4.736  11.136  1.1942 -0.6418  1.0036
11242TIP3    H255142   0.146   4.859  11.132 -1.4819  1.3604  0.2153
11243TIP3   OH255143   5.291   6.058   0.240  0.0459  0.0254  0.3427
11243TIP3    H155144   5.254   5.974   0.215 -0.4949  0.8276 -1.7560
11243TIP3    H255145   5.277   6.063   0.335  1.0447 -2.6550  0.7306
11244TIP3   OH255146   5.675   6.556   2.068  0.1865 -0.3179  0.0104
11244TIP3    H155147   5.586   6.585   2.087  0.5658  2.1749 -1.6020
11244TIP3    H255148   5.686   6.572   1.974  2.5788  0.2347  0.3302
11245TIP3   OH255149   2.704   6.277  10.653 -0.5210 -0.5724  0.8477
11245TIP3    H155150   2.638   6.300  10.719 -1.9042  0.1543 -0.7165
11245TIP3    H255151   2.759   6.354  10.647 -0.3543 -0.6627  1.1889
11246TIP3   OH255152   1.466   0.283   2.134  0.7278 -0.4356 -0.2031
11246TIP3    H155153   1.487   0.240   2.217  1.4472  0.4912  0.1136
11246TIP3    H255154   1.524   0.242   2.070  2.8522  1.3532  0.4613
11247TIP3   OH255155   1.978   4.837   4.544 -0.2523 -0.2725  0.2600
11247TIP3    H155156   1.901   4.808   4.593 -1.0427  0.4691 -0.5076
11247TIP3    H255157   2.025   4.757   4.522 -1.0490 -0.7678  0.3348
11248TIP3   OH255158   2.982   0.877  12.558  0.0425  0.3393 -0.2990
11248TIP3    H155159   2.989   0.887  12.463 -1.3173  2.0303 -0.2889
11248TIP3    H255160   3.006   0.963  12.593 -0.0018 -0.0977  0.8525
11249TIP3   OH255161   3.366   4.790   5.208 -0.0231 -0.0848 -0.5824
11249TIP3    H155162   3.351   4.821   5.118 -0.2509 -1.4290 -1.0285
11249TIP3    H255163   3.297   4.726   5.223 -1.7419  2.0793  1.5966
11250TIP3   OH255164   4.210   0.458   1.222 -0.5114 -0.1483  0.7565
11250TIP3    H155165   4.193   0.551   1.240  2.3429  0.8432 -0.9040
11250TIP3    H255166   4.198   0.414   1.306 -0.2537  2.0384  2.0094
11251TIP3   OH255167   6.508   6.601  11.079  1.1295 -0.0540  0.0089
11251TIP3    H155168   6.521   6.678  11.024  2.1194  1.9346  2.8509
11251TIP3    H255169   6.538   6.528  11.025  1.2596  1.6333 -2.3557
11252TIP3   OH255170   4.273   0.415  11.650  0.2339 -1.1145  0.5800
11252TIP3    H155171   4.363   0.389  11.667  0.8720  0.4755 -0.2226
11252TIP3    H255172   4.274   0.452  11.562 -1.1208 -0.6659  0.7196
11253TIP3   OH255173   3.698   0.901  12.945 -0.2126  0.4057  0.2006
11253TIP3    H155174   3.672   0.907  13.037  4.0943  1.1693  1.6218
11253TIP3    H255175   3.701   0.808  12.927 -0.0782  0.1893  1.2478
11254TIP3   OH255176   5.289   1.846   4.250  0.4919 -0.0594  0.2696
11254TIP3    H155177   5.321   1.757   4.236 -1.0632 -0.5040 -0.7377
11254TIP3    H255178   5.232   1.839   4.326 -0.6143 -0.2258 -0.5441
11255TIP3   OH255179   4.130   5.495   1.313  0.1653 -0.3600  0.2903
11255TIP3    H155180   4.097   5.490   1.223 -0.3239  2.7552  0.2062
11255TIP3    H255181   4.070   5.440   1.364 -0.4338 -0.9700 -1.0308
11256TIP3   OH255182   5.732   3.795   3.276 -0.5005 -0.1353 -0.4066
11256TIP3    H155183   5.809   3.747   3.308 -0.8318 -1.1382 -1.0628
11256TIP3    H255184   5.671   3.726   3.248 -1.3948  0.6608 -0.4551
11257TIP3   OH255185   6.078   2.064   2.707 -0.0994  0.5247 -0.4474
11257TIP3    H155186   6.159   2.102   2.674 -0.3348 -1.2726 -3.5076
11257TIP3    H255187   6.023   2.139   2.727  2.5059  1.8188  2.6494
11258TIP3   OH255188   0.291   2.386   1.472  0.0146  0.2162  0.5006
11258TIP3    H155189   0.211   2.404   1.522  0.2414 -0.6365  1.2063
11258TIP3    H255190   0.328   2.473   1.454 -1.8976  0.7224 -1.2963
11259TIP3   OH255191   3.551   6.080  11.694 -0.4702  0.3879 -0.3763
11259TIP3    H155192   3.550   6.172  11.669 -0.9484  0.1088 -1.4622
11259TIP3    H255193   3.640   6.051  11.677 -0.7562  0.2353 -1.7243
11260TIP3   OH255194   1.822   5.004  16.730  0.1992 -0.2953 -0.6101
11260TIP3    H155195   1.801   4.987  16.822 -0.0195  1.8423 -0.2096
11260TIP3    H255196   1.785   4.930  16.682  0.6670 -1.6513  1.0415
11261TIP3   OH255197   3.490   6.400  16.551  0.8197 -0.4138 -0.0087
11261TIP3    H155198   3.526   6.379  16.465 -0.3293 -1.2841 -0.3152
11261TIP3    H255199   3.395   6.393  16.539  0.6065  0.1744  1.1569
11262TIP3   OH255200   5.499   1.780  15.322  0.1836  0.4601  0.5426
11262TIP3    H155201   5.506   1.875  15.331  0.4305  0.6213 -1.0514
11262TIP3    H255202   5.498   1.747  15.411 -0.4686  2.0045  1.1278
11263TIP3   OH255203   1.823   6.246  12.837  0.7496 -0.3628 -0.1008
11263TIP3    H155204   1.785   6.329  12.806  1.8394  1.7220  3.4724
11263TIP3    H255205   1.901   6.234  12.784 -0.9599 -0.8520 -2.6955
11264TIP3   OH255206   2.681   3.494  13.135 -0.1280 -0.2506 -0.5748
11264TIP3    H155207   2.667   3.587  13.115  1.6007  0.3055  0.5744
11264TIP3    H255208   2.593   3.457  13.136 -0.8028  1.2012 -1.8430
11265TIP3   OH255209   6.390   3.091  10.998  0.3908 -0.2686  0.2670
11265TIP3    H155210   6.411   3.136  11.080  1.1564  0.4102 -0.2863
11265TIP3    H255211   6.460   3.117  10.938  0.5427 -1.7550 -0.2474
11266TIP3   OH255212   2.134   1.076   4.653 -0.8192  0.0926  0.0897
11266TIP3    H155213   2.122   1.124   4.571  3.6287  2.2666  0.4477
11266TIP3    H255214   2.141   1.145   4.720  0.2607 -1.3813  1.5508
11267TIP3   OH255215   0.995   3.510   1.991  0.3756 -0.0627  0.1562
11267TIP3    H155216   1.039   3.476   1.912  0.8857 -1.6331  1.0593
11267TIP3    H255217   0.902   3.501   1.972  0.4632  0.8890 -0.7955
11268TIP3   OH255218   1.804   2.639  10.795  0.4331  0.1226 -0.6063
11268TIP3    H155219   1.774   2.625  10.705 -0.7778  2.1606 -0.5829
11268TIP3    H255220   1.888   2.594  10.800  0.9374  0.6587 -3.0227
11269TIP3   OH255221   0.596   3.286  11.523 -0.2889 -0.1097  0.0209
11269TIP3    H155222   0.616   3.218  11.588 -0.2741  1.3839  1.6705
11269TIP3    H255223   0.588   3.239  11.440 -1.2406 -2.2387  1.2399
11270TIP3   OH255224   6.451   4.042  14.643 -0.0651 -0.6754 -0.0598
11270TIP3    H155225   6.386   4.080  14.703 -0.7869  0.0646 -1.2719
11270TIP3    H255226   6.405   4.033  14.560  1.1187 -1.0239 -0.7030
11271TIP3   OH255227   1.079   3.607  16.902  0.6322  0.0828 -0.3952
11271TIP3    H155228   1.088   3.578  16.811 -0.1856 -0.9097 -0.1902
11271TIP3    H255229   1.143   3.555  16.950  0.2615 -0.2590 -0.2551
11272TIP3   OH255230   4.717   1.655  16.928  0.5699 -0.1680 -0.3904
11272TIP3    H155231   4.772   1.595  16.878  0.3436 -0.3675 -0.3990
11272TIP3    H255232   4.777   1.696  16.991  0.8613  0.0916 -0.8272
11273TIP3   OH255233   5.633   0.964   4.759  0.2730 -0.6849  0.4817
11273TIP3    H155234   5.657   0.983   4.668  1.6418  0.1675  0.9762
11273TIP3    H255235   5.708   0.915   4.794 -0.0988 -0.7440  1.2278
11274TIP3   OH255236   1.189   3.265   4.448 -0.1217 -0.4972  0.0847
11274TIP3    H155237   1.200   3.226   4.361  0.9387  0.3104 -0.1739
11274TIP3    H255238   1.123   3.333   4.435  0.6318  0.1742 -0.2905
11275TIP3   OH255239   4.384   5.898   3.793 -0.0208  0.0028  0.0826
11275TIP3    H155240   4.444   5.873   3.722  0.1412  0.2670  0.1212
11275TIP3    H255241   4.335   5.972   3.757  0.0989  0.1717  0.2604
11276TIP3   OH255242   5.799   5.622   4.822 -0.1666 -0.7194 -0.1566
11276TIP3    H155243   5.797   5.529   4.801  1.7175 -1.1127  1.1100
11276TIP3    H255244   5.862   5.628   4.894 -0.4806  1.5014 -0.0157
11277TIP3   OH255245   0.920   0.609   4.930  0.0861 -0.1801 -0.0565
11277TIP3    H155246   1.004   0.562   4.924  0.6032  0.8610 -1.6269
11277TIP3    H255247   0.860   0.558   4.877  0.2366  0.0715 -0.4756
11278TIP3   OH255248   4.622   0.754  13.790  0.3852 -0.2030 -0.0821
11278TIP3    H155249   4.632   0.777  13.697  1.2887  1.7571  0.4414
11278TIP3    H255250   4.549   0.692  13.791  0.3611 -0.2900 -2.0960
11279TIP3   OH255251   3.947   1.138  16.858  0.6079 -0.3773  0.2453
11279TIP3    H155252   3.969   1.117  16.767 -1.8245 -1.6587 -0.1148
11279TIP3    H255253   3.987   1.067  16.909  1.4247 -0.0049  0.1454
11280TIP3   OH255254   2.951   2.248   1.148 -0.6438  0.5665  0.3112
11280TIP3    H155255   3.020   2.289   1.095 -0.4920 -0.5194 -0.3849
11280TIP3    H255256   2.994   2.171   1.186 -1.2861  0.2646  0.4360
11281TIP3   OH255257   1.928   6.732   2.167 -0.1760 -0.0947 -0.3577
11281TIP3    H155258   1.901   6.663   2.107 -0.4343 -0.5239  0.2342
11281TIP3    H255259   1.975   6.686   2.237 -0.6183  0.2854  0.1998
11282TIP3   OH255260   3.413   4.605  14.576  0.3289  0.3125 -0.0523
11282TIP3    H155261   3.331   4.555  14.581  0.7163 -0.3064  0.2816
11282TIP3    H255262   3.430   4.613  14.483  0.3596 -0.3579 -0.1114
11283TIP3   OH255263   0.423   1.449  15.302  0.7663  0.7891 -0.3649
11283TIP3    H155264   0.432   1.402  15.385  1.3920  0.2998 -0.7061
11283TIP3    H255265   0.500   1.423  15.251  0.3167  0.9745 -1.1532
11284TIP3   OH255266   4.847   1.595   5.848  0.3676  0.7401 -0.6400
11284TIP3    H155267   4.842   1.606   5.943 -1.0631 -1.1871 -0.4439
11284TIP3    H255268   4.816   1.678   5.812  0.1173  1.1872  0.5660
11285TIP3   OH255269   6.066   1.505   4.437  0.1226  0.1503  0.0939
11285TIP3    H155270   5.987   1.527   4.486 -0.6222 -0.1278 -0.9459
11285TIP3    H255271   6.089   1.417   4.466  0.7208  0.6617  1.2271
11286TIP3   OH255272   3.755   4.202   4.793 -0.2768 -0.0773 -0.3549
11286TIP3    H155273   3.766   4.118   4.837  0.3208 -0.4660 -1.2163
11286TIP3    H255274   3.804   4.193   4.711 -0.1461  1.1251 -0.4368
11287TIP3   OH255275   1.251   5.457  10.895  0.1643  0.4531  0.3531
11287TIP3    H155276   1.207   5.385  10.939  0.4790  1.2089  1.9822
11287TIP3    H255277   1.183   5.497  10.840 -1.0434  1.1326  2.2444
11288TIP3   OH255278   6.099   5.583  11.772  0.2869 -0.3986 -0.0137
11288TIP3    H155279   6.140   5.666  11.746  1.0299 -0.6362  0.3770
11288TIP3    H255280   6.092   5.589  11.867 -1.0267 -0.1743 -0.0998
11289TIP3   OH255281   4.683   5.733  16.695 -1.0810  0.3071  0.2526
11289TIP3    H155282   4.641   5.748  16.610 -0.2958  1.5849  0.0554
11289TIP3    H255283   4.654   5.806  16.750 -0.7262  0.0874  0.7420
11290TIP3   OH255284   5.887   0.061   0.711 -0.0549  0.4867 -0.4342
11290TIP3    H155285   5.817   0.126   0.711  0.1101  0.6666 -1.0242
11290TIP3    H255286   5.966   0.111   0.691  0.7165  0.7700  2.7156
11291TIP3   OH255287   1.950   1.323  17.212  0.4406 -0.4824  0.2174
11291TIP3    H155288   1.998   1.358  17.287  2.0055 -0.0717 -0.9147
11291TIP3    H255289   1.958   1.391  17.145 -0.7117 -0.9423 -0.4165
11292TIP3   OH255290   0.255   3.921   4.623 -0.4629  0.6952 -0.3721
11292TIP3    H155291   0.252   3.826   4.608 -1.6697  0.6841 -0.1918
11292TIP3    H255292   0.249   3.959   4.535  0.6132  0.6086 -0.4887
11293TIP3   OH255293   5.141   5.715   1.763  0.2065  0.2360  0.4340
11293TIP3    H155294   5.186   5.794   1.736 -0.2339  0.3692  0.0574
11293TIP3    H255295   5.054   5.745   1.791 -0.5831 -0.2439 -1.2906
11294TIP3   OH255296   0.014   4.835   0.998  0.4089  0.6764 -1.0326
11294TIP3    H155297  -0.052   4.874   0.940 -0.5989 -1.5891 -1.5484
11294TIP3    H255298  -0.030   4.826   1.082  0.3961  0.1351 -1.0895
11295TIP3   OH255299   3.981   6.114   5.027 -0.6042 -0.0525  0.1725
11295TIP3    H155300   3.994   6.068   5.111  0.1911  1.5416  0.9735
11295TIP3    H255301   3.979   6.207   5.051  0.1349  0.4695 -1.6493
11296TIP3   OH255302   5.428   5.198  11.098 -0.1334  0.0282 -0.2621
11296TIP3    H155303   5.409   5.145  11.021  1.5620 -1.5121  0.2919
11296TIP3    H255304   5.437   5.287  11.064  0.5817 -0.6045 -1.8854
11297TIP3   OH255305   3.784   1.989   2.196 -0.3635  0.1179  0.6678
11297TIP3    H155306   3.786   2.061   2.259  0.1823  0.6742  0.0248
11297TIP3    H255307   3.826   1.916   2.242  2.3967  1.2290  0.1442
11298TIP3   OH255308   6.739   6.597  14.554 -0.2852  0.7322  0.1151
11298TIP3    H155309   6.806   6.664  14.542  0.9875 -0.2480  1.4308
11298TIP3    H255310   6.756   6.532  14.486  2.4645 -1.2920  2.4835
11299TIP3   OH255311   1.052   0.015   5.531  0.2416 -0.1350  0.4035
11299TIP3    H155312   0.979  -0.034   5.569 -0.2350 -0.2905 -0.6708
11299TIP3    H255313   1.129  -0.037   5.553 -0.2181 -1.2224 -0.4076
11300TIP3   OH255314   5.819   5.591   0.106  0.5747  0.4738 -0.3656
11300TIP3    H155315   5.871   5.547   0.039 -0.1469  1.7431 -1.8174
11300TIP3    H255316   5.783   5.668   0.062 -2.8882 -0.5239  0.3713
11301TIP3   OH255317   6.146   6.600  12.634 -0.1876 -0.8534  0.3400
11301TIP3    H155318   6.173   6.622  12.545 -0.9267  1.3490  0.5855
11301TIP3    H255319   6.059   6.562  12.624 -1.4702  1.9018  0.2213
11302TIP3   OH255320   3.271   1.442   5.895 -0.3859 -0.2540  0.3649
11302TIP3    H155321   3.204   1.477   5.835 -1.0194 -0.2335  1.0669
11302TIP3    H255322   3.304   1.365   5.850  0.3451  0.6746 -0.7691
11303TIP3   OH255323   0.521   0.760  11.894 -0.0730 -0.0959  0.4670
11303TIP3    H155324   0.430   0.790  11.892 -0.3248 -0.8563 -0.5310
11303TIP3    H255325   0.556   0.787  11.809  0.0515 -1.4974  0.0552
11304TIP3   OH255326   0.327   4.598   5.455 -0.5375 -0.1865  0.9670
11304TIP3    H155327   0.385   4.633   5.388 -1.2517 -1.4908 -0.4132
11304TIP3    H255328   0.239   4.623   5.427 -0.8017 -0.0618  1.8630
11305TIP3   OH255329   4.555   3.467   4.121 -0.4385  0.3530  0.7153
11305TIP3    H155330   4.462   3.444   4.126 -0.4166  0.2850  0.8036
11305TIP3    H255331   4.559   3.558   4.150 -0.4410  0.2712  0.9714
11306TIP3   OH255332   1.384   4.460  11.034  0.5198 -0.0107  0.3840
11306TIP3    H155333   1.368   4.453  10.939  0.1830  3.5530  0.0307
11306TIP3    H255334   1.298   4.451  11.074  0.6410 -1.3691  0.3660
11307TIP3   OH255335   3.258   6.184  14.923  0.6003  0.7093  0.1020
11307TIP3    H155336   3.284   6.175  14.832  1.6963 -0.0588  0.4746
11307TIP3    H255337   3.298   6.109  14.967 -1.6155 -0.1231  0.8560
11308TIP3   OH255338   3.086   4.898  15.384  0.6528  0.4287 -0.0353
11308TIP3    H155339   3.028   4.956  15.434 -0.6737 -0.8145 -0.0583
11308TIP3    H255340   3.039   4.881  15.302  1.3662 -0.0525 -0.3545
11309TIP3   OH255341   2.404   2.290   4.122  0.2795 -0.0798 -0.1824
11309TIP3    H155342   2.368   2.356   4.182  0.7683  1.3699 -1.4361
11309TIP3    H255343   2.491   2.322   4.100  2.4858 -3.3807  2.5651
11310TIP3   OH255344   4.142   5.079  15.166 -0.0749  0.0131 -0.4837
11310TIP3    H155345   4.175   5.009  15.110  1.7079 -0.7785  1.4136
11310TIP3    H255346   4.092   5.136  15.108  2.3592 -0.2855 -3.0472
11311TIP3   OH255347   4.333   0.887  14.409  0.0129  0.2620  0.1209
11311TIP3    H155348   4.294   0.800  14.402  1.5968 -0.4966  0.3787
11311TIP3    H255349   4.304   0.919  14.494  0.1357 -0.3789  0.4097
11312TIP3   OH255350   1.319   5.197   2.767  0.8534 -0.6415  0.5371
11312TIP3    H155351   1.358   5.134   2.828 -1.3414 -1.5973  1.0625
11312TIP3    H255352   1.274   5.260   2.824  0.8101 -0.1213 -0.0647
11313TIP3   OH255353   3.129   4.470   4.165 -0.3823 -0.5662 -0.0695
11313TIP3    H155354   3.211   4.515   4.184 -1.5049  1.1973  0.9076
11313TIP3    H255355   3.107   4.426   4.247 -1.0381  0.0517  0.0975
11314TIP3   OH255356   5.119   5.014  13.523  0.6314  0.2810  0.6214
11314TIP3    H155357   5.207   5.050  13.539  0.6415  0.4707  0.1247
11314TIP3    H255358   5.099   4.966  13.604  2.5621 -2.5582 -0.4339
11315TIP3   OH255359   3.202   1.389   1.266  0.6816  0.0172  0.1425
11315TIP3    H155360   3.294   1.404   1.284  1.1225 -1.8959 -0.3161
11315TIP3    H255361   3.200   1.315   1.205 -1.1980 -1.3881  1.7637
11316TIP3   OH255362   2.919   5.296   6.260  0.5706 -0.2192  0.0449
11316TIP3    H155363   2.933   5.314   6.167  0.0877 -1.7615 -0.3528
11316TIP3    H255364   2.880   5.209   6.262  0.1411 -0.0171  1.6794
11317TIP3   OH255365   5.938   0.345   3.545  0.3425 -0.8325 -0.4503
11317TIP3    H155366   5.951   0.331   3.451 -1.8993 -2.2921 -0.6236
11317TIP3    H255367   5.860   0.401   3.550  1.5996  0.9628  0.5692
11318TIP3   OH255368   0.062   6.703   5.269  0.2097  0.6845  0.1374
11318TIP3    H155369   0.087   6.612   5.284  0.9426  0.3627 -2.5336
11318TIP3    H255370  -0.020   6.714   5.318  0.2358 -1.3112  0.6916
11319TIP3   OH255371   6.447   3.409  10.792 -0.0223 -1.1423 -0.7896
11319TIP3    H155372   6.485   3.322  10.779 -0.8273 -1.6333  0.0312
11319TIP3    H255373   6.352   3.394  10.791 -0.1641 -0.4188  0.2926
11320TIP3   OH255374   2.755   2.892   4.123  0.1443 -0.5284 -0.1770
11320TIP3    H155375   2.837   2.875   4.077  0.1301 -0.8334 -0.0922
11320TIP3    H255376   2.744   2.817   4.182 -0.2048 -0.5001 -0.2016
11321TIP3   OH255377   4.164   3.399   0.156 -0.1015  0.3455 -0.5033
11321TIP3    H155378   4.196   3.468   0.214  1.4214 -1.7619  1.3486
11321TIP3    H255379   4.201   3.421   0.071  2.8482  0.3488  0.6543
11322TIP3   OH255380   3.339   6.491   4.269  0.0127 -0.5205  0.3393
11322TIP3    H155381   3.335   6.582   4.298  0.3566 -0.7313  1.0664
11322TIP3    H255382   3.249   6.470   4.244  0.2677  0.6162 -1.7522
11323TIP3   OH255383   2.280   5.843   0.489 -0.1895  0.3628 -0.0503
11323TIP3    H155384   2.292   5.893   0.409 -0.9898 -1.3690 -1.2982
11323TIP3    H255385   2.285   5.909   0.559 -1.8871  2.3272 -1.6455
11324TIP3   OH255386   5.563   4.389  13.217  0.3363  0.0060  0.7599
11324TIP3    H155387   5.553   4.409  13.124 -1.1418  0.3860  0.9741
11324TIP3    H255388   5.643   4.336  13.222 -0.4288 -1.3954 -0.9364
11325TIP3   OH255389   5.704   0.208   3.764 -0.4615 -0.0490  0.1277
11325TIP3    H155390   5.717   0.131   3.818 -0.3140 -0.0912  0.0321
11325TIP3    H255391   5.788   0.253   3.765 -0.3681 -0.2045 -0.3038
11326TIP3   OH255392   2.521   2.241  13.698 -0.5429 -0.5558  0.2844
11326TIP3    H155393   2.591   2.256  13.762 -0.7412  4.3329 -0.3183
11326TIP3    H255394   2.445   2.219  13.752 -0.0985  0.9151  1.5918
11327TIP3   OH255395   0.738   1.145  13.569 -0.0476 -0.2696 -0.5326
11327TIP3    H155396   0.729   1.085  13.644  1.1195  1.2049  0.8661
11327TIP3    H255397   0.663   1.203  13.576  1.2334  1.3131  0.9436
11328TIP3   OH255398   0.117   5.408   6.567 -0.2255 -0.4993 -0.2356
11328TIP3    H155399   0.128   5.355   6.489  1.6505 -0.7974  0.1947
11328TIP3    H255400   0.195   5.463   6.570 -1.9792  2.2219 -0.5662
11329TIP3   OH255401   0.283   0.700  17.181  0.0203 -0.7513 -0.2045
11329TIP3    H155402   0.319   0.704  17.093  3.2628  2.5903  0.9791
11329TIP3    H255403   0.336   0.633  17.225  0.6046 -0.1868 -0.0331
11330TIP3   OH255404   3.272   3.462  11.303  0.2943 -0.0961  0.6444
11330TIP3    H155405   3.199   3.414  11.263 -2.1177  2.2583  1.8362
11330TIP3    H255406   3.279   3.542  11.251  0.1203  0.9679  2.1778
11331TIP3   OH255407   4.078   5.707  12.039 -0.7974 -0.2868  0.2001
11331TIP3    H155408   4.022   5.719  11.962  1.5372  0.2781 -1.5243
11331TIP3    H255409   4.049   5.774  12.101 -1.4508  0.5429 -0.9747
11332TIP3   OH255410   6.142   2.296   4.169 -0.1888  0.2823  0.5195
11332TIP3    H155411   6.064   2.351   4.167 -1.0242 -0.8613  0.1668
11332TIP3    H255412   6.158   2.274   4.077 -0.4074 -0.7610  0.7170
11333TIP3   OH255413   5.978   5.260  13.905 -0.0552  0.4582 -0.0270
11333TIP3    H155414   5.895   5.261  13.952 -0.5461  1.5540 -0.8517
11333TIP3    H255415   5.983   5.348  13.865  0.9599  0.0225 -0.8930
11334TIP3   OH255416   2.574   4.462   1.390 -0.4668  0.5323 -0.6980
11334TIP3    H155417   2.479   4.470   1.379 -0.3670  1.0220 -1.2726
11334TIP3    H255418   2.588   4.471   1.484 -1.0195  0.0925 -0.5685
11335TIP3   OH255419   0.732   5.284  14.294 -0.4971  0.1890 -0.4621
11335TIP3    H155420   0.710   5.205  14.245 -0.2043  0.6441 -1.3546
11335TIP3    H255421   0.777   5.253  14.372  2.4108 -0.4571 -2.2658
11336TIP3   OH255422   4.916   3.264   3.969  0.7835  0.8217  0.2658
11336TIP3    H155423   4.953   3.177   3.952 -0.4377  0.4618 -0.6431
11336TIP3    H255424   4.985   3.325   3.941  1.6894  0.1741  0.9916
11337TIP3   OH255425   4.842   0.449  15.473  0.6175  0.0345 -0.0401
11337TIP3    H155426   4.829   0.544  15.463  1.7463  0.0868 -1.1962
11337TIP3    H255427   4.933   0.440  15.500  0.1566 -0.6838  1.3897
11338TIP3   OH255428   5.808   0.992  11.576  0.6968 -0.4539  0.0728
11338TIP3    H155429   5.753   0.914  11.587  1.9561 -1.1399  1.8221
11338TIP3    H255430   5.748   1.066  11.588 -0.4684 -1.0905 -1.3755
11339TIP3   OH255431   0.043   6.247  14.653  1.0757  0.1660  0.0254
11339TIP3    H155432  -0.046   6.276  14.636  0.8009 -1.1579 -0.9767
11339TIP3    H255433   0.098   6.320  14.625  0.3270  0.9966  0.6593
11340TIP3   OH255434   3.462   5.124  11.632 -1.1897 -0.0436  0.2565
11340TIP3    H155435   3.382   5.158  11.672 -1.1340 -0.3267  0.6168
11340TIP3    H255436   3.437   5.100  11.543 -1.3294  0.5404  0.1365
11341TIP3   OH255437   6.106   6.269   5.479 -0.2330 -0.0649 -0.0031
11341TIP3    H155438   6.010   6.269   5.485 -0.2260 -1.8989  0.7663
11341TIP3    H255439   6.123   6.289   5.387 -1.4286 -1.1677 -0.5034
11342TIP3   OH255440   4.222   0.722   4.968  0.5569 -0.0011  0.4367
11342TIP3    H155441   4.295   0.685   5.018  0.0804  0.3307  1.4061
11342TIP3    H255442   4.158   0.747   5.034 -0.4108 -0.2123 -0.3963
11343TIP3   OH255443   1.803   2.818  11.018 -0.2140 -0.0583 -0.4404
11343TIP3    H155444   1.780   2.740  10.966 -0.7839  0.0204 -0.3102
11343TIP3    H255445   1.719   2.855  11.044  0.0360 -0.7611  1.5380
11344TIP3   OH255446   5.513   2.339   1.961 -0.0169  0.2228  0.2538
11344TIP3    H155447   5.538   2.360   1.871 -0.5962 -0.1883 -0.0128
11344TIP3    H255448   5.566   2.262   1.983  1.9829  1.7725  1.1727
11345TIP3   OH255449   0.772   4.657   2.230  0.3109 -0.0053 -0.1713
11345TIP3    H155450   0.832   4.588   2.204 -0.9627 -1.5121  0.6799
11345TIP3    H255451   0.686   4.628   2.199 -0.4961  0.4173  1.5239
11346TIP3   OH255452   1.844   2.146   3.888 -0.1096 -0.6260  0.3116
11346TIP3    H155453   1.834   2.081   3.819 -0.7940 -1.5914  1.2912
11346TIP3    H255454   1.794   2.221   3.857  0.3731 -0.6886 -0.6605
11347TIP3   OH255455   2.128   2.838  16.002  0.4260  0.3664  0.2742
11347TIP3    H155456   2.153   2.867  16.090 -0.6000  0.4877  0.5444
11347TIP3    H255457   2.144   2.915  15.947 -1.1899  1.1405  0.7935
11348TIP3   OH255458   4.798   3.896  15.208 -0.8575 -0.1480  0.3218
11348TIP3    H155459   4.816   3.884  15.115  0.7202  0.8718  0.4674
11348TIP3    H255460   4.742   3.974  15.211 -0.8862 -0.1647  0.2368
11349TIP3   OH255461   1.348   4.327  12.235  0.0759  0.6469 -0.5719
11349TIP3    H155462   1.356   4.312  12.141 -0.3975 -0.3743 -0.4653
11349TIP3    H255463   1.300   4.409  12.243  2.6418  2.3120 -1.1965
11350TIP3   OH255464   4.604   3.354  13.758 -0.7913  0.6208 -0.0708
11350TIP3    H155465   4.515   3.326  13.738 -1.2247  1.2337  0.9300
11350TIP3    H255466   4.621   3.424  13.694 -1.6166  1.5537  0.6873
11351TIP3   OH255467   4.535   5.971   2.600 -0.1348 -0.5199 -0.1245
11351TIP3    H155468   4.512   6.020   2.680 -1.3538  0.7888 -1.2260
11351TIP3    H255469   4.608   5.916   2.627 -0.0232  0.4231  1.7153
11352TIP3   OH255470   1.497   5.466  12.438 -0.6288 -0.0359 -0.6191
11352TIP3    H155471   1.460   5.388  12.397 -1.1336 -1.1766  1.8131
11352TIP3    H255472   1.560   5.499  12.374  0.3135 -2.9819 -1.3763
11353TIP3   OH255473   5.053   1.453   2.709  0.2377 -0.4610  0.3120
11353TIP3    H155474   5.061   1.546   2.730  0.1662 -0.3279 -0.2279
11353TIP3    H255475   4.960   1.434   2.718 -0.4430  0.4654 -3.2498
11354TIP3   OH255476   5.409   0.882  14.099 -0.0768 -0.2126 -0.0147
11354TIP3    H155477   5.433   0.842  14.183 -0.3864  1.7553  1.0687
11354TIP3    H255478   5.348   0.953  14.122 -2.4248 -1.3507 -2.1542
11355TIP3   OH255479   0.114   3.632  15.400 -0.0932  0.4996 -0.4146
11355TIP3    H155480   0.027   3.630  15.439 -1.0561  1.7209 -2.3709
11355TIP3    H255481   0.172   3.657  15.473 -1.3812 -0.0422  0.8401
11356TIP3   OH255482   1.649   0.255   2.692 -0.3083 -0.4844  0.0640
11356TIP3    H155483   1.664   0.160   2.688 -0.3611 -0.4622 -2.7329
11356TIP3    H255484   1.555   0.266   2.677 -0.2186  0.0073 -0.1738
11357TIP3   OH255485   0.281   2.999   0.262  0.1215  0.1271 -0.2033
11357TIP3    H155486   0.191   2.980   0.288  0.0750  0.8026  0.1768
11357TIP3    H255487   0.328   3.010   0.345  0.4673  0.1593 -0.4016
11358TIP3   OH255488   6.125   0.956  13.067  0.0922 -0.0136  0.1628
11358TIP3    H155489   6.046   0.981  13.114  0.2724 -2.2539  1.8236
11358TIP3    H255490   6.195   1.006  13.108  0.0752 -1.0775  1.5601
11359TIP3   OH255491   6.768   1.081   0.810 -0.4090  0.5498 -0.4380
11359TIP3    H155492   6.676   1.077   0.835  0.1355 -1.2840  1.5746
11359TIP3    H255493   6.803   0.994   0.832  2.1521  1.6746  0.3079
11360TIP3   OH255494   5.812   3.286   2.830  0.2781  0.3062  0.3936
11360TIP3    H155495   5.907   3.278   2.828  0.2687 -0.0761  1.0145
11360TIP3    H255496   5.781   3.197   2.847 -0.1157  0.6722  1.6820
11361TIP3   OH255497   0.064   6.368   0.075 -0.0392 -0.5345 -0.2884
11361TIP3    H155498   0.137   6.318   0.111 -0.7517 -0.0826  1.9671
11361TIP3    H255499   0.047   6.328  -0.010  2.6836 -0.7453 -0.8214
11362TIP3   OH255500   2.306   4.851   3.345 -0.9512  0.1470  0.0764
11362TIP3    H155501   2.225   4.898   3.364 -0.2631  1.1097  0.7444
11362TIP3    H255502   2.330   4.879   3.257 -0.7165  0.8152  0.3463
11363TIP3   OH255503   1.212   5.489  14.380 -0.0745 -0.5320 -0.4574
11363TIP3    H155504   1.221   5.406  14.427 -1.5970 -0.6480 -0.3213
11363TIP3    H255505   1.119   5.494  14.357 -0.1055  1.3238 -0.1021
11364TIP3   OH255506   0.386   1.827   2.405 -0.0089 -0.1759  0.9625
11364TIP3    H155507   0.391   1.734   2.431 -0.7758 -0.0259  1.7072
11364TIP3    H255508   0.293   1.848   2.411  0.2581  0.8799  1.6741
11365TIP3   OH255509   2.484   2.943  14.574  0.4409  0.3286 -0.1009
11365TIP3    H155510   2.448   2.928  14.487 -1.0107 -2.2085  0.8253
11365TIP3    H255511   2.407   2.954  14.631  1.2952  0.2755  1.1086
11366TIP3   OH255512   3.177   5.770  14.898 -0.1181 -0.2314  0.4963
11366TIP3    H155513   3.135   5.849  14.932  0.3219  0.7471 -1.1209
11366TIP3    H255514   3.267   5.775  14.931  0.0024  0.1348  0.1273
11367TIP3   OH255515   3.333   0.754   2.383  0.3068  0.0670  0.0292
11367TIP3    H155516   3.427   0.773   2.374  0.1741  1.0129  0.5660
11367TIP3    H255517   3.310   0.787   2.470 -0.3103 -1.0970  0.3277
11368TIP3   OH255518   3.282   0.457   2.486 -0.2938  0.6591 -0.8372
11368TIP3    H155519   3.297   0.452   2.392  1.1444  1.0975 -0.6557
11368TIP3    H255520   3.354   0.510   2.520 -1.0447  0.9105  0.4570
11369TIP3   OH255521   3.265   3.745   0.016  0.2090  0.4207 -0.0975
11369TIP3    H155522   3.303   3.797   0.086  0.8502  0.7566 -0.6880
11369TIP3    H255523   3.242   3.809  -0.052  1.2386 -0.0705 -0.9382
11370TIP3   OH255524   4.482   2.640  14.638  0.0882 -0.2804  0.4333
11370TIP3    H155525   4.467   2.620  14.731  0.8398 -0.5603  0.5055
11370TIP3    H255526   4.576   2.656  14.633 -0.0466  0.3167 -0.1789
11371TIP3   OH255527   1.108   5.332   5.020  0.4882 -0.3696 -0.2008
11371TIP3    H155528   1.093   5.301   4.931  2.4801 -0.2484 -0.6228
11371TIP3    H255529   1.151   5.258   5.064  0.3670 -0.1018  0.3712
11372TIP3   OH255530   6.065   4.588  15.680 -0.2733  0.0708  0.0351
11372TIP3    H155531   6.078   4.501  15.642 -0.9862  1.0798 -2.7698
11372TIP3    H255532   6.022   4.571  15.764  1.6153 -2.3315  0.6305
11373TIP3   OH255533   0.218   1.926   1.382  0.0316 -0.1851 -0.2356
11373TIP3    H155534   0.184   1.875   1.455 -2.2756  0.9617 -0.4338
11373TIP3    H255535   0.188   1.879   1.304  0.6863 -0.2535 -0.4563
11374TIP3   OH255536   1.192   3.153   0.835 -0.0746  0.3355 -0.2375
11374TIP3    H155537   1.255   3.089   0.869  0.0118  0.4917 -0.1022
11374TIP3    H255538   1.147   3.186   0.913  0.2733  0.8527 -0.2541
11375TIP3   OH255539   3.644   0.827   5.615 -0.1157 -0.3075 -0.2719
11375TIP3    H155540   3.735   0.808   5.594 -0.4078  0.7746 -2.9746
11375TIP3    H255541   3.643   0.921   5.636 -0.7443  0.0113 -1.5961
11376TIP3   OH255542   3.276   2.291  11.585 -0.7697 -0.1710 -0.5372
11376TIP3    H155543   3.363   2.328  11.597 -0.1118 -1.8222 -0.0928
11376TIP3    H255544   3.234   2.350  11.522  1.2941 -0.3783 -2.2145
11377TIP3   OH255545   3.603   6.096   5.371  0.3781 -0.1409  0.0043
11377TIP3    H155546   3.587   6.129   5.283  0.9985  0.8315  0.2279
11377TIP3    H255547   3.533   6.033   5.387  0.8629 -1.1408 -1.5741
11378TIP3   OH255548   6.117   4.522   4.946 -0.0846  0.4305  0.0649
11378TIP3    H155549   6.117   4.430   4.973  4.5955  0.2061  0.0761
11378TIP3    H255550   6.107   4.571   5.027 -0.7585 -0.0691  0.2915
11379TIP3   OH255551   1.304   3.814  16.742 -0.3620  0.4860 -0.4270
11379TIP3    H155552   1.345   3.836  16.658  0.3955  0.9728  0.0598
11379TIP3    H255553   1.294   3.898  16.786 -0.9665  0.2563 -0.1146
11380TIP3   OH255554   4.523   5.266   0.656 -0.2880  0.4750  0.2817
11380TIP3    H155555   4.485   5.346   0.620 -0.8297  0.2319  0.3051
11380TIP3    H255556   4.454   5.200   0.646 -0.0865  0.1690  0.8610
11381TIP3   OH255557   1.082   4.663   3.107  0.3166  0.1954 -0.5642
11381TIP3    H155558   0.994   4.625   3.106 -0.2425  1.3090  1.4529
11381TIP3    H255559   1.139   4.593   3.075 -1.4523  0.0566 -3.8477
11382TIP3   OH255560   1.944   1.637   0.707 -0.2844  0.2443  0.0107
11382TIP3    H155561   1.919   1.705   0.644  1.4087  2.4268  1.5360
11382TIP3    H255562   1.861   1.609   0.745 -1.3684 -1.1204 -3.0189
11383TIP3   OH255563   6.119   1.726   2.278 -0.0318  0.6386 -0.0894
11383TIP3    H155564   6.027   1.700   2.278  0.4297 -1.4921  2.9938
11383TIP3    H255565   6.134   1.761   2.365  2.2380  0.3595 -0.3096
11384TIP3   OH255566   4.972   1.155  13.219 -0.0659  0.9124 -0.0973
11384TIP3    H155567   4.926   1.239  13.218 -1.4324  0.2018  0.6285
11384TIP3    H255568   4.983   1.134  13.311  3.6147  1.9925 -0.1335
11385TIP3   OH255569   3.712   0.442   3.255  0.0194  0.2365 -0.1538
11385TIP3    H155570   3.759   0.416   3.176 -0.8473 -3.2199  0.3065
11385TIP3    H255571   3.767   0.412   3.327 -0.6056  0.5812  0.4796
11386TIP3   OH255572   5.461   5.609  13.277 -0.3011  0.2372  0.5124
11386TIP3    H155573   5.534   5.590  13.335 -0.1780  1.9834  0.9687
11386TIP3    H255574   5.386   5.623  13.335 -0.8874 -0.9271  0.0772
11387TIP3   OH255575   2.336   2.724  15.334 -0.5682  0.2972  0.0664
11387TIP3    H155576   2.299   2.806  15.301 -0.0491 -0.3829 -2.4674
11387TIP3    H255577   2.364   2.677  15.255  3.2762 -0.3937  1.6024
11388TIP3   OH255578   4.380   0.266  10.780  0.2177  0.1960  0.2116
11388TIP3    H155579   4.451   0.303  10.726  0.7091 -2.1649 -0.8773
11388TIP3    H255580   4.300   0.302  10.741  0.6315 -0.4522 -1.3407
11389TIP3   OH255581   1.650   1.519  13.314  0.1324  0.3644  0.0631
11389TIP3    H155582   1.729   1.500  13.365  0.2738  0.6500 -0.0478
11389TIP3    H255583   1.591   1.446  13.334 -0.1846  0.9377  1.3800
11390TIP3   OH255584   3.396   1.511  16.760 -0.3033  0.0194  0.1397
11390TIP3    H155585   3.368   1.528  16.850 -1.6421 -2.1481  0.1782
11390TIP3    H255586   3.489   1.489  16.767 -0.3906 -0.0835  0.9789
11391TIP3   OH255587   6.734   2.521   4.169  0.0404  0.1612 -0.2677
11391TIP3    H155588   6.717   2.482   4.255  0.1228 -0.4108 -0.5096
11391TIP3    H255589   6.648   2.523   4.126  0.4195 -2.2923 -1.3060
11392TIP3   OH255590   3.098   1.199   5.824 -0.2766  0.0452 -0.1627
11392TIP3    H155591   3.019   1.248   5.801  0.1794  0.9832  0.2123
11392TIP3    H255592   3.091   1.185   5.919  0.0277  0.1718 -0.1197
11393TIP3   OH255593   6.432   6.102   5.683 -0.2743 -0.2936 -0.1499
11393TIP3    H155594   6.369   6.173   5.689 -0.4492 -0.2454 -2.0588
11393TIP3    H255595   6.514   6.140   5.716 -0.2342  0.9910 -1.6073
11394TIP3   OH255596   3.938   6.562  13.078 -0.3085  0.0045  0.5894
11394TIP3    H155597   3.908   6.471  13.073 -1.5121  0.3167  1.4765
11394TIP3    H255598   3.998   6.564  13.153  0.8537 -0.3260 -0.3037
11395TIP3   OH255599   1.084   4.715   2.346 -0.1718 -0.7216 -0.0900
11395TIP3    H155600   1.177   4.740   2.346 -0.6737  1.3707 -0.4385
11395TIP3    H255601   1.062   4.704   2.254 -0.4160 -0.5196 -0.0574
11396TIP3   OH255602   1.985   5.423   5.365  0.0104 -0.1127  0.0528
11396TIP3    H155603   1.923   5.401   5.294 -0.0708 -0.1292  0.1288
11396TIP3    H255604   2.033   5.498   5.331 -0.2401  0.0720  0.1054
11397TIP3   OH255605   0.501   0.171  11.170 -0.2098  0.1206 -0.0496
11397TIP3    H155606   0.571   0.178  11.235 -1.0963  0.3281  0.9108
11397TIP3    H255607   0.545   0.187  11.086  0.8445  0.4938  0.5491
11398TIP3   OH255608   1.551   3.662   1.058  0.0906 -0.1432 -0.7422
11398TIP3    H155609   1.596   3.695   1.135 -0.2301  1.9668 -1.3965
11398TIP3    H255610   1.610   3.597   1.021  0.4537 -0.8368  0.9897
11399TIP3   OH255611   3.085   2.859   3.485  0.2423  0.0501 -0.5349
11399TIP3    H155612   3.069   2.815   3.402  1.7769 -0.3620 -0.6401
11399TIP3    H255613   3.129   2.940   3.461 -0.3917  0.5136 -0.1805
11400TIP3   OH255614   5.571   1.584   0.424 -0.0776  0.3758 -0.3071
11400TIP3    H155615   5.588   1.507   0.370  0.3201 -0.6541  1.2297
11400TIP3    H255616   5.501   1.558   0.483  0.8832  0.7446  1.0571
11401TIP3   OH255617   1.214   4.477  11.433 -0.7816  0.3528  0.0093
11401TIP3    H155618   1.200   4.539  11.362  0.0458  1.5823  0.8787
11401TIP3    H255619   1.135   4.484  11.488 -1.1492 -0.1468 -0.4483
11402TIP3   OH255620   2.508   3.340   1.423 -0.5227  0.4049  0.0856
11402TIP3    H155621   2.546   3.370   1.506  1.9673 -1.7155 -0.1672
11402TIP3    H255622   2.546   3.253   1.409 -2.3896 -0.1339 -2.3537
11403TIP3   OH255623   2.600   6.325  14.486 -0.1543 -0.1551  0.0772
11403TIP3    H155624   2.648   6.290  14.411  0.6213  2.2901 -0.6369
11403TIP3    H255625   2.649   6.293  14.562 -0.3961 -1.8687 -0.4335
11404TIP3   OH255626   2.743   3.654  11.263 -0.1393  0.7617 -0.1681
11404TIP3    H155627   2.805   3.726  11.263  0.2749  0.4424  1.4666
11404TIP3    H255628   2.694   3.664  11.181  1.3495  1.6213 -0.9836
11405TIP3   OH255629   2.571   2.497  13.407 -0.0821  0.2679  0.4682
11405TIP3    H155630   2.623   2.548  13.468  0.8905 -0.9799  0.7210
11405TIP3    H255631   2.627   2.424  13.383 -1.0832 -0.1727 -0.6169
11406TIP3   OH255632   0.203   5.539  15.843  0.3896 -0.3051  0.2523
11406TIP3    H155633   0.118   5.505  15.816 -0.0997 -0.9738  2.4924
11406TIP3    H255634   0.188   5.631  15.864  0.0022 -0.6324  1.4635
11407TIP3   OH255635   2.840   1.146   5.158  0.1559  0.1078  0.0574
11407TIP3    H155636   2.817   1.144   5.065 -3.1547  2.1712  0.6641
11407TIP3    H255637   2.836   1.055   5.186 -1.5850 -0.3026 -1.3202
11408TIP3   OH255638   0.125   5.245  15.123 -0.4200 -0.1608 -0.1627
11408TIP3    H155639   0.058   5.267  15.057  0.3996 -0.3660 -1.0911
11408TIP3    H255640   0.205   5.285  15.089 -0.5656  2.5424  2.3446
11409TIP3   OH255641   2.757   5.092   2.169 -0.1695  0.7481  0.4669
11409TIP3    H155642   2.714   5.170   2.204 -0.8838 -0.8889  3.6268
11409TIP3    H255643   2.694   5.021   2.185  1.6253 -0.9127  0.4784
11410TIP3   OH255644   2.533   3.475  16.521 -0.1631 -0.5084  0.1729
11410TIP3    H155645   2.466   3.505  16.460  1.4616 -0.6540 -1.7933
11410TIP3    H255646   2.591   3.551  16.532  1.5710 -1.4939 -1.4397
11411TIP3   OH255647   4.919   6.590  14.919  0.4870  0.0984 -0.0538
11411TIP3    H155648   4.846   6.651  14.926  0.0418 -0.3486 -0.6679
11411TIP3    H255649   4.940   6.567  15.009  0.7046  1.1967  0.1870
11412TIP3   OH255650   4.150   1.628  11.521  1.1079  0.3561  0.1075
11412TIP3    H155651   4.072   1.683  11.526  0.2731 -0.6137 -1.5563
11412TIP3    H255652   4.167   1.619  11.427 -0.4687 -4.4381  0.0081
11413TIP3   OH255653   3.250   5.562   0.039  0.4283 -0.1231  0.6968
11413TIP3    H155654   3.161   5.559   0.005 -0.4036  2.5123  2.3267
11413TIP3    H255655   3.306   5.545  -0.037 -1.3975  0.0104 -0.7369
11414TIP3   OH255656   3.335   6.680   0.704 -0.6152  0.1286 -0.3752
11414TIP3    H155657   3.318   6.771   0.727 -0.0564  0.7555 -2.2691
11414TIP3    H255658   3.249   6.638   0.706 -0.8950  0.7107  0.3881
11415TIP3   OH255659   6.070   6.088  14.511  0.1390  0.0288 -0.1696
11415TIP3    H155660   6.111   6.004  14.495 -0.4281 -0.0191 -1.4678
11415TIP3    H255661   6.008   6.071  14.583  1.7510 -0.0676  1.2603
11416TIP3   OH255662   4.135   1.457   5.346  0.7767  0.1236 -0.0968
11416TIP3    H155663   4.202   1.487   5.407  0.3455  2.2520 -0.6119
11416TIP3    H255664   4.180   1.452   5.262  0.4309  1.0844 -0.3499
11417TIP3   OH255665   2.242   6.437  10.648 -0.3337  0.1457  0.4129
11417TIP3    H155666   2.239   6.341  10.649  0.9037  0.0701 -0.6195
11417TIP3    H255667   2.305   6.458  10.579 -0.8455  1.7193  0.3919
11418TIP3   OH255668   5.460   4.825   4.198  0.0078  0.5259  0.4669
11418TIP3    H155669   5.444   4.794   4.287  1.1920 -0.4483  0.3758
11418TIP3    H255670   5.542   4.874   4.204  1.9000 -2.2110 -0.5553
11419TIP3   OH255671   2.793   1.206  15.631 -0.2996  0.1525  0.5943
11419TIP3    H155672   2.705   1.239  15.618 -0.7652 -1.5841 -1.0348
11419TIP3    H255673   2.789   1.163  15.717 -1.3930 -0.9386  0.0222
11420TIP3   OH255674   1.420   4.476  12.559  0.3499 -0.1077 -0.0025
11420TIP3    H155675   1.389   4.395  12.601 -2.5067  0.9103  0.0599
11420TIP3    H255676   1.451   4.448  12.473  0.3593 -1.3904  0.3940
11421TIP3   OH255677   1.674   0.902   6.139  0.4699 -0.0945 -0.4202
11421TIP3    H155678   1.644   0.945   6.059 -0.8978 -0.3246 -0.0575
11421TIP3    H255679   1.721   0.970   6.187  1.1034  0.1072 -1.2968
11422TIP3   OH255680   5.951   0.316   1.711  0.7386 -0.2186  0.0798
11422TIP3    H155681   5.886   0.301   1.780  2.2749 -2.0282  1.2294
11422TIP3    H255682   5.947   0.238   1.656  0.6434  0.5023 -0.9556
11423TIP3   OH255683   6.169   5.553  14.307 -0.0254  0.0940  0.0574
11423TIP3    H155684   6.078   5.530  14.287 -0.0215  2.1344 -3.0701
11423TIP3    H255685   6.219   5.475  14.282 -0.7215 -0.0446 -0.9917
11424TIP3   OH255686   1.440   1.696  12.691  0.0679 -0.2421 -0.0879
11424TIP3    H155687   1.438   1.752  12.768 -0.1592 -0.7533  0.2838
11424TIP3    H255688   1.497   1.624  12.715  1.2283  0.3596 -0.9524
11425TIP3   OH255689   5.103   2.974  15.301 -0.1063 -0.1994  0.0453
11425TIP3    H155690   5.106   2.878  15.306 -2.2630 -0.2775  1.7221
11425TIP3    H255691   5.012   2.993  15.277  1.0155  1.4509 -3.4520
11426TIP3   OH255692   1.895   2.131   0.119 -0.8550 -0.4232  0.4150
11426TIP3    H155693   1.902   2.227   0.117 -0.2701 -0.4767 -0.8942
11426TIP3    H255694   1.819   2.114   0.175 -0.7721  0.7926  0.9305
11427TIP3   OH255695   4.483   6.279  14.545 -0.0607 -0.4239  0.2142
11427TIP3    H155696   4.421   6.246  14.480  0.4201  0.5252 -0.7667
11427TIP3    H255697   4.430   6.331  14.605 -0.3792 -0.5899  0.0791
11428TIP3   OH255698   2.237   4.393   6.061  0.2350 -0.2770  0.1754
11428TIP3    H155699   2.202   4.422   6.145 -0.4064 -0.2916 -0.0836
11428TIP3    H255700   2.240   4.473   6.007 -1.3403 -0.6179 -0.4722
11429TIP3   OH255701   4.763   4.832  15.845  0.6310  0.3994  0.0220
11429TIP3    H155702   4.821   4.897  15.884 -2.3406  1.1991  3.6358
11429TIP3    H255703   4.715   4.880  15.778  2.0643  0.4367 -1.0318
11430TIP3   OH255704   0.445   2.797   5.237  0.8313  0.1644  0.4618
11430TIP3    H155705   0.372   2.803   5.176  1.9680 -2.0876 -1.2600
11430TIP3    H255706   0.405   2.771   5.320 -0.5169  1.1584  0.1585
11431TIP3   OH255707   2.065   6.432  12.349 -0.0775  0.2057  0.1018
11431TIP3    H155708   2.047   6.365  12.283  0.9507  1.3435 -1.4175
11431TIP3    H255709   1.981   6.447  12.392 -0.7553 -0.6409 -0.8874
11432TIP3   OH255710   5.676   0.769   5.579 -0.2771  0.0229 -0.1747
11432TIP3    H155711   5.652   0.820   5.502  1.4456 -0.6084 -1.1743
11432TIP3    H255712   5.693   0.835   5.647  0.3898  0.7172 -0.9958
11433TIP3   OH255713   6.386   3.463  10.496 -0.0774  0.3019  0.4714
11433TIP3    H155714   6.334   3.414  10.560  1.5958 -0.9604  0.9258
11433TIP3    H255715   6.477   3.442  10.518  0.6842  2.9343  0.0815
11434TIP3   OH255716   4.325   3.330  17.209  0.2049  0.6032 -0.4713
11434TIP3    H155717   4.401   3.275  17.189 -0.0698  0.4022 -0.9782
11434TIP3    H255718   4.363   3.412  17.241  0.6091 -0.1266  0.9935
11435TIP3   OH255719   4.118   2.940  15.584  0.0977  0.0055 -0.0536
11435TIP3    H155720   4.067   2.992  15.521 -0.1936 -0.4299 -0.1836
11435TIP3    H255721   4.053   2.914  15.651 -0.0236 -1.1634 -0.5992
11436TIP3   OH255722   2.793   1.714   0.739 -0.1496 -0.6455 -0.0428
11436TIP3    H155723   2.882   1.743   0.758 -1.6021  2.3217  3.4519
11436TIP3    H255724   2.771   1.655   0.811 -1.5439  0.1438  0.2290
11437TIP3   OH255725   4.162   4.715  14.632  0.6408  0.8333 -0.2711
11437TIP3    H155726   4.212   4.771  14.691 -0.0736  0.1912  0.9857
11437TIP3    H255727   4.142   4.637  14.684  2.1911 -0.9560 -2.1595
11438TIP3   OH255728   4.142   6.682  15.942 -0.2228  0.0623 -0.3148
11438TIP3    H155729   4.108   6.608  15.891  0.6837 -1.1803  0.8174
11438TIP3    H255730   4.188   6.736  15.878 -2.4678  0.7008 -1.5116
11439TIP3   OH255731   5.792   0.030   4.292  0.2452  0.0278 -0.0332
11439TIP3    H155732   5.700   0.010   4.279  0.1212 -0.3335  1.3154
11439TIP3    H255733   5.825  -0.041   4.347  1.7020 -0.6829 -1.6954
11440TIP3   OH255734   2.026   3.971   5.539 -0.6235 -0.3280  0.2599
11440TIP3    H155735   1.982   4.029   5.477 -0.2311 -0.5263 -0.2041
11440TIP3    H255736   1.986   3.886   5.526  0.5317 -0.7253 -0.8279
11441TIP3   OH255737   3.841   5.906  16.658  0.7926 -0.2966 -0.4181
11441TIP3    H155738   3.840   5.961  16.736 -1.1244  0.4034 -0.8691
11441TIP3    H255739   3.845   5.817  16.692 -0.0897 -0.0090  0.5073
11442TIP3   OH255740   6.146   4.493   2.921 -0.0034  0.5339  0.0734
11442TIP3    H155741   6.060   4.536   2.927  0.0390  0.4574  1.5419
11442TIP3    H255742   6.136   4.431   2.849 -0.9151  1.1112 -0.3171
11443TIP3   OH255743   0.905   5.487  16.842 -0.0887  0.6337  0.5606
11443TIP3    H155744   0.890   5.393  16.838 -1.0333  0.8107 -0.5075
11443TIP3    H255745   0.957   5.499  16.921  0.2883 -0.8092  0.5622
11444TIP3   OH255746   6.702   5.164   3.600  0.8407 -0.0579  0.2703
11444TIP3    H155747   6.693   5.154   3.694  0.4795  1.8351  0.4815
11444TIP3    H255748   6.642   5.099   3.563  0.9095 -0.7449  1.3362
11445TIP3   OH255749   3.255   2.065  13.182  0.0941  0.0341 -0.5631
11445TIP3    H155750   3.280   2.023  13.264  3.3013  0.3119 -1.2847
11445TIP3    H255751   3.180   2.120  13.205  0.9031  0.1106  2.1837
11446TIP3   OH255752   0.279   3.137   0.513 -0.3931 -0.3843 -0.2259
11446TIP3    H155753   0.298   3.130   0.607  0.6823 -2.5271 -0.5255
11446TIP3    H255754   0.191   3.173   0.509 -0.3586  0.0148  1.5957
11447TIP3   OH255755   2.833   4.853   1.398  0.2080 -0.0147 -0.7187
11447TIP3    H155756   2.843   4.788   1.329  3.1171  0.9974 -1.3810
11447TIP3    H255757   2.799   4.804   1.473 -0.6970 -1.6028 -2.0947
11448TIP3   OH255758   6.585   6.612   2.954 -0.8569 -0.3907 -0.2833
11448TIP3    H155759   6.528   6.568   3.016 -1.4202 -0.7755 -1.0476
11448TIP3    H255760   6.553   6.583   2.868 -0.6429  0.7858 -0.7746
11449TIP3   OH255761   1.940   5.142  16.188  0.1874 -0.0629 -0.0759
11449TIP3    H155762   1.931   5.066  16.129  0.5067  0.3347 -0.6523
11449TIP3    H255763   1.998   5.111  16.258  1.6255  0.1005 -1.1424
11450TIP3   OH255764   0.669   5.973   3.166  0.3986 -0.1995  0.0810
11450TIP3    H155765   0.683   6.057   3.122 -3.0655 -0.7344 -2.5085
11450TIP3    H255766   0.705   5.908   3.105 -2.0660 -0.8080 -0.8432
11451TIP3   OH255767   2.551   5.326   5.921 -0.5658 -0.1764 -0.5490
11451TIP3    H155768   2.521   5.401   5.870 -0.9232 -1.3974 -2.2173
11451TIP3    H255769   2.504   5.251   5.884 -0.1876 -1.2393  1.0377
11452TIP3   OH255770   0.312   1.125  17.152  0.1807  0.1729 -0.5381
11452TIP3    H155771   0.385   1.152  17.207  0.4052  0.5362 -1.0022
11452TIP3    H255772   0.282   1.206  17.111 -0.7099  0.0789 -0.0885
11453TIP3   OH255773   4.025   6.446  11.116 -0.4955 -0.4596  0.5198
11453TIP3    H155774   4.076   6.518  11.079 -0.9063 -0.6216 -0.3875
11453TIP3    H255775   4.064   6.367  11.079 -1.6985 -0.5600 -0.5844
11454TIP3   OH255776   1.347   5.212   1.857  0.3907 -0.3620  0.0881
11454TIP3    H155777   1.376   5.132   1.900  0.4745 -0.3987 -0.0364
11454TIP3    H255778   1.323   5.270   1.929  0.3266 -0.4996  0.1791
11455TIP3   OH255779   6.527   3.641   2.715  0.2790 -0.3537  0.1467
11455TIP3    H155780   6.458   3.705   2.733  0.5488 -0.1474  0.4523
11455TIP3    H255781   6.515   3.573   2.782 -1.5043 -1.8719 -1.5755
11456TIP3   OH255782   1.360   1.947  11.670 -0.5244 -0.6761 -0.0362
11456TIP3    H155783   1.389   1.880  11.608  0.6948 -1.8910  1.7131
11456TIP3    H255784   1.414   2.023  11.650 -1.3335 -0.4462 -1.5077
11457TIP3   OH255785   4.942   0.876  12.257 -0.2492 -0.1879 -0.0991
11457TIP3    H155786   4.962   0.785  12.279 -0.4730 -0.5373 -1.2777
11457TIP3    H255787   4.847   0.883  12.265 -0.0510  0.6784  2.5627
11458TIP3   OH255788   6.047   6.106   0.467 -0.0153  0.6601 -0.4673
11458TIP3    H155789   6.044   6.014   0.441 -0.7919  0.6551 -0.3891
11458TIP3    H255790   6.130   6.138   0.432  0.9401 -0.4115  0.7017
11459TIP3   OH255791   5.238   3.092   3.979  0.1091 -0.1292 -0.0613
11459TIP3    H155792   5.154   3.047   3.971  0.6879 -1.4721  0.8915
11459TIP3    H255793   5.303   3.023   3.964  1.0434  0.7728 -0.2600
11460TIP3   OH255794   2.897   1.981  13.377  0.3211 -0.1757 -0.5673
11460TIP3    H155795   2.960   1.941  13.436 -0.8861 -0.4706  0.5621
11460TIP3    H255796   2.942   2.058  13.343  1.4598 -0.6505 -0.1822
11461TIP3   OH255797   5.980   2.544   1.257  0.1740  0.0646  0.0559
11461TIP3    H155798   5.971   2.521   1.165 -0.7115 -1.4104  0.4970
11461TIP3    H255799   6.056   2.494   1.287 -0.2194 -0.3178  0.4072
11462TIP3   OH255800   6.565   3.447  13.768  0.4749 -0.3026  0.2426
11462TIP3    H155801   6.593   3.454  13.676 -1.4686  0.3220 -0.3360
11462TIP3    H255802   6.573   3.535  13.803 -2.4074  0.3208 -0.4766
11463TIP3   OH255803   1.122   4.813  10.750  0.3004 -0.4561  0.4322
11463TIP3    H155804   1.136   4.886  10.811  0.5362  0.3458 -0.5533
11463TIP3    H255805   1.123   4.735  10.806  0.8202  0.2270  1.4177
11464TIP3   OH255806   0.868   1.996   1.522  0.7338 -0.6147  0.2250
11464TIP3    H155807   0.807   1.982   1.450  1.0824  1.4794 -0.5510
11464TIP3    H255808   0.952   2.014   1.480  1.2642 -0.7449  1.1943
11465TIP3   OH255809   1.112   1.478  16.641  0.7604  0.3956  0.7239
11465TIP3    H155810   1.107   1.551  16.702 -0.1578  0.0138  1.1176
11465TIP3    H255811   1.061   1.408  16.682  1.8318 -0.5608  0.4772
11466TIP3   OH255812   1.327   0.439   2.838 -0.3766  0.5486 -0.3601
11466TIP3    H155813   1.411   0.455   2.882 -0.1552 -0.5810 -0.3526
11466TIP3    H255814   1.351   0.416   2.748 -0.6200 -0.5051 -0.1699
11467TIP3   OH255815   3.809   1.137  12.040 -0.0025  0.0077  0.1135
11467TIP3    H155816   3.726   1.146  12.087  0.7116 -0.4502  1.5194
11467TIP3    H255817   3.873   1.177  12.099  0.8472 -0.0828 -0.7409
11468TIP3   OH255818   5.959   6.359   2.722 -0.1497 -0.5297  0.1181
11468TIP3    H155819   6.034   6.314   2.762  1.0717 -0.5065 -2.0135
11468TIP3    H255820   5.884   6.330   2.774  1.2377 -1.0435  1.9413
11469TIP3   OH255821   2.387   2.596   0.294 -0.6623 -0.3132  0.2050
11469TIP3    H155822   2.356   2.555   0.375 -1.0077 -0.5337 -0.0324
11469TIP3    H255823   2.374   2.690   0.309  0.4243 -0.2593  0.8684
11470TIP3   OH255824   5.080   1.338  15.840 -0.4646  0.4516  0.0366
11470TIP3    H155825   5.076   1.288  15.758 -0.7722  2.5473 -1.3115
11470TIP3    H255826   5.140   1.289  15.895 -0.5312 -1.2252 -1.3051
11471TIP3   OH255827   2.543   4.026  17.191  0.3407 -0.4054 -0.5480
11471TIP3    H155828   2.490   4.020  17.271  0.8809 -1.1961 -0.2358
11471TIP3    H255829   2.484   3.997  17.121  0.7535 -2.7046 -0.0116
11472TIP3   OH255830   6.740   5.463  15.370 -0.1596  0.4158 -0.1134
11472TIP3    H155831   6.760   5.504  15.286  0.0321  0.8781  0.1598
11472TIP3    H255832   6.707   5.376  15.346 -0.3949  0.6548 -0.6813
11473TIP3   OH255833   4.046   6.037  12.972  0.1707  0.7168 -0.1585
11473TIP3    H155834   4.032   5.943  12.968  1.0339  0.5769 -0.0946
11473TIP3    H255835   4.123   6.048  13.028  0.0781  1.4602 -0.1568
11474TIP3   OH255836   1.048   0.910  16.322  0.3202  0.6959  0.4687
11474TIP3    H155837   1.073   0.938  16.234  2.6779  2.1432  1.4921
11474TIP3    H255838   1.063   0.815  16.322  3.1236  1.0513  0.0689
11475TIP3   OH255839   1.844   1.276   2.116  0.2394  0.7314 -0.1350
11475TIP3    H155840   1.878   1.327   2.190  1.6398  0.2670 -0.4309
11475TIP3    H255841   1.837   1.339   2.044 -1.1001  1.1776  0.3478
11476TIP3   OH255842   3.949   4.253   5.968 -0.4704 -0.0528 -0.2410
11476TIP3    H155843   3.986   4.308   5.899 -0.8108  0.6705  0.1471
11476TIP3    H255844   3.895   4.190   5.921 -0.3093  0.1208 -0.6690
11477TIP3   OH255845   0.156   2.539  12.566 -0.4012 -0.0105  0.0995
11477TIP3    H155846   0.130   2.631  12.563  0.2577  0.1607 -0.7615
11477TIP3    H255847   0.245   2.540  12.601  0.4213 -0.1143 -1.8987
11478TIP3   OH255848   6.623   3.735  16.087 -0.2248 -0.3508  0.0344
11478TIP3    H155849   6.528   3.748  16.093 -0.2723 -0.8030  0.3369
11478TIP3    H255850   6.642   3.667  16.152  0.1571 -1.0147 -0.7548
11479TIP3   OH255851   4.599   5.572   4.598 -0.0281  0.4171  0.1849
11479TIP3    H155852   4.557   5.501   4.550  2.1135 -0.5043 -0.4836
11479TIP3    H255853   4.528   5.617   4.642 -2.1581  1.1665 -3.5990
11480TIP3   OH255854   1.542   1.034   4.283 -0.0614  0.2449 -0.0337
11480TIP3    H155855   1.534   0.983   4.364 -0.4599 -1.1877 -0.9285
11480TIP3    H255856   1.607   0.986   4.231  0.4559  1.3439 -0.4260
11481TIP3   OH255857   4.796   4.792  15.382  0.0576 -0.1906 -0.9370
11481TIP3    H155858   4.706   4.803  15.415  0.0785 -0.2595 -0.8538
11481TIP3    H255859   4.841   4.747  15.453  0.5265  1.0837 -0.3839
11482TIP3   OH255860   3.897   1.038  13.926 -0.4292  0.3786  0.0415
11482TIP3    H155861   3.870   1.108  13.866  0.3426  0.5363 -0.1381
11482TIP3    H255862   3.819   0.985  13.938 -0.6340  0.4255 -0.9948
11483TIP3   OH255863   6.304   4.353  15.607  0.4434 -0.4341 -0.4953
11483TIP3    H155864   6.257   4.299  15.543 -1.2908  1.4251 -0.8740
11483TIP3    H255865   6.340   4.425  15.557  2.8028 -1.1702 -0.0001
11484TIP3   OH255866   6.752   5.871  15.197 -0.0372 -0.0960  0.5563
11484TIP3    H155867   6.755   5.883  15.103 -0.4920  0.5424  0.6205
11484TIP3    H255868   6.756   5.960  15.233  0.3894 -0.3454  1.1449
11485TIP3   OH255869   3.160   0.177   2.396  0.5100 -0.4193 -0.0781
11485TIP3    H155870   3.254   0.188   2.405  0.7294 -1.6573 -0.6890
11485TIP3    H255871   3.140   0.207   2.307  0.1023  1.0242  0.4577
11486TIP3   OH255872   1.059   3.771  12.973 -0.3159 -0.0624 -0.1022
11486TIP3    H155873   1.053   3.730  12.887  0.0405  0.4273 -0.3705
11486TIP3    H255874   1.097   3.704  13.029  0.3153 -0.0931 -0.5467
11487TIP3   OH255875   5.131   1.215   3.521  0.0166  0.3867  0.2794
11487TIP3    H155876   5.116   1.160   3.597 -0.1094 -0.3269 -0.2528
11487TIP3    H255877   5.060   1.193   3.460  1.8230 -1.3758 -1.3389
11488TIP3   OH255878   1.886   3.442  12.745 -0.8109 -0.1479  0.3756
11488TIP3    H155879   1.844   3.367  12.787 -0.3115 -0.3804  0.4725
11488TIP3    H255880   1.932   3.487  12.817 -0.8433  0.0682  0.2632
11489TIP3   OH255881   5.000   0.586  12.520  0.5348  0.2966  0.2323
11489TIP3    H155882   4.988   0.509  12.575  0.4852  0.5441  0.5757
11489TIP3    H255883   4.964   0.658  12.572  1.7602  0.7606  0.4698
11490TIP3   OH255884   6.182   5.976   3.877 -0.3404 -0.3887 -0.0302
11490TIP3    H155885   6.184   6.039   3.806  2.4581  0.5797  0.7522
11490TIP3    H255886   6.187   5.891   3.834  2.0863  0.1889 -1.0949
11491TIP3   OH255887   4.720   0.524  14.459  0.6682 -1.1745  0.3299
11491TIP3    H155888   4.754   0.513  14.547 -0.0331 -0.6018  0.6767
11491TIP3    H255889   4.759   0.451  14.409  2.9588 -0.1519  0.5103
11492TIP3   OH255890   5.464   5.517   4.663  0.1739  0.7411  0.1068
11492TIP3    H155891   5.552   5.509   4.624  0.5786  1.4022  0.8618
11492TIP3    H255892   5.479   5.561   4.746 -0.9213  1.1106  0.1161
11493TIP3   OH255893   4.479   4.936   0.070  0.0920  0.0474  0.4678
11493TIP3    H155894   4.523   5.018   0.047 -1.6037  1.2521  1.2956
11493TIP3    H255895   4.531   4.901   0.143 -0.5414  1.7403  1.8246
11494TIP3   OH255896   4.317   6.047  13.125  0.1158 -0.5707  0.6499
11494TIP3    H155897   4.378   6.121  13.126  0.8625 -1.1232  2.7999
11494TIP3    H255898   4.361   5.980  13.073  0.7721 -0.5056  1.1078
11495TIP3   OH255899   2.650   0.737   1.302  0.1764 -0.3384 -0.3083
11495TIP3    H155900   2.735   0.706   1.335  1.2101  2.5793  0.0716
11495TIP3    H255901   2.606   0.772   1.380  0.8085  2.6569 -1.1599
11496TIP3   OH255902   5.012   6.326   2.284 -0.2950 -0.0580 -0.0081
11496TIP3    H155903   4.929   6.296   2.246  0.1787  0.3504 -1.4297
11496TIP3    H255904   5.058   6.245   2.308 -0.6760 -0.3214 -0.1614
11497TIP3   OH255905   1.505   0.732  14.937 -0.1676 -0.4409  0.4946
11497TIP3    H155906   1.472   0.816  14.905  0.3230 -0.4959 -0.1677
11497TIP3    H255907   1.431   0.695  14.986 -0.9174 -0.3248 -0.5135
11498TIP3   OH255908   1.814   1.979  15.648  0.1787  0.1191  0.2290
11498TIP3    H155909   1.812   2.037  15.724 -0.3540 -0.7988  0.9293
11498TIP3    H255910   1.790   2.036  15.574  1.6384  1.2341  0.5772
11499TIP3   OH255911   2.140   0.917   4.358  0.1887  0.8728 -0.0941
11499TIP3    H155912   2.141   0.918   4.262 -0.3160  1.1899 -0.0998
11499TIP3    H255913   2.202   0.985   4.384 -0.0795  1.1634 -0.2040
11500TIP3   OH255914   2.385   1.457  10.567 -0.5623 -0.0063 -0.1022
11500TIP3    H155915   2.315   1.480  10.506  0.2090  0.4293 -0.8531
11500TIP3    H255916   2.361   1.371  10.600 -2.5826  1.0157  1.3364
11501TIP3   OH255917   0.523   5.632   4.655 -0.4496 -0.5236  0.4449
11501TIP3    H155918   0.610   5.618   4.619 -0.5316  1.1861 -0.5978
11501TIP3    H255919   0.470   5.656   4.578 -1.5555 -0.4638  1.2050
11502TIP3   OH255920   0.161   1.128  15.417  0.3287  0.0314 -0.2573
11502TIP3    H155921   0.242   1.167  15.383 -1.4295  1.6632 -3.0106
11502TIP3    H255922   0.155   1.044  15.371 -0.6127  0.9753 -2.0031
11503TIP3   OH255923   6.602   3.933  14.323  0.3729 -0.0604  0.1406
11503TIP3    H155924   6.690   3.905  14.301  0.6505  0.1048  0.9981
11503TIP3    H255925   6.555   3.852  14.343 -0.0406 -0.2683 -1.5115
11504TIP3   OH255926   4.194   3.723  11.806 -0.2522 -0.4454 -0.2896
11504TIP3    H155927   4.272   3.697  11.856  1.0196 -0.0473 -1.9763
11504TIP3    H255928   4.169   3.808  11.843  0.3555 -0.3955  0.0245
11505TIP3   OH255929   3.233   1.517  16.265 -0.1387 -0.2556  0.0900
11505TIP3    H155930   3.291   1.533  16.339 -2.5169 -0.3421  2.0864
11505TIP3    H255931   3.280   1.453  16.211  1.0980 -1.2342  2.2170
11506TIP3   OH255932   5.021   5.230   1.756 -0.2317  0.1098 -0.2203
11506TIP3    H155933   4.963   5.232   1.680 -0.9098  0.6890  0.2980
11506TIP3    H255934   5.029   5.322   1.783  0.0635 -0.0789  0.3545
11507TIP3   OH255935   5.304   0.062   4.045  0.2161 -0.5041  0.1519
11507TIP3    H155936   5.352   0.138   4.076  1.2228 -1.1186  0.1465
11507TIP3    H255937   5.365  -0.011   4.055 -0.2013 -1.0836 -1.1804
11508TIP3   OH255938   2.628   3.178  16.514 -0.2946 -0.1441 -0.0247
11508TIP3    H155939   2.623   3.117  16.588 -0.1367 -1.0959 -0.7695
11508TIP3    H255940   2.601   3.262  16.550  0.7225 -0.3684  1.3467
11509TIP3   OH255941   3.723   2.418  12.981 -0.0253  0.3101  0.1401
11509TIP3    H155942   3.785   2.380  13.044 -2.2288 -2.3897  0.8956
11509TIP3    H255943   3.736   2.368  12.901  0.6101  1.6108 -0.5948
11510TIP3   OH255944   3.921   4.278   1.280  0.2460 -0.3737  0.1799
11510TIP3    H155945   3.877   4.214   1.336 -1.3618 -1.0765 -1.7544
11510TIP3    H255946   3.990   4.228   1.236  0.0081 -0.4035 -0.1642
11511TIP3   OH255947   6.470   0.737  12.913 -0.0348  0.2657  0.8795
11511TIP3    H155948   6.402   0.687  12.868 -0.5526 -1.0237  2.9196
11511TIP3    H255949   6.503   0.677  12.980  3.3435  0.7185 -0.1380
11512TIP3   OH255950   1.324   4.435  13.970 -0.2684 -0.2960  0.0923
11512TIP3    H155951   1.276   4.508  14.009 -0.3723 -0.9546  1.2576
11512TIP3    H255952   1.256   4.373  13.942 -0.1768 -1.5937  2.4673
11513TIP3   OH255953   1.500   5.004   2.378  0.2773 -0.3844 -0.9825
11513TIP3    H155954   1.447   5.082   2.365  0.5309  0.0281  0.3632
11513TIP3    H255955   1.572   5.032   2.434  0.6437 -1.4720 -0.8732
11514TIP3   OH255956   0.810   4.777   3.519  0.0596  0.2202 -0.0692
11514TIP3    H155957   0.797   4.684   3.499  0.3595  0.3012 -0.6632
11514TIP3    H255958   0.785   4.786   3.611  1.9161 -0.8230  0.5862
11515TIP3   OH255959   4.868   2.461   4.791 -0.4432 -0.4662  0.7771
11515TIP3    H155960   4.948   2.494   4.830  0.5410  0.1377 -1.5699
11515TIP3    H255961   4.890   2.372   4.761  0.1918  0.4880 -1.8934
11516TIP3   OH255962   2.400   6.338   4.943 -0.5312  0.0194 -0.1248
11516TIP3    H155963   2.392   6.255   4.991 -0.1120  0.5133  0.8297
11516TIP3    H255964   2.338   6.330   4.871  0.7753 -1.8341 -1.1036
11517TIP3   OH255965   4.449   4.898  13.675  0.0935  0.1373 -0.0134
11517TIP3    H155966   4.367   4.933  13.709 -0.5854  0.5123 -1.9174
11517TIP3    H255967   4.453   4.809  13.709 -1.0336  0.1619  0.2270
11518TIP3   OH255968   5.718   3.359  14.800  0.2324  0.4057  0.3934
11518TIP3    H155969   5.658   3.405  14.859 -1.3223 -0.7549 -0.2400
11518TIP3    H255970   5.721   3.269  14.834  0.6282  0.1376 -0.3319
11519TIP3   OH255971   0.226   0.860   5.850  0.1837 -0.9592  0.0472
11519TIP3    H155972   0.239   0.953   5.832  2.3851 -0.6685  2.5883
11519TIP3    H255973   0.232   0.852   5.945  1.1623 -3.8297 -0.1381
11520TIP3   OH255974   3.933   5.664   2.333  0.2317  0.3165 -0.3590
11520TIP3    H155975   3.880   5.604   2.386  1.3922  1.1963  1.9752
11520TIP3    H255976   4.019   5.621   2.327  0.2166  0.3919 -1.2908
11521TIP3   OH255977   3.092   2.193  14.673 -0.7611 -0.1918  0.5658
11521TIP3    H155978   3.132   2.148  14.747 -0.5718 -1.1536 -0.1051
11521TIP3    H255979   3.015   2.141  14.652 -0.0273 -0.7948 -0.8144
11522TIP3   OH255980   6.139   3.006   3.769  0.1734  0.2665 -0.3310
11522TIP3    H155981   6.149   3.081   3.827 -2.7842  1.8440 -1.6851
11522TIP3    H255982   6.054   2.968   3.791 -0.3926  0.0470 -2.5763
11523TIP3   OH255983   0.939   6.302  10.524  0.1884 -0.5519 -0.3125
11523TIP3    H155984   0.844   6.316  10.520  0.0751 -1.0237  0.5479
11523TIP3    H255985   0.968   6.358  10.596  0.4183 -1.1350  0.0566
11524TIP3   OH255986   3.149   2.739   4.945  0.1225 -0.1934 -0.4152
11524TIP3    H155987   3.208   2.667   4.969  0.4244 -1.4557 -4.2562
11524TIP3    H255988   3.087   2.699   4.885 -2.2838  1.9810  0.4651
11525TIP3   OH255989   3.107   1.529   5.329 -0.4246  0.0823 -0.1011
11525TIP3    H155990   3.131   1.472   5.403 -0.8958 -0.3338 -0.2677
11525TIP3    H255991   3.179   1.518   5.267 -1.0465 -1.2214 -0.6284
11526TIP3   OH255992   4.523   2.208  11.708  0.1087 -0.0877 -0.1699
11526TIP3    H155993   4.439   2.170  11.733 -0.7678  1.8260 -0.0090
11526TIP3    H255994   4.556   2.248  11.789  0.6105  0.1605 -0.4917
11527TIP3   OH255995   1.762   1.168   0.698 -0.2578  0.0755 -0.3245
11527TIP3    H155996   1.743   1.154   0.791  1.9463  2.0831  0.5522
11527TIP3    H255997   1.814   1.092   0.673  0.8802  0.4669  0.7218
11528TIP3   OH255998   3.361   0.120   2.078  0.6477  0.0031 -0.1439
11528TIP3    H155999   3.383   0.134   1.986  1.9966  1.2809  0.3385
11528TIP3    H256000   3.337   0.027   2.083  0.1137  0.0116 -1.8479
11529TIP3   OH256001   0.597   2.188   1.894  0.5126  0.0142 -0.4072
11529TIP3    H156002   0.563   2.237   1.819  1.3320  1.7950  0.3502
11529TIP3    H256003   0.669   2.241   1.928  1.0601 -1.4362  0.8139
11530TIP3   OH256004   1.969   4.802  12.003 -0.0218 -0.1114 -0.7899
11530TIP3    H156005   1.954   4.708  12.013 -1.2591  0.1220 -0.2992
11530TIP3    H256006   1.995   4.812  11.911  0.4334 -0.9606 -0.7650
11531TIP3   OH256007   0.353   6.715  14.751 -0.3972  0.1856  0.4853
11531TIP3    H156008   0.311   6.715  14.665  1.0159  0.0478 -0.2348
11531TIP3    H256009   0.435   6.762  14.738  0.4568 -0.9717  1.4411
11532TIP3   OH256010   4.892   3.502   0.055 -0.6069  1.0010 -0.2200
11532TIP3    H156011   4.891   3.427  -0.005  1.5750  0.4758  0.3277
11532TIP3    H256012   4.956   3.562   0.018 -1.4076  2.0493  0.0360
11533TIP3   OH256013   4.979   2.168   5.471 -0.4654 -0.9157 -0.1826
11533TIP3    H156014   5.055   2.180   5.414  1.1185 -0.3248  1.9198
11533TIP3    H256015   4.955   2.076   5.460  1.6110 -1.5638  0.2682
11534TIP3   OH256016   1.611   6.087   6.895  0.4499 -0.2297  0.0840
11534TIP3    H156017   1.518   6.071   6.879  0.1183  0.6827  0.9637
11534TIP3    H256018   1.654   6.059   6.815 -0.8402  1.7549 -1.4263
11535TIP3   OH256019   4.712   0.266   2.947  0.2374 -0.3574  0.1026
11535TIP3    H156020   4.741   0.262   2.856  0.2141  2.4134 -0.0937
11535TIP3    H256021   4.793   0.267   2.998  0.2829 -0.3229  0.0296
11536TIP3   OH256022   4.301   5.526   4.296  0.6844 -0.4858  0.2362
11536TIP3    H156023   4.286   5.616   4.267  1.2324 -1.0781 -2.1246
11536TIP3    H256024   4.219   5.480   4.274  1.2768 -1.0459 -0.9196
11537TIP3   OH256025   5.877   4.062   1.482 -0.5133  0.5281 -0.4699
11537TIP3    H156026   5.905   3.971   1.488 -0.9685  0.4546  1.2417
11537TIP3    H256027   5.952   4.108   1.445  0.1465 -0.3730 -0.2863
11538TIP3   OH256028   6.079   0.955  10.436  0.9017  0.3188 -0.1803
11538TIP3    H156029   5.987   0.954  10.462  0.8433 -0.1061 -0.3843
11538TIP3    H256030   6.077   0.944  10.341  1.2025 -1.3940 -0.0253
11539TIP3   OH256031   1.082   5.954   0.119  0.6869 -0.1515 -0.0807
11539TIP3    H156032   1.044   6.010   0.051  0.9337 -0.3886 -0.4157
11539TIP3    H256033   1.127   5.884   0.071  0.5091 -0.5538  0.3327
11540TIP3   OH256034   1.783   6.339   1.802  0.1187  0.0594 -0.4333
11540TIP3    H156035   1.862   6.285   1.810 -0.5516 -0.7642  0.9571
11540TIP3    H256036   1.722   6.285   1.751 -0.2945 -0.2083  0.3320
11541TIP3   OH256037   0.201   4.659  14.850  0.4921 -0.4400 -0.0805
11541TIP3    H156038   0.220   4.616  14.933  0.2324 -0.2911  0.0578
11541TIP3    H256039   0.107   4.676  14.853  0.2582 -1.4513 -0.8695
11542TIP3   OH256040   1.054   3.410   5.860 -0.2099 -0.2382 -0.0450
11542TIP3    H156041   0.962   3.403   5.833 -0.0295  2.1371 -1.5474
11542TIP3    H256042   1.097   3.336   5.817 -1.2612 -0.8906 -0.0084
11543TIP3   OH256043   4.829   0.660  17.069  0.4253  0.0707 -0.6379
11543TIP3    H156044   4.809   0.639  16.978  0.4886  0.1375 -0.6677
11543TIP3    H256045   4.918   0.626  17.082  1.6715  2.7430 -1.5067
11544TIP3   OH256046   1.363   4.204   5.393 -0.6552  0.0713 -0.2053
11544TIP3    H156047   1.386   4.262   5.466 -0.9689  0.3974 -0.3645
11544TIP3    H256048   1.332   4.124   5.435 -0.4340  0.1015  0.0182
11545TIP3   OH256049   1.043   5.372   2.773  0.2018 -0.1850  0.1323
11545TIP3    H156050   1.075   5.301   2.828 -0.3886  0.5388  1.4400
11545TIP3    H256051   1.051   5.451   2.827 -1.5237  0.3660 -0.3634
11546TIP3   OH256052   2.732   4.373  15.119  0.5562 -0.0403 -0.2158
11546TIP3    H156053   2.638   4.380  15.105  0.8336  2.5704 -1.5072
11546TIP3    H256054   2.753   4.447  15.177  1.8223 -0.5307 -0.0165
11547TIP3   OH256055   0.439   4.197  17.015 -0.0177 -0.0126 -0.3158
11547TIP3    H156056   0.430   4.187  16.920 -1.2955  0.2657 -0.2389
11547TIP3    H256057   0.368   4.145  17.052 -2.5245  3.5131  0.3194
11548TIP3   OH256058   6.017   3.745  15.231 -0.7995 -0.4110  0.2550
11548TIP3    H156059   6.038   3.698  15.150  1.2339  0.5357  0.1802
11548TIP3    H256060   5.941   3.798  15.209 -1.8169 -2.0232 -0.2740
11549TIP3   OH256061   2.783   3.513  12.090  0.2105  0.0742 -0.3981
11549TIP3    H156062   2.688   3.514  12.090  0.2110  0.1356 -1.0412
11549TIP3    H256063   2.807   3.452  12.020  0.6379 -0.7086  0.4051
11550TIP3   OH256064   3.155   3.951  15.150 -0.5907  0.0488 -0.2624
11550TIP3    H156065   3.139   3.858  15.135  0.1887  0.2175 -2.3692
11550TIP3    H256066   3.072   3.993  15.129 -0.2495  0.0326 -1.7136
11551TIP3   OH256067   0.997   4.057  12.013  0.2113 -0.1856  0.4214
11551TIP3    H156068   1.020   4.045  11.920 -0.5051 -0.3630  0.2624
11551TIP3    H256069   0.945   3.979  12.034  0.0548  0.0427  0.8697
11552TIP3   OH256070   1.342   3.720  14.232 -0.2165 -0.5264  0.0733
11552TIP3    H156071   1.248   3.711  14.246 -0.5150  0.9795 -0.7445
11552TIP3    H256072   1.357   3.815  14.234  1.0464 -0.6698 -1.2711
11553TIP3   OH256073   5.621   1.393   5.701  0.6899  0.0966  0.2773
11553TIP3    H156074   5.623   1.457   5.771  1.6674  1.7234 -1.1533
11553TIP3    H256075   5.656   1.313   5.740 -3.3485 -0.6264  2.9530
11554TIP3   OH256076   3.483   3.637   2.639 -0.0360 -0.5084 -0.3153
11554TIP3    H156077   3.499   3.709   2.700  1.7725 -0.2215 -1.0553
11554TIP3    H256078   3.473   3.559   2.694 -0.4228  0.0528  0.4160
11555TIP3   OH256079   2.745   4.169  12.651  0.0760  0.0054 -0.6935
11555TIP3    H156080   2.713   4.119  12.576 -2.5794  0.2880  0.1390
11555TIP3    H256081   2.762   4.103  12.718  0.5654 -0.0875 -0.9051
11556TIP3   OH256082   6.024   3.196  12.746 -0.0117  0.6867  0.0851
11556TIP3    H156083   5.952   3.256  12.769 -0.6707  0.1939 -0.6536
11556TIP3    H256084   5.981   3.122  12.704  1.0530  1.1165 -1.8514
11557TIP3   OH256085   1.878   1.191  15.080  0.3688  0.0520 -0.5321
11557TIP3    H156086   1.840   1.114  15.038 -0.3941 -0.0149  0.2602
11557TIP3    H256087   1.962   1.161  15.116 -0.0286 -0.4715 -0.0271
11558TIP3   OH256088   1.153   1.883   0.407 -0.4469 -0.0654  0.2007
11558TIP3    H156089   1.138   1.899   0.314 -0.2264 -1.0950 -0.0233
11558TIP3    H256090   1.210   1.805   0.410  1.1901  1.0874  1.1362
11559TIP3   OH256091   5.881   1.387   1.382 -0.0459  1.1691 -0.4655
11559TIP3    H156092   5.855   1.438   1.459 -2.5028  0.1164 -0.4958
11559TIP3    H256093   5.915   1.305   1.417  0.0266  1.1962 -0.4730
11560TIP3   OH256094   4.105   1.100  12.751  0.3632  0.2379  0.6677
11560TIP3    H156095   4.126   1.150  12.672 -1.5360  0.5846  0.3227
11560TIP3    H256096   4.189   1.070  12.784  1.6692  3.7834  0.9665
11561TIP3   OH256097   0.739   4.627  11.655 -0.2180 -0.0444 -0.2366
11561TIP3    H156098   0.754   4.714  11.693  1.2177 -0.7420  0.9295
11561TIP3    H256099   0.763   4.637  11.562  3.0214  0.1731  0.4807
11562TIP3   OH256100   1.609   2.576  13.783 -0.1681  0.4047 -0.6561
11562TIP3    H156101   1.597   2.656  13.732  1.2789  0.7113 -0.5688
11562TIP3    H256102   1.703   2.558  13.778 -0.7800 -3.0247 -3.2019
11563TIP3   OH256103   2.111   6.611   5.692  0.1376 -0.5724  0.3837
11563TIP3    H156104   2.109   6.706   5.681 -0.1388 -0.5167  0.8952
11563TIP3    H256105   2.170   6.596   5.766  0.7738 -0.8514 -0.1697
11564TIP3   OH256106   5.931   0.019   5.274  0.0344 -0.3363 -0.4084
11564TIP3    H156107   5.963   0.107   5.254  0.4861 -0.1251  1.0665
11564TIP3    H256108   5.872   0.032   5.349  2.9998 -1.6027  2.3861
11565TIP3   OH256109   5.852   5.792   5.290  0.1185  0.4698  0.2249
11565TIP3    H156110   5.807   5.781   5.206 -1.3990  1.0185  0.9491
11565TIP3    H256111   5.797   5.851   5.340  0.8553 -0.0798  1.7376
11566TIP3   OH256112   3.702   3.144   2.002 -0.0513  0.4422  0.2709
11566TIP3    H156113   3.657   3.062   2.025  0.2118 -0.1217 -1.1108
11566TIP3    H256114   3.717   3.187   2.085  0.0153 -1.0440  1.0682
11567TIP3   OH256115   0.982   3.596   2.440  0.8195 -0.4729  0.1022
11567TIP3    H156116   1.017   3.508   2.453 -0.5704 -1.0999 -0.2106
11567TIP3    H256117   0.889   3.582   2.421  0.4060  1.1066  0.8261
11568TIP3   OH256118   0.842   3.985  14.467 -0.4524 -0.0532 -0.1965
11568TIP3    H156119   0.750   4.004  14.446  0.1044  1.7990 -1.2244
11568TIP3    H256120   0.846   3.991  14.562 -0.8727  2.8492 -0.2823
11569TIP3   OH256121   3.285   6.657   2.186  0.6700  0.4956 -0.1882
11569TIP3    H156122   3.309   6.568   2.163 -0.8313  0.1638 -0.5728
11569TIP3    H256123   3.189   6.659   2.178  0.5880  1.8627  0.7759
11570TIP3   OH256124   2.167   2.376  15.311  0.1088  0.1945 -0.0974
11570TIP3    H156125   2.103   2.407  15.374  0.2167  0.1909  0.0152
11570TIP3    H256126   2.179   2.449  15.251 -0.9069 -0.2271 -0.8398
11571TIP3   OH256127   2.899   0.863  15.901  0.1792  0.0553  0.4435
11571TIP3    H156128   2.989   0.894  15.887  0.3147 -1.1647 -2.0210
11571TIP3    H256129   2.909   0.771  15.924 -0.4223  0.0459  0.6720
11572TIP3   OH256130   1.631   5.927   1.799  1.1634 -0.4891  0.1766
11572TIP3    H156131   1.544   5.888   1.809  0.7991  0.0550 -0.7387
11572TIP3    H256132   1.678   5.903   1.879  0.0222 -0.4139  0.8876
11573TIP3   OH256133   0.153   5.544   5.199  0.3327  0.0519 -0.6167
11573TIP3    H156134   0.233   5.531   5.148  2.5331 -1.7131  2.9196
11573TIP3    H256135   0.134   5.458   5.236 -0.9941  1.2397  1.6959
11574TIP3   OH256136   1.418   3.138   4.101  0.5893 -0.4444  0.2512
11574TIP3    H156137   1.415   3.125   4.006  1.2434 -0.2777  0.2021
11574TIP3    H256138   1.331   3.172   4.124  0.3122 -0.8234 -0.2351
11575TIP3   OH256139   0.078   6.460   1.233 -0.4618 -0.0890 -0.3354
11575TIP3    H156140  -0.005   6.446   1.189  0.1097 -2.9994 -0.6851
11575TIP3    H256141   0.140   6.406   1.185  1.5083  1.3943  0.4000
11576TIP3   OH256142   6.559   0.008  11.635 -0.3642  0.0088 -0.3247
11576TIP3    H156143   6.512   0.088  11.662  1.5814  0.9108  0.6022
11576TIP3    H256144   6.510  -0.063  11.676 -1.7265  0.7616 -0.5675
11577TIP3   OH256145   6.119   0.449  10.683 -0.0957  0.5058 -0.5020
11577TIP3    H156146   6.045   0.492  10.640 -0.2303 -0.4314 -1.2643
11577TIP3    H256147   6.144   0.508  10.754 -1.7654  0.7214 -0.0366
11578TIP3   OH256148   6.524   0.558   0.599 -0.0895 -0.0504  0.1387
11578TIP3    H156149   6.558   0.541   0.687 -0.0320 -0.3603  0.0576
11578TIP3    H256150   6.602   0.574   0.546 -0.2055  1.9935  0.5209
11579TIP3   OH256151   1.350   6.724  11.795  0.4047 -0.2477 -0.5271
11579TIP3    H156152   1.432   6.709  11.843  0.1997  0.4018  0.0463
11579TIP3    H256153   1.332   6.817  11.807  0.3517 -0.0617 -1.8987
11580TIP3   OH256154   0.169   0.929  15.876 -0.3607  0.0334 -0.4789
11580TIP3    H156155   0.080   0.934  15.841 -0.2014 -0.3429 -0.9606
11580TIP3    H256156   0.166   0.859  15.941 -0.6868  0.8154  0.3659
11581TIP3   OH256157   3.657   5.990   1.027  0.4325 -0.8244 -0.0496
11581TIP3    H156158   3.700   6.050   0.966  0.6504  0.8237  1.6223
11581TIP3    H256159   3.584   5.953   0.978 -0.1836  1.4231 -0.9523
11582TIP3   OH256160   0.990   0.083   2.996 -0.3689 -0.5229  0.8600
11582TIP3    H156161   1.075   0.113   3.027  0.0814 -0.2370 -0.5788
11582TIP3    H256162   1.004   0.060   2.904 -2.4432  2.2474 -0.2846
11583TIP3   OH256163   6.718   2.455  14.876  0.6136  0.1890 -0.0990
11583TIP3    H156164   6.667   2.520  14.827  0.6001 -0.4041 -0.8777
11583TIP3    H256165   6.735   2.498  14.960 -1.3479  0.3105  0.2768
11584TIP3   OH256166   6.495   5.846   6.790 -0.4133  0.3327  0.6906
11584TIP3    H156167   6.505   5.936   6.759  0.0835 -0.1497 -0.5937
11584TIP3    H256168   6.405   5.823   6.768  0.1896 -0.3075 -1.3103
11585TIP3   OH256169   0.156   5.891   3.558  0.0536 -0.0311 -0.3611
11585TIP3    H156170   0.064   5.881   3.583  0.0887  0.1854 -0.1360
11585TIP3    H256171   0.183   5.804   3.528  0.0140 -0.3040  0.3788
11586TIP3   OH256172   6.355   3.655  16.590  0.4360  0.3678  0.1630
11586TIP3    H156173   6.364   3.703  16.673  1.2854  1.6459 -0.6388
11586TIP3    H256174   6.373   3.721  16.522  1.6512 -1.0707 -0.9844
11587TIP3   OH256175   1.901   0.059  14.131  0.4273 -0.1326 -0.0959
11587TIP3    H156176   1.851  -0.011  14.172  0.0034 -0.9379 -1.8893
11587TIP3    H256177   1.853   0.078  14.050  2.0327  0.3220 -0.9837
11588TIP3   OH256178   1.973   5.265  15.586  0.6908  0.2016 -0.1733
11588TIP3    H156179   1.915   5.303  15.652  0.5249  0.0558 -0.2348
11588TIP3    H256180   2.008   5.341  15.538  0.6012  0.2932 -0.0936
11589TIP3   OH256181   0.630   1.733   5.630 -0.7794  0.6114 -0.1725
11589TIP3    H156182   0.619   1.756   5.722  1.3956 -0.2052  0.3772
11589TIP3    H256183   0.624   1.816   5.583  1.2213  1.5818  1.1087
11590TIP3   OH256184   6.552   1.706  16.446  0.0121  0.1215 -0.2747
11590TIP3    H156185   6.486   1.707  16.515  0.8810 -1.1175  0.6336
11590TIP3    H256186   6.617   1.771  16.474  0.4982 -0.5693  0.2461
11591TIP3   OH256187   1.576   1.793  14.032  0.6995  0.0927 -0.4030
11591TIP3    H156188   1.605   1.773  13.943  1.1586 -0.9945 -0.0274
11591TIP3    H256189   1.652   1.774  14.087  0.2543  0.2375  0.2760
11592TIP3   OH256190   1.937   5.511  15.001  0.0939  1.2215 -0.2187
11592TIP3    H156191   1.949   5.446  14.932 -1.7217 -0.1509  0.6641
11592TIP3    H256192   2.016   5.503  15.055  1.1009  1.6656 -1.5735
11593TIP3   OH256193   4.435   0.780  16.386 -0.4371  0.2655  0.1528
11593TIP3    H156194   4.472   0.702  16.427 -0.8664  1.1276  2.3226
11593TIP3    H256195   4.508   0.819  16.337  1.3049  1.1940  3.1968
11594TIP3   OH256196   1.313   3.361  14.390  0.5770 -0.4649  0.3974
11594TIP3    H156197   1.300   3.292  14.455 -2.3257 -0.0241  0.4258
11594TIP3    H256198   1.286   3.320  14.307  1.8133 -0.2669 -0.1174
11595TIP3   OH256199   6.031   3.235   0.477  0.1762 -0.3253  0.0220
11595TIP3    H156200   6.079   3.253   0.396  2.5791  0.1022  1.4400
11595TIP3    H256201   6.085   3.273   0.546 -1.6160 -0.9640  1.8844
11596TIP3   OH256202   6.563   0.856   1.919  0.3773 -0.3055 -0.1608
11596TIP3    H156203   6.504   0.908   1.864 -0.0051  0.9874  1.4167
11596TIP3    H256204   6.504   0.804   1.974  0.7273 -0.1746  0.3389
11597TIP3   OH256205   0.541   5.884   2.769  0.1527 -0.0098  0.3268
11597TIP3    H156206   0.629   5.916   2.790  0.6084 -0.6702 -0.5049
11597TIP3    H256207   0.487   5.911   2.844  0.8785  1.1390  0.4599
11598TIP3   OH256208   1.392   1.101  13.835  0.3105 -0.0233 -0.7006
11598TIP3    H156209   1.305   1.116  13.797  0.3322 -1.5686 -1.4110
11598TIP3    H256210   1.436   1.186  13.829 -0.9828  0.6717 -0.7336
11599TIP3   OH256211   2.744   1.372   5.281 -0.4541 -0.2427  0.0249
11599TIP3    H156212   2.813   1.316   5.243 -0.5896 -0.2657 -0.1885
11599TIP3    H256213   2.785   1.458   5.289 -0.7990  0.0767 -1.3297
11600TIP3   OH256214   6.724   2.500  15.163 -0.5414  1.2972 -0.7367
11600TIP3    H156215   6.638   2.489  15.203  0.4929  0.6027  1.5017
11600TIP3    H256216   6.775   2.427  15.198  0.4812  0.5596 -3.5121
11601TIP3   OH256217   4.558   0.778   1.061  0.4952 -0.0891  0.2863
11601TIP3    H156218   4.570   0.685   1.079 -0.8585 -0.9420 -2.6052
11601TIP3    H256219   4.638   0.805   1.016 -0.1322 -0.5685 -1.1638
11602TIP3   OH256220   0.545   1.906  15.565  0.1859 -0.3944  0.0131
11602TIP3    H156221   0.495   1.887  15.486 -0.7600  0.1840  0.4554
11602TIP3    H256222   0.543   2.002  15.573 -0.8711 -0.5027  1.4369
11603TIP3   OH256223   4.722   5.816   2.374  0.4539 -0.4390 -0.1189
11603TIP3    H156224   4.723   5.814   2.469  1.1081  1.3842 -0.0472
11603TIP3    H256225   4.688   5.903   2.352  0.9078 -0.5953 -1.5399
11604TIP3   OH256226   3.915   4.691   3.854 -0.3962  0.1378  0.3560
11604TIP3    H156227   3.860   4.760   3.891  0.5604  1.8132 -1.1871
11604TIP3    H256228   3.992   4.688   3.911 -0.0655  0.9443 -0.0399
11605TIP3   OH256229   5.232   4.131   5.486 -0.3241  0.2246 -0.3182
11605TIP3    H156230   5.234   4.047   5.532 -0.8450  1.6178  2.4164
11605TIP3    H256231   5.311   4.176   5.515 -1.8852  2.1092  1.2406
11606TIP3   OH256232   1.425   3.271   5.505 -0.0278  0.1766 -0.1561
11606TIP3    H156233   1.482   3.334   5.548 -1.7429  0.4091  1.9444
11606TIP3    H256234   1.460   3.263   5.417  2.3306  1.3913  0.5868
11607TIP3   OH256235   3.732   3.160   0.916 -0.1277  0.2027  0.1929
11607TIP3    H156236   3.693   3.079   0.885  1.5108 -0.4526 -0.2574
11607TIP3    H256237   3.681   3.183   0.994 -2.1929  0.1017 -1.0401
11608TIP3   OH256238   0.964   6.178   0.682 -0.2099 -0.0491  0.0698
11608TIP3    H156239   0.956   6.207   0.773  0.7777  2.1289 -0.4784
11608TIP3    H256240   0.919   6.245   0.631 -1.1371 -1.4707 -1.0653
11609TIP3   OH256241   0.134   5.715  14.617  0.1932 -0.4754  0.2772
11609TIP3    H156242   0.213   5.665  14.600  1.0576  1.1303 -0.6609
11609TIP3    H256243   0.162   5.807  14.614 -1.7410  0.1470 -0.3971
11610TIP3   OH256244   3.076   0.029  12.720  0.4443 -0.1374 -0.3128
11610TIP3    H156245   3.142  -0.030  12.754  0.6225 -0.7210 -1.6194
11610TIP3    H256246   3.010  -0.028  12.681 -0.0492  0.4833 -0.4135
11611TIP3   OH256247   1.567   2.504  15.229  0.8554  0.1593  0.5734
11611TIP3    H156248   1.563   2.498  15.133  1.6144 -0.5553  0.5782
11611TIP3    H256249   1.635   2.442  15.254 -0.8345 -1.2822  1.7579
11612TIP3   OH256250   2.466   4.880   1.879  0.1927  0.4335  0.2669
11612TIP3    H156251   2.508   4.918   1.802 -2.0005 -3.4534 -3.3051
11612TIP3    H256252   2.383   4.927   1.887  0.7038  1.2715  0.6630
11613TIP3   OH256253   3.276   2.879  12.735  0.0297  0.7015 -0.3909
11613TIP3    H156254   3.326   2.928  12.801 -0.9164  2.3577 -0.8436
11613TIP3    H256255   3.253   2.797  12.779  0.0956  1.4272  1.0629
11614TIP3   OH256256   2.662   0.908  12.869  0.3316 -0.2191 -0.7549
11614TIP3    H156257   2.606   0.985  12.882  0.3115 -0.2375 -0.7326
11614TIP3    H256258   2.722   0.909  12.943  1.1256  0.4579 -1.4006
11615TIP3   OH256259   5.923   3.800  12.796 -0.3886 -0.0930 -0.1965
11615TIP3    H156260   5.912   3.854  12.717  0.3611 -2.2308 -1.8846
11615TIP3    H256261   6.017   3.785  12.802 -0.5020 -0.5151  0.7221
11616TIP3   OH256262   4.891   6.718  17.172  0.8716  0.2433  0.1897
11616TIP3    H156263   4.857   6.800  17.208  2.0182  0.9898 -0.3696
11616TIP3    H256264   4.813   6.668  17.147  0.0784  0.2678  2.3991
11617TIP3   OH256265   0.959   6.316  13.900 -0.3030  0.0478  0.3436
11617TIP3    H156266   0.896   6.373  13.945  1.0906  0.0431  2.4520
11617TIP3    H256267   0.961   6.237  13.955  1.2778 -0.0844  0.1157
11618TIP3   OH256268   6.435   3.449  12.825  0.2061 -0.0387 -0.0052
11618TIP3    H156269   6.495   3.524  12.817 -1.1425  1.2714  1.5181
11618TIP3    H256270   6.351   3.483  12.794 -0.1296 -1.3620 -0.5914
11619TIP3   OH256271   3.205   0.707   4.408 -0.1469  0.1223  0.2142
11619TIP3    H156272   3.233   0.795   4.432  1.2539 -0.1131 -0.4825
11619TIP3    H256273   3.163   0.717   4.323  1.2243 -0.0525 -0.5067
11620TIP3   OH256274   6.586   4.375   0.470  0.5634 -0.1555  0.3386
11620TIP3    H156275   6.539   4.358   0.389  1.4318  1.7392 -0.6133
11620TIP3    H256276   6.520   4.407   0.531  0.0690 -0.6992  0.0909
11621TIP3   OH256277   2.712   6.538  13.363  0.4458 -0.0992 -0.2944
11621TIP3    H156278   2.733   6.485  13.439 -2.1040  0.3506  0.7990
11621TIP3    H256279   2.733   6.628  13.389 -0.3726  0.0496 -0.1436
11622TIP3   OH256280   3.364   3.659  16.100  0.5818  0.1734  0.4638
11622TIP3    H156281   3.320   3.659  16.015 -0.2377 -0.3675  0.8668
11622TIP3    H256282   3.341   3.575  16.139  0.5658  0.5915  1.3982
11623TIP3   OH256283   3.789   1.592  11.943  0.6348 -0.2000  0.4746
11623TIP3    H156284   3.728   1.609  11.871 -1.0676  0.0338  1.8906
11623TIP3    H256285   3.775   1.665  12.003  0.3758 -1.5048  2.0647
11624TIP3   OH256286   2.168   2.471   5.685  0.1255 -0.3773  0.0410
11624TIP3    H156287   2.098   2.422   5.642  1.7676 -2.2514 -0.6693
11624TIP3    H256288   2.226   2.498   5.614  1.7261 -1.5992  0.8062
11625TIP3   OH256289   6.142   0.688   1.135  0.2133 -0.4006  0.2619
11625TIP3    H156290   6.047   0.704   1.134  0.1940 -0.4839  0.4995
11625TIP3    H256291   6.150   0.595   1.157  0.3466 -0.4470  0.0248
11626TIP3   OH256292   2.648   2.763   4.562  0.0089  0.0345 -0.1562
11626TIP3    H156293   2.711   2.776   4.633  0.7535  2.3756 -1.1613
11626TIP3    H256294   2.594   2.842   4.563 -2.1818 -1.3642 -0.1339
11627TIP3   OH256295   0.761   2.259   6.730  0.8456 -0.6371 -0.3136
11627TIP3    H156296   0.796   2.184   6.681  1.6949 -1.2606  1.1919
11627TIP3    H256297   0.768   2.332   6.669  1.4900 -1.4663 -1.2718
11628TIP3   OH256298   6.515   6.370   4.476 -0.7223  0.2059  0.0192
11628TIP3    H156299   6.522   6.278   4.502 -1.0263 -0.0243 -0.6903
11628TIP3    H256300   6.423   6.393   4.491 -0.9739 -0.0121 -1.0673
11629TIP3   OH256301   2.164   3.338   2.282  0.2139 -0.1493  0.5252
11629TIP3    H156302   2.092   3.275   2.279  0.3262 -0.2325 -1.2734
11629TIP3    H256303   2.210   3.326   2.199  2.4327 -0.2207  1.6982
11630TIP3   OH256304   2.352   5.599  11.576  0.0055  0.3911 -0.1913
11630TIP3    H156305   2.348   5.674  11.636  0.1528  0.4850 -0.3002
11630TIP3    H256306   2.439   5.563  11.589 -0.6170 -0.7576  1.0754
11631TIP3   OH256307   1.726   1.183  16.483 -0.1202 -0.8428  0.6077
11631TIP3    H156308   1.665   1.118  16.449 -0.2832 -0.9120  1.0269
11631TIP3    H256309   1.672   1.262  16.494 -0.2923 -1.0962  1.6209
11632TIP3   OH256310   2.763   1.185  16.199 -0.2707 -0.2445 -0.1689
11632TIP3    H156311   2.798   1.100  16.172  1.0186  0.7625 -1.8271
11632TIP3    H256312   2.712   1.166  16.278 -3.0558 -3.1769 -2.3732
11633TIP3   OH256313   5.715   3.731  11.300 -0.4137  0.0362 -0.1808
11633TIP3    H156314   5.767   3.665  11.253 -2.4682 -0.5983 -1.6870
11633TIP3    H256315   5.624   3.708  11.282 -1.2365  2.0175  1.0759
11634TIP3   OH256316   0.774   3.658   5.969 -0.0886 -0.0763 -1.2721
11634TIP3    H156317   0.694   3.706   5.992 -1.5891 -3.1917  0.7413
11634TIP3    H256318   0.830   3.669   6.046 -0.0119 -0.6500 -1.2464
11635TIP3   OH256319   5.622   4.592   2.336 -0.1418 -0.0128  0.2900
11635TIP3    H156320   5.667   4.670   2.368 -1.5249  0.0619  2.1603
11635TIP3    H256321   5.532   4.602   2.365 -0.7671 -1.4751 -0.9992
11636TIP3   OH256322   4.878   1.600  13.933  0.2121 -0.0026  0.1469
11636TIP3    H156323   4.791   1.583  13.898 -1.1834  1.7215  2.5253
11636TIP3    H256324   4.913   1.670  13.878 -0.5738  0.3875  0.1335
11637TIP3   OH256325   1.986   3.554   1.443 -0.2348 -0.0620  0.2899
11637TIP3    H156326   2.071   3.513   1.431 -0.1860  0.1675 -0.1771
11637TIP3    H256327   1.927   3.504   1.386  0.0549  1.2215 -1.2149
11638TIP3   OH256328   1.704   3.694  13.407 -0.1885  0.2996  0.5424
11638TIP3    H156329   1.643   3.690  13.333  1.5280 -0.0322 -0.9180
11638TIP3    H256330   1.650   3.724  13.481 -2.1326 -0.1212 -0.6295
11639TIP3   OH256331   0.436   4.284   2.002 -0.2815 -0.5039 -0.7970
11639TIP3    H156332   0.493   4.267   1.926 -0.6219  1.2298 -1.4727
11639TIP3    H256333   0.355   4.319   1.964 -1.3576 -1.7130  0.2410
11640TIP3   OH256334   6.516   0.464  10.586 -0.1256  0.2296  0.4538
11640TIP3    H156335   6.486   0.494  10.672 -1.3123  0.2674  0.0525
11640TIP3    H256336   6.550   0.543  10.544 -2.0546  0.8327 -0.1079
11641TIP3   OH256337   1.181   6.092   1.510 -0.0620  0.1421  0.3627
11641TIP3    H156338   1.256   6.083   1.569 -0.8651 -0.0231  1.3841
11641TIP3    H256339   1.157   6.002   1.489  0.6232  0.2079 -0.7599
11642TIP3   OH256340   4.042   3.414  15.852 -0.3528 -0.1196  0.2139
11642TIP3    H156341   4.122   3.400  15.902 -0.8154 -0.0191  0.9980
11642TIP3    H256342   3.990   3.335  15.866 -0.6480  0.0714  0.2075
11643TIP3   OH256343   3.265   5.573  13.957 -0.4310  0.0225 -0.0888
11643TIP3    H156344   3.309   5.595  14.040  0.2305  1.3252 -0.7642
11643TIP3    H256345   3.335   5.536  13.903 -0.5759  0.3471 -0.4999
11644TIP3   OH256346   2.713   4.195   5.725  0.4532  0.0345  0.7139
11644TIP3    H156347   2.690   4.117   5.775 -0.6888  0.4440  0.8604
11644TIP3    H256348   2.629   4.234   5.701  0.9946  0.4999 -0.5026
11645TIP3   OH256349   0.232   5.285   4.995 -0.0193 -0.0809  0.4778
11645TIP3    H156350   0.253   5.232   4.918  0.7481  0.8838  0.0106
11645TIP3    H256351   0.137   5.300   4.988  0.0101 -0.1586 -0.1787
11646TIP3   OH256352   0.927   4.166  16.340  0.1116  0.2519  0.0308
11646TIP3    H156353   0.934   4.207  16.426  0.1551 -0.8219  0.5545
11646TIP3    H256354   1.018   4.150  16.314  0.0711 -0.5751  0.3642
11647TIP3   OH256355   2.716   2.313  12.085  0.4695  0.0952  0.1834
11647TIP3    H156356   2.772   2.378  12.128 -1.2551  0.6451  1.7590
11647TIP3    H256357   2.632   2.358  12.073 -0.2239 -1.2783 -0.3532
11648TIP3   OH256358   3.306   1.475  16.988  0.2587 -0.1371  0.7602
11648TIP3    H156359   3.269   1.512  17.068  0.4456  0.5764  0.5273
11648TIP3    H256360   3.236   1.420  16.952  0.6648 -1.6220  2.1380
11649TIP3   OH256361   1.794   6.124   4.610 -0.2391  0.4036 -0.1266
11649TIP3    H156362   1.725   6.174   4.654 -2.3677  0.5504 -3.2510
11649TIP3    H256363   1.843   6.190   4.560 -1.3379 -0.1874 -2.1173
11650TIP3   OH256364   2.284   0.648   0.382  0.6721  0.1353  0.0006
11650TIP3    H156365   2.191   0.636   0.401  0.6133  0.0735 -0.3208
11650TIP3    H256366   2.328   0.629   0.465  0.5398 -1.8521 -0.3250
11651TIP3   OH256367   1.738   6.104  16.124  0.0025  0.0536  0.4184
11651TIP3    H156368   1.782   6.042  16.066 -0.0742  0.6378 -0.2705
11651TIP3    H256369   1.750   6.067  16.212 -0.2228 -1.0398 -0.0041
11652TIP3   OH256370   4.560   0.652  12.001  0.2937  0.2705  0.6014
11652TIP3    H156371   4.572   0.560  12.021  1.4343  0.2330 -0.1463
11652TIP3    H256372   4.499   0.654  11.928  0.5496  0.0861  0.3839
11653TIP3   OH256373   5.381   5.131  13.569  0.4336  0.5346 -0.3824
11653TIP3    H156374   5.455   5.186  13.596  1.7893 -1.0393 -0.7396
11653TIP3    H256375   5.409   5.093  13.486 -0.4808 -0.6757 -0.1521
11654TIP3   OH256376   4.138   4.719  16.201  0.2505  0.3447 -0.0437
11654TIP3    H156377   4.070   4.754  16.145  0.3828  1.9441  0.7345
11654TIP3    H256378   4.213   4.707  16.143  0.7668  3.0836 -0.0936
11655TIP3   OH256379   2.184   1.772   5.173 -0.0143  0.0818  0.3455
11655TIP3    H156380   2.125   1.710   5.130  0.5511  0.6334 -1.2911
11655TIP3    H256381   2.150   1.780   5.262  0.4926 -3.3579  0.9738
11656TIP3   OH256382   5.124   0.655  12.269  0.1988 -0.2647  0.2713
11656TIP3    H156383   5.195   0.592  12.260 -0.6411 -1.2798  0.4925
11656TIP3    H256384   5.079   0.629  12.349 -0.6529  0.1025 -0.0695
11657TIP3   OH256385   1.245   6.279  13.727  0.0502 -0.0670 -0.2210
11657TIP3    H156386   1.206   6.246  13.808 -1.6171 -1.0572 -1.3621
11657TIP3    H256387   1.320   6.221  13.711  0.0352 -0.2318  0.2968
11658TIP3   OH256388   5.499   2.775   2.800 -0.2030  0.0136  0.2196
11658TIP3    H156389   5.433   2.715   2.833  0.5162 -1.0969 -0.3216
11658TIP3    H256390   5.539   2.812   2.878 -1.3192  0.5655  0.5547
11659TIP3   OH256391   2.964   3.141   4.237  0.4640  0.0921  0.3019
11659TIP3    H156392   3.002   3.118   4.152 -3.1031  0.8679 -1.6875
11659TIP3    H256393   2.949   3.057   4.281 -1.0618 -0.6297 -1.4995
11660TIP3   OH256394   1.725   5.522   4.939 -0.5696 -0.1899  0.0177
11660TIP3    H156395   1.663   5.458   4.973 -1.6244  0.5330 -0.4999
11660TIP3    H256396   1.685   5.554   4.858 -0.3059  1.4544  0.4939
11661TIP3   OH256397   1.561   1.441   1.590 -0.6567 -0.0628 -0.2072
11661TIP3    H156398   1.589   1.425   1.680 -0.0701 -1.2885 -0.5880
11661TIP3    H256399   1.637   1.478   1.546  0.1930 -2.5021 -0.9935
11662TIP3   OH256400   3.792   0.705   3.213  0.0508  0.2164 -0.1140
11662TIP3    H156401   3.794   0.731   3.305 -1.2898  1.2444 -0.3339
11662TIP3    H256402   3.786   0.610   3.215  1.9084  0.0721  0.7988
11663TIP3   OH256403   0.429   3.900  12.368 -0.2366 -0.5730 -0.2726
11663TIP3    H156404   0.355   3.940  12.415  0.9067  0.9055  0.3416
11663TIP3    H256405   0.463   3.970  12.312  1.0574 -1.0480 -0.1118
11664TIP3   OH256406   5.052   0.596   4.252 -0.2009  0.5320  0.2126
11664TIP3    H156407   5.147   0.585   4.254 -0.3062 -1.1215 -1.5364
11664TIP3    H256408   5.019   0.521   4.301 -0.6299  2.3868  2.9769
11665TIP3   OH256409   5.293   6.596   0.460  0.0075 -0.0331  0.0133
11665TIP3    H156410   5.253   6.580   0.374  0.3248  1.1818 -0.3813
11665TIP3    H256411   5.259   6.526   0.516 -1.1403 -0.1560 -0.8070
11666TIP3   OH256412   3.867   6.026  16.373  0.4724 -0.0888 -0.4238
11666TIP3    H156413   3.902   6.008  16.460  0.8138  0.0309 -0.5349
11666TIP3    H256414   3.909   5.961  16.316 -1.6061 -1.8314 -0.1076
11667TIP3   OH256415   3.963   4.788   4.853 -0.7566 -0.1712 -0.1031
11667TIP3    H156416   3.938   4.878   4.831 -3.7192 -0.7180  0.5780
11667TIP3    H256417   3.942   4.737   4.775 -0.7231 -0.4980  0.0997
11668TIP3   OH256418   2.529   0.390   2.419  0.1231 -0.3236  0.1682
11668TIP3    H156419   2.512   0.298   2.436  1.6396 -1.1377 -2.2301
11668TIP3    H256420   2.454   0.420   2.368  0.4080 -0.7126 -0.4880
11669TIP3   OH256421   3.270   3.925  13.069 -0.5899 -0.3333 -0.1661
11669TIP3    H156422   3.314   3.896  13.148 -1.6031  1.0707  0.9568
11669TIP3    H256423   3.327   3.896  12.998  0.8215 -0.8040  1.1060
11670TIP3   OH256424   6.282   3.756  12.504 -0.0820  0.2797  0.6777
11670TIP3    H156425   6.335   3.820  12.552  0.8834 -0.1390  0.1949
11670TIP3    H256426   6.338   3.726  12.433 -0.5663 -0.9907  0.7988
11671TIP3   OH256427   6.642   1.016   2.338 -0.1573 -0.0923 -0.1502
11671TIP3    H156428   6.585   0.953   2.383  0.5600 -1.6508 -1.3131
11671TIP3    H256429   6.712   1.034   2.401 -0.5266 -0.2209  0.3053
11672TIP3   OH256430   4.164   0.188   3.457 -0.1979 -0.2289  0.1628
11672TIP3    H156431   4.165   0.109   3.403 -1.0890  0.0801 -0.3208
11672TIP3    H256432   4.089   0.176   3.515  0.7021 -0.5239  1.3070
11673TIP3   OH256433   0.857   3.020   4.677 -0.0527  0.4075 -0.0137
11673TIP3    H156434   0.946   3.054   4.666 -0.1790  0.3010 -1.5568
11673TIP3    H256435   0.803   3.098   4.693 -0.3416  1.1087 -3.5080
11674TIP3   OH256436   6.631   0.354   0.254 -0.1462 -0.1304 -0.0748
11674TIP3    H156437   6.541   0.385   0.266  0.3923  0.3956  3.9098
11674TIP3    H256438   6.627   0.260   0.272 -0.0760 -0.3398 -1.1296
11675TIP3   OH256439   2.973   2.937   4.422 -0.0201 -0.5151  0.3745
11675TIP3    H156440   2.913   2.864   4.433 -2.9727  1.8030  1.1254
11675TIP3    H256441   3.054   2.909   4.463 -1.4762 -2.8358  1.8641
11676TIP3   OH256442   2.738   0.517   0.895  0.8725  0.1894  0.1008
11676TIP3    H156443   2.672   0.556   0.953  0.2826  0.8223 -0.9554
11676TIP3    H256444   2.802   0.478   0.954 -0.3473 -0.2754  1.1678
11677TIP3   OH256445   1.761   3.211  15.578  0.4845  0.4024 -0.6386
11677TIP3    H156446   1.809   3.176  15.653 -0.8635 -1.2520 -0.4978
11677TIP3    H256447   1.697   3.271  15.618 -0.5458 -0.8341 -0.3939
11678TIP3   OH256448   4.920   6.666  14.257  0.0948 -0.0898 -0.4038
11678TIP3    H156449   4.961   6.583  14.281  2.6940  0.7624 -1.5361
11678TIP3    H256450   4.835   6.641  14.220  0.9773 -2.2845 -1.1064
11679TIP3   OH256451   2.635   1.780   5.305 -0.3428 -0.1044  0.1323
11679TIP3    H156452   2.702   1.712   5.309 -1.8565 -1.6240  1.1809
11679TIP3    H256453   2.587   1.771   5.388 -1.1996  1.6113 -0.1278
11680TIP3   OH256454   6.614   4.776   3.849  0.2129  0.5483 -0.2557
11680TIP3    H156455   6.618   4.807   3.759 -0.3858  0.4122 -0.3279
11680TIP3    H256456   6.669   4.838   3.898 -0.6267  1.4983 -0.4703
11681TIP3   OH256457   3.686   2.736  14.818 -0.1088  0.6166 -0.0749
11681TIP3    H156458   3.604   2.750  14.865 -0.4744  0.6641 -0.7148
11681TIP3    H256459   3.754   2.747  14.884 -0.6864 -1.6980  1.0273
11682TIP3   OH256460   0.272   1.874   2.920  0.3792  0.0376 -0.2058
11682TIP3    H156461   0.310   1.806   2.864 -0.1731  0.3162 -0.9225
11682TIP3    H256462   0.286   1.841   3.009 -0.2980 -1.2681 -0.5438
11683TIP3   OH256463   3.245   2.999   4.938 -0.3101  0.7773  0.4534
11683TIP3    H156464   3.250   2.904   4.941  2.8423  0.7947 -0.5331
11683TIP3    H256465   3.192   3.018   4.861  0.0993 -0.2110 -0.0888
11684TIP3   OH256466   5.224   1.762   0.652 -0.1197 -0.0849  0.2461
11684TIP3    H156467   5.130   1.764   0.671 -0.0850  0.6968  0.3939
11684TIP3    H256468   5.229   1.776   0.557 -0.1848 -1.1716  0.0699
11685TIP3   OH256469   3.867   5.215  16.880 -0.5547  0.5234 -0.1080
11685TIP3    H156470   3.962   5.215  16.890 -0.6338  0.8565  0.6795
11685TIP3    H256471   3.852   5.169  16.798  0.2357 -0.3869  0.2404
11686TIP3   OH256472   3.053   2.820  15.104 -0.3576  0.1369  0.0893
11686TIP3    H156473   3.019   2.806  15.016 -1.1382  1.9474  0.0649
11686TIP3    H256474   3.146   2.840  15.092  0.0972 -1.9078 -0.0924
11687TIP3   OH256475   4.196   1.171   2.760  0.4335 -0.1956  0.5616
11687TIP3    H156476   4.147   1.094   2.787 -2.0579  0.2271 -2.2419
11687TIP3    H256477   4.160   1.242   2.813  0.4811 -0.4585  0.9446
11688TIP3   OH256478   1.530   3.702   5.683  0.3256  0.0446 -0.2556
11688TIP3    H156479   1.550   3.794   5.668 -1.6335  0.2433 -2.2647
11688TIP3    H256480   1.472   3.702   5.760 -1.5850  0.8505 -1.6047
11689TIP3   OH256481   2.509   0.333  14.173  0.0465 -0.3072 -0.0519
11689TIP3    H156482   2.492   0.424  14.197 -2.7105 -1.1074  1.4660
11689TIP3    H256483   2.481   0.327  14.081 -0.1346  0.2995 -0.0364
11690TIP3   OH256484   3.380   5.696   4.840  0.0472 -0.4362  0.2554
11690TIP3    H156485   3.334   5.757   4.783  1.2810  1.2003  0.8987
11690TIP3    H256486   3.465   5.683   4.798 -0.0117 -1.3382  0.3912
11691TIP3   OH256487   2.437   3.886  14.511 -0.5886  0.2318  0.2984
11691TIP3    H156488   2.490   3.928  14.578 -1.9175  1.5700  0.5646
11691TIP3    H256489   2.360   3.853  14.558 -0.4799 -0.8415 -0.2239
11692TIP3   OH256490   6.303   3.037  12.148 -0.1020 -0.3515 -0.1237
11692TIP3    H156491   6.256   3.048  12.231 -0.5071  1.2881 -0.5316
11692TIP3    H256492   6.236   3.048  12.081  0.5931  0.5887 -0.6885
11693TIP3   OH256493   0.883   4.452   5.662  0.0710 -0.2501 -0.2974
11693TIP3    H156494   0.798   4.469   5.622 -0.4648  1.5883  1.4720
11693TIP3    H256495   0.902   4.530   5.714  0.7047 -2.3976  3.0099
11694TIP3   OH256496   0.562   3.241  16.497  0.4938  0.7125  0.1693
11694TIP3    H156497   0.469   3.244  16.519  0.5985  0.9197  0.5820
11694TIP3    H256498   0.589   3.152  16.520  0.7335  1.0964  1.4280
11695TIP3   OH256499   3.579   0.682  13.500 -0.3387  0.0158 -0.0611
11695TIP3    H156500   3.549   0.591  13.504  1.4953 -0.7292 -1.5029
11695TIP3    H256501   3.649   0.687  13.565 -1.2117  0.7547  0.8443
11696TIP3   OH256502   3.319   5.281  15.499  0.3710  0.2730 -0.8079
11696TIP3    H156503   3.264   5.323  15.433  0.4591  1.4166 -0.1838
11696TIP3    H256504   3.259   5.265  15.572  0.9842  2.3980  0.2571
11697TIP3   OH256505   5.873   1.304  12.744  0.6904 -0.3019  0.4177
11697TIP3    H156506   5.916   1.226  12.709 -0.6944 -1.3139  0.8943
11697TIP3    H256507   5.890   1.372  12.678  0.4641 -1.4567 -0.8894
11698TIP3   OH256508   3.310   4.031  13.781  0.4227  0.1671 -0.2186
11698TIP3    H156509   3.329   4.125  13.774  1.5005 -0.0848 -0.9123
11698TIP3    H256510   3.246   4.024  13.852  1.2927  1.2946  0.7052
11699TIP3   OH256511   3.973   4.683  11.841  0.0545  0.0392 -0.0049
11699TIP3    H156512   4.010   4.765  11.874 -1.1406  0.4793  0.2820
11699TIP3    H256513   4.017   4.668  11.758  0.3742  0.9048 -0.0012
11700TIP3   OH256514   0.753   0.961  12.270  0.8484  0.0712  0.3209
11700TIP3    H156515   0.791   0.941  12.184  1.7323 -1.1584  0.9643
11700TIP3    H256516   0.812   0.919  12.332 -0.3217  0.1078  1.4869
11701TIP3   OH256517   6.301   1.128   3.288  0.2220  0.2739  0.0575
11701TIP3    H156518   6.352   1.206   3.266  0.6344  0.1047  0.4144
11701TIP3    H256519   6.353   1.082   3.353  1.0029 -1.4195 -1.6905
11702TIP3   OH256520   2.324   5.925  12.834 -0.2261  0.6801  0.3624
11702TIP3    H156521   2.355   5.853  12.779 -0.3222  0.5195  0.5159
11702TIP3    H256522   2.264   5.974  12.778 -3.1756 -1.4927  1.3035
11703TIP3   OH256523   2.845   5.209   0.599  0.0593 -0.0593 -0.1974
11703TIP3    H156524   2.789   5.259   0.659  3.5626  1.7255  1.8832
11703TIP3    H256525   2.898   5.275   0.555  0.4866 -1.6484 -2.2079
11704TIP3   OH256526   5.906   6.287  11.609 -0.0608 -0.5196  1.0598
11704TIP3    H156527   5.826   6.240  11.584 -1.1511  1.4805  0.5556
11704TIP3    H256528   5.942   6.318  11.526  0.6343 -0.4430  1.3829
11705TIP3   OH256529   1.970   0.560  13.365  0.4905  0.6732  0.0937
11705TIP3    H156530   1.951   0.619  13.292 -2.8639  1.1834  1.1916
11705TIP3    H256531   1.996   0.618  13.437  1.0626  0.4253  0.0906
11706TIP3   OH256532   1.977   1.648   3.920 -0.4319 -0.5216  0.4609
11706TIP3    H156533   1.911   1.717   3.920  2.3420  2.3956  0.1690
11706TIP3    H256534   2.008   1.645   4.011 -0.7919 -1.6684  0.5494
11707TIP3   OH256535   3.629   5.655  16.205 -0.0367 -0.1141 -0.0752
11707TIP3    H156536   3.604   5.624  16.118  1.3190  1.7503 -1.1940
11707TIP3    H256537   3.585   5.739  16.215 -0.2810 -0.3625  1.1127
11708TIP3   OH256538   1.874   3.386   1.227 -0.1041  0.0256  0.0982
11708TIP3    H156539   1.844   3.347   1.309  1.7409  0.0045  0.8214
11708TIP3    H256540   1.798   3.383   1.169 -0.9071 -1.7057  1.1790
11709TIP3   OH256541   1.262   4.685  10.527  0.0328 -0.1138 -0.2984
11709TIP3    H156542   1.230   4.721  10.610 -0.0394  0.4087 -0.5481
11709TIP3    H256543   1.310   4.606  10.552  0.4484  0.3197  0.2867
11710TIP3   OH256544   1.328   5.368  11.426  0.3591  0.4139  0.6571
11710TIP3    H156545   1.266   5.361  11.354  0.7125 -0.1183  0.3962
11710TIP3    H256546   1.342   5.462  11.438  2.1317  0.5129 -1.5798
11711TIP3   OH256547   2.053   4.821   4.239 -0.4074  0.3551 -0.0990
11711TIP3    H156548   2.058   4.910   4.275 -1.2195  0.9326 -1.3531
11711TIP3    H256549   2.141   4.803   4.207 -0.7230  1.5843 -1.7891
11712TIP3   OH256550   5.258   1.831  14.147  0.4085 -0.2405 -0.0746
11712TIP3    H156551   5.349   1.822  14.176  0.4333 -1.0487 -0.3873
11712TIP3    H256552   5.215   1.753  14.181 -0.0745 -0.0646 -0.2851
11713TIP3   OH256553   3.131   6.292  14.178  0.5519  0.4556 -0.4486
11713TIP3    H156554   3.085   6.289  14.262  1.3928  1.8861  0.1051
11713TIP3    H256555   3.061   6.294  14.113 -0.1233  0.1220  0.2489
11714TIP3   OH256556   0.521   5.426   5.731 -0.9371  0.2828 -0.1687
11714TIP3    H156557   0.466   5.453   5.806 -1.0682 -0.0118 -0.1572
11714TIP3    H256558   0.458   5.393   5.667 -0.7008 -1.1407  0.2937
11715TIP3   OH256559   1.543   5.024  13.046  0.0740  0.0595  0.5521
11715TIP3    H156560   1.571   5.029  13.138 -1.5674  0.4328  1.0782
11715TIP3    H256561   1.557   5.113  13.012 -1.0647  0.4438  1.0256
11716TIP3   OH256562   1.872   1.345   5.095  0.0238 -0.0022 -0.4204
11716TIP3    H156563   1.815   1.396   5.039  0.3287 -0.9409 -1.6305
11716TIP3    H256564   1.837   1.256   5.092  0.0603 -0.0816  0.8728
11717TIP3   OH256565   6.180   0.210   0.474  0.0287 -0.5674  0.2738
11717TIP3    H156566   6.184   0.115   0.467  0.7602 -0.5199  0.0108
11717TIP3    H256567   6.194   0.228   0.566 -1.2869 -0.7623  0.5413
11718TIP3   OH256568   1.269   4.602   5.347 -0.1299  0.1701  1.0393
11718TIP3    H156569   1.253   4.525   5.293  3.9409  0.5339 -1.0107
11718TIP3    H256570   1.225   4.673   5.302 -2.0194 -0.5048  1.7316
11719TIP3   OH256571   2.114   5.572  14.460 -0.2557 -0.0895  0.0089
11719TIP3    H156572   2.071   5.487  14.470  0.8659 -0.6675  0.0581
11719TIP3    H256573   2.064   5.630  14.518  0.5575 -1.3349  2.0736
11720TIP3   OH256574   1.189   5.800  16.509 -0.1580  0.5229 -0.5707
11720TIP3    H156575   1.272   5.847  16.505  0.5541 -0.6774 -0.4532
11720TIP3    H256576   1.183   5.768  16.599  1.2646 -2.7835 -1.4926
11721TIP3   OH256577   5.027   4.476   3.180  0.2374 -0.1820 -0.1006
11721TIP3    H156578   5.110   4.498   3.137  0.7911  0.3700  1.1784
11721TIP3    H256579   4.981   4.559   3.187  0.5487 -0.0954  1.1333
11722TIP3   OH256580   2.614   5.721   6.158  0.3472 -0.2084 -0.2226
11722TIP3    H156581   2.645   5.810   6.138 -0.1500 -0.1859 -0.9477
11722TIP3    H256582   2.562   5.732   6.238 -0.5548  0.3449 -0.8662
11723TIP3   OH256583   3.037   1.760  17.056  0.3395  0.0437  0.0141
11723TIP3    H156584   2.971   1.794  17.116  0.2430  0.6736 -0.4343
11723TIP3    H256585   3.017   1.667  17.049 -0.6686  0.2614 -0.2923
11724TIP3   OH256586   6.155   4.354   2.006 -0.2804 -0.1293  0.6304
11724TIP3    H156587   6.140   4.407   1.928 -1.0484 -0.1664  0.7488
11724TIP3    H256588   6.213   4.284   1.976  0.4980  0.5923  0.4062
11725TIP3   OH256589   2.170   3.622   3.726  0.3976  0.6056 -0.1702
11725TIP3    H156590   2.076   3.618   3.708  0.7577 -0.3223 -2.0980
11725TIP3    H256591   2.182   3.707   3.768 -1.8006 -0.7736  3.7894
11726TIP3   OH256592   0.296   0.964   5.146  0.4451  0.7280 -0.2246
11726TIP3    H156593   0.214   0.961   5.096  0.0408  0.2112  0.4455
11726TIP3    H256594   0.364   0.980   5.080 -0.0567 -0.0739 -0.9612
11727TIP3   OH256595   1.839   1.442  14.510  0.0292 -0.5827 -0.4247
11727TIP3    H156596   1.892   1.368  14.538  0.4860 -0.1024  0.0002
11727TIP3    H256597   1.858   1.511  14.574 -2.6348 -1.0249  1.0116
11728TIP3   OH256598   5.070   5.427   4.532 -0.0077 -0.2206 -0.5066
11728TIP3    H156599   5.093   5.375   4.455  0.5684 -0.0822 -0.4334
11728TIP3    H256600   5.079   5.518   4.503 -0.9815 -0.1543 -0.6258
11729TIP3   OH256601   2.345   0.805   5.485  0.0549  0.0791  0.1664
11729TIP3    H156602   2.343   0.878   5.423 -2.0085 -0.2424 -0.2291
11729TIP3    H256603   2.406   0.742   5.446 -0.4287  0.3319 -1.0703
11730TIP3   OH256604   4.517   3.034   0.725  0.0139  0.1162  0.5609
11730TIP3    H156605   4.446   3.050   0.662  0.8801  0.9771 -0.2480
11730TIP3    H256606   4.504   3.100   0.793 -0.4108 -0.2422  0.8332
11731TIP3   OH256607   1.819   3.774  16.678  0.2954 -0.1973 -0.0354
11731TIP3    H156608   1.814   3.699  16.737  0.7955 -0.1193  0.1134
11731TIP3    H256609   1.757   3.754  16.608 -0.3329 -0.2775  0.5289
11732TIP3   OH256610   3.394   4.214  11.674 -0.1330  0.0141  0.3944
11732TIP3    H156611   3.472   4.164  11.651 -0.9969 -1.5777  0.7464
11732TIP3    H256612   3.372   4.184  11.762 -1.1316  0.4399  0.3027
11733TIP3   OH256613   1.075   3.460   5.065 -0.4497  0.0341  0.2436
11733TIP3    H156614   1.132   3.435   5.138 -0.5901 -1.3197 -0.0773
11733TIP3    H256615   1.065   3.555   5.073  0.6482  0.0902  1.1726
11734TIP3   OH256616   0.583   2.893   1.957 -0.1693  0.4257  0.2867
11734TIP3    H156617   0.537   2.938   2.028 -2.8683  0.4643 -1.3508
11734TIP3    H256618   0.552   2.803   1.962  0.5532  0.1427 -0.1441
11735TIP3   OH256619   3.250   5.471   6.559 -0.2420 -0.2520  0.4059
11735TIP3    H156620   3.158   5.495   6.553 -0.5447 -0.6695  2.4808
11735TIP3    H256621   3.297   5.554   6.547 -0.8386 -0.0617 -0.8418
11736TIP3   OH256622   2.387   3.682   0.733  0.2160 -0.5399 -0.3544
11736TIP3    H156623   2.397   3.699   0.827 -0.8875 -0.2337 -0.2904
11736TIP3    H256624   2.473   3.648   0.707  0.8375  0.2532  0.5659
11737TIP3   OH256625   1.088   1.991  13.642 -0.3520  0.2942  0.0914
11737TIP3    H156626   1.071   1.922  13.706 -1.3133  1.4984  1.1917
11737TIP3    H256627   1.000   2.022  13.617  0.0677  1.6576  0.2415
11738TIP3   OH256628   4.814   1.684   5.501  0.5702 -0.0527  0.3473
11738TIP3    H156629   4.785   1.735   5.577  1.4094  0.1892  0.5206
11738TIP3    H256630   4.898   1.647   5.528  0.1892 -1.1826  0.0615
11739TIP3   OH256631   3.118   5.395  17.147  0.4040  0.5302  0.9091
11739TIP3    H156632   3.205   5.355  17.150  0.4886  0.7755  2.2293
11739TIP3    H256633   3.059   5.323  17.127  0.8992  0.3821 -0.1209
11740TIP3   OH256634   4.948   1.345   0.167 -0.0563  0.3620 -0.1383
11740TIP3    H156635   4.938   1.274   0.231 -2.0870 -0.3058 -1.1270
11740TIP3    H256636   5.029   1.390   0.194  0.7358 -1.6732  1.1285
11741TIP3   OH256637   3.385   1.131  13.143  0.2171 -0.3476 -0.1164
11741TIP3    H156638   3.379   1.227  13.139 -0.2353 -0.4048 -1.0785
11741TIP3    H256639   3.315   1.105  13.203  0.4064 -0.0709  0.2266
11742TIP3   OH256640   5.912   2.476  16.453 -0.1298  0.2216  0.2836
11742TIP3    H156641   6.003   2.454  16.434 -0.6298 -2.7471  0.9583
11742TIP3    H256642   5.896   2.556  16.402  2.9354  1.1212  0.5120
11743TIP3   OH256643   3.559   1.729   0.445  0.2942  0.0753 -0.0029
11743TIP3    H156644   3.510   1.804   0.480 -0.2825 -0.2143 -0.1815
11743TIP3    H256645   3.647   1.740   0.480  0.3772  1.1781 -0.5315
11744TIP3   OH256646   3.251   3.952  11.614  0.0837 -0.1270  0.4868
11744TIP3    H156647   3.252   4.044  11.642  0.9670 -0.3596  1.3150
11744TIP3    H256648   3.164   3.921  11.637 -0.9658  1.0141 -1.6847
11745TIP3   OH256649   4.231   2.465  15.452 -0.1653  0.3420  0.2772
11745TIP3    H156650   4.162   2.401  15.472  1.6142 -0.9572  2.8956
11745TIP3    H256651   4.223   2.480  15.358 -1.5449 -2.7312 -0.2439
11746TIP3   OH256652   4.067   5.642  14.247 -0.0201  0.4458 -0.0632
11746TIP3    H156653   4.063   5.682  14.160 -0.5362  0.4017 -0.0663
11746TIP3    H256654   3.985   5.593  14.254  0.6776 -0.7684 -0.1415
11747TIP3   OH256655   0.770   5.447  12.121  0.3576  0.7066  0.0068
11747TIP3    H156656   0.802   5.460  12.210  0.8506 -1.0151  0.1066
11747TIP3    H256657   0.849   5.433  12.069 -0.0518 -1.1172 -0.1815
11748TIP3   OH256658   0.478   6.456  15.553 -0.5939 -0.7413 -0.0803
11748TIP3    H156659   0.407   6.518  15.536  1.0151  2.0401  2.3592
11748TIP3    H256660   0.443   6.397  15.620 -1.1357 -0.4621 -0.1141
11749TIP3   OH256661   3.465   5.471   0.981  0.8887 -0.0813 -0.4682
11749TIP3    H156662   3.513   5.543   1.023  0.1387  1.1344 -1.6106
11749TIP3    H256663   3.525   5.438   0.915  1.7340 -1.4195  0.8946
11750TIP3   OH256664   0.405   3.814  13.675 -0.3991 -0.6098 -0.0222
11750TIP3    H156665   0.375   3.729  13.709 -0.1249 -1.5693 -2.0225
11750TIP3    H256666   0.496   3.799  13.650 -0.1104  0.5081  0.3262
11751TIP3   OH256667   6.726   1.258  15.530  0.3006 -0.3822 -0.6128
11751TIP3    H156668   6.690   1.200  15.597  1.5950 -0.3830  0.1151
11751TIP3    H256669   6.787   1.203  15.482  1.6669  0.3931  0.1892
11752TIP3   OH256670   4.441   1.673  16.900 -0.2282  0.0652  0.0042
11752TIP3    H156671   4.535   1.680  16.882 -0.5295  2.1095 -1.1287
11752TIP3    H256672   4.406   1.625  16.826 -0.1756 -0.0920  0.0800
11753TIP3   OH256673   5.584   3.213  12.040  0.5609  0.1004  0.4133
11753TIP3    H156674   5.570   3.119  12.030 -0.3669  0.3388 -0.8805
11753TIP3    H256675   5.679   3.224  12.041  0.6858 -0.9029  1.3579
11754TIP3   OH256676   5.462   2.879   0.616  0.0327 -0.0330 -0.0081
11754TIP3    H156677   5.553   2.902   0.637 -0.1130  1.9073 -1.2731
11754TIP3    H256678   5.469   2.795   0.570  1.3674  0.8460 -1.4841
11755TIP3   OH256679   2.078   2.205   4.414 -0.6627  0.2193 -0.2365
11755TIP3    H156680   2.013   2.275   4.420 -1.1600 -0.3322  1.0843
11755TIP3    H256681   2.159   2.246   4.443 -0.9416  0.2776  0.4914
11756TIP3   OH256682   2.100   4.356  14.186 -0.2931 -0.3902 -0.4588
11756TIP3    H156683   2.085   4.412  14.263  0.5554  0.1673 -0.6839
11756TIP3    H256684   2.152   4.283  14.219  0.7106  0.2310 -0.6334
11757TIP3   OH256685   4.915   2.488  17.073  0.1630  0.1415  0.2719
11757TIP3    H156686   4.973   2.548  17.121 -1.1864  0.5904  1.4117
11757TIP3    H256687   4.917   2.519  16.983  0.4017  1.1682  0.6160
11758TIP3   OH256688   4.424   0.458   2.185  0.3606  0.7907 -0.5816
11758TIP3    H156689   4.331   0.472   2.165  0.2750  0.1603 -0.6156
11758TIP3    H256690   4.461   0.423   2.104  0.2123 -0.8507  0.0409
11759TIP3   OH256691   0.382   0.837   0.097 -0.1309  0.1240 -0.0733
11759TIP3    H156692   0.467   0.809   0.063  0.0120 -0.6614  0.8871
11759TIP3    H256693   0.321   0.820   0.025  0.3657 -0.2764 -0.4091
11760TIP3   OH256694   0.340   2.696  12.970 -0.4266 -0.4852  0.5556
11760TIP3    H156695   0.322   2.677  12.878 -3.0585  1.3583  0.5727
11760TIP3    H256696   0.351   2.610  13.011 -0.7870 -1.4146 -1.2026
11761TIP3   OH256697   3.200   4.307  15.141 -0.3294  0.6997 -0.1765
11761TIP3    H156698   3.118   4.259  15.127 -0.7050  1.6346 -1.3297
11761TIP3    H256699   3.247   4.299  15.058  1.9534 -1.9351  1.2083
11762TIP3   OH256700   0.115   3.605   3.319  0.3039  0.2036  0.0926
11762TIP3    H156701   0.068   3.545   3.376  0.3926  1.6228  1.7555
11762TIP3    H256702   0.208   3.587   3.335  0.3355 -0.1334 -0.4460
11763TIP3   OH256703   0.187   6.025   1.497 -0.2121 -0.1248  0.3218
11763TIP3    H156704   0.097   6.026   1.464  0.1428 -2.7773 -0.9824
11763TIP3    H256705   0.237   6.073   1.431  0.0392 -2.9857 -1.7178
11764TIP3   OH256706   5.942   6.772  17.168  0.6628 -0.3546 -0.2021
11764TIP3    H156707   5.884   6.704  17.134 -1.5025  1.1030  0.3587
11764TIP3    H256708   5.934   6.764  17.263 -0.4729  1.2997 -0.1220
11765TIP3   OH256709   2.058   0.820  16.405 -0.3451  0.2636 -0.2206
11765TIP3    H156710   2.016   0.749  16.453  0.8359 -0.2095  0.1450
11765TIP3    H256711   2.015   0.899  16.438 -0.7400 -0.1796  0.3520
11766TIP3   OH256712   3.064   6.753  13.906  0.3480  0.4886 -0.2227
11766TIP3    H156713   3.035   6.786  13.991  0.8388  0.2064  0.0592
11766TIP3    H256714   3.156   6.780  13.900  0.1342  1.0676 -0.9469
11767TIP3   OH256715   0.774   4.494   0.754  0.3394  0.1280 -0.0697
11767TIP3    H156716   0.691   4.447   0.754 -1.0067  2.3629  1.5256
11767TIP3    H256717   0.764   4.561   0.686  0.8203  0.4476  0.1673
11768TIP3   OH256718   4.949   1.703   0.279  0.0441 -0.7869  0.1167
11768TIP3    H156719   4.909   1.644   0.344 -1.6961 -0.1772 -0.3574
11768TIP3    H256720   4.930   1.791   0.311  1.9766 -0.4295  0.4204
11769TIP3   OH256721   2.063   0.943   4.102  0.9402  0.1142  0.3178
11769TIP3    H156722   2.043   0.876   4.037  0.1800 -1.2685  1.8995
11769TIP3    H256723   1.986   0.999   4.104  0.4568 -0.5562  0.8517
11770TIP3   OH256724   4.568   0.113   2.120  0.1039  0.2117 -0.5696
11770TIP3    H156725   4.525   0.099   2.205 -1.1985  0.2419 -1.1903
11770TIP3    H256726   4.587   0.026   2.088  1.8805  0.2184  0.3401
11771TIP3   OH256727   1.998   5.367  14.707 -0.3506  0.7957  0.0927
11771TIP3    H156728   1.966   5.292  14.657 -0.9358  1.2716 -0.2613
11771TIP3    H256729   2.091   5.349  14.720 -0.5285 -0.1143  0.2397
11772TIP3   OH256730   6.742   6.520  15.514 -0.3371 -0.5455  0.4317
11772TIP3    H156731   6.722   6.472  15.434  1.4214  0.4192 -0.6349
11772TIP3    H256732   6.676   6.589  15.518 -1.3634 -1.5052  0.6637
11773TIP3   OH256733   5.903   2.583   0.988  0.6373 -0.3052 -0.4372
11773TIP3    H156734   5.833   2.648   0.982  0.7918  0.1339  1.8043
11773TIP3    H256735   5.974   2.619   0.934  0.6544  1.3312  0.6154
11774TIP3   OH256736   4.256   4.416   3.961 -0.1912 -0.6105  0.2131
11774TIP3    H156737   4.324   4.408   3.895  0.2823 -0.9642  0.7327
11774TIP3    H256738   4.294   4.473   4.028 -1.0971  0.7123 -0.3447
11775TIP3   OH256739   2.663   4.100  14.117 -0.3618  0.0809  0.2698
11775TIP3    H156740   2.599   4.130  14.052 -0.0303  0.4289  0.1025
11775TIP3    H256741   2.618   4.110  14.201 -0.0769  1.5638  0.2729
11776TIP3   OH256742   2.953   0.381  10.592 -0.0329 -0.2629  0.4106
11776TIP3    H156743   2.861   0.355  10.596  0.2545 -1.2994  0.4592
11776TIP3    H256744   3.000   0.302  10.565  1.0392 -0.2408  2.0515
11777TIP3   OH256745   6.070   0.804   0.450 -0.3050 -0.3441 -0.3891
11777TIP3    H156746   6.161   0.784   0.472 -0.0214  0.8015 -0.4364
11777TIP3    H256747   6.023   0.796   0.533  0.0379  0.0669 -0.1489
11778TIP3   OH256748   2.753   0.728   3.000  0.7224  0.0618 -0.0248
11778TIP3    H156749   2.802   0.673   2.940  0.0135 -1.3771  0.6716
11778TIP3    H256750   2.746   0.812   2.955 -0.1032 -1.0716 -2.1172
11779TIP3   OH256751   2.847   0.407   5.439  0.5474 -0.3979  0.0679
11779TIP3    H156752   2.809   0.328   5.478 -0.7224 -0.2330 -0.7640
11779TIP3    H256753   2.800   0.417   5.356  2.5566 -0.2538 -1.1090
11780TIP3   OH256754   0.562   4.058  14.520  0.0335  0.3178 -0.1107
11780TIP3    H156755   0.483   4.086  14.473  0.2920  1.0959 -0.0983
11780TIP3    H256756   0.541   4.074  14.612 -0.5489 -1.3956  0.0902
11781TIP3   OH256757   5.736   2.076   2.727 -0.2337 -0.1537 -0.3226
11781TIP3    H156758   5.802   2.089   2.659  0.3563 -1.3956 -0.0144
11781TIP3    H256759   5.719   2.164   2.760  0.8168  0.2624 -0.8333
11782TIP3   OH256760   4.381   3.320  14.989 -0.1621 -0.1850 -0.6407
11782TIP3    H156761   4.424   3.307  15.074  1.0759 -0.3555 -1.2793
11782TIP3    H256762   4.322   3.245  14.981 -0.5712  0.0275  0.2257
11783TIP3   OH256763   1.936   0.691   3.154  0.0734 -0.0590 -0.7996
11783TIP3    H156764   1.863   0.742   3.189  0.4440 -0.8015  1.1247
11783TIP3    H256765   1.979   0.653   3.230  1.8951 -0.4596 -1.9433
11784TIP3   OH256766   1.196   5.040   5.558  0.3104 -0.5292  0.3987
11784TIP3    H156767   1.170   4.948   5.566 -1.1794 -0.0864  0.9415
11784TIP3    H256768   1.154   5.070   5.477 -0.1598 -0.0249  0.8254
11785TIP3   OH256769   5.517   3.131   2.724  0.6454  0.1171  0.0456
11785TIP3    H156770   5.549   3.217   2.699 -0.3188  0.3126 -0.5812
11785TIP3    H256771   5.425   3.131   2.696  0.4577 -0.8727  0.6301
11786TIP3   OH256772   5.811   6.453  13.180 -0.2614 -0.0618 -0.8874
11786TIP3    H156773   5.769   6.538  13.193  1.1852  0.6016 -0.2614
11786TIP3    H256774   5.832   6.450  13.087 -0.7391  0.0652 -0.9988
11787TIP3   OH256775   0.001   3.564  11.565 -0.1009 -0.3187  0.5145
11787TIP3    H156776   0.078   3.561  11.507 -1.1189  0.5323 -0.9697
11787TIP3    H256777  -0.041   3.479  11.554  0.2780 -0.5503  0.8370
11788TIP3   OH256778   1.966   6.077   1.582 -0.7992  0.5554  0.7683
11788TIP3    H156779   2.030   6.148   1.586  0.8002 -0.8224  0.8931
11788TIP3    H256780   1.967   6.040   1.670 -3.9325  2.2366  1.6435
11789TIP3   OH256781   2.399   3.739  16.419 -0.3921  0.5414 -0.2629
11789TIP3    H156782   2.464   3.808  16.409 -0.4742  0.8347  1.0510
11789TIP3    H256783   2.360   3.730  16.331  0.4530  1.3057 -0.7359
11790TIP3   OH256784   5.700   3.321  16.993  0.5750  0.2383 -0.3745
11790TIP3    H156785   5.682   3.314  17.086 -1.8913 -2.2147 -0.9119
11790TIP3    H256786   5.635   3.383  16.960  0.3562 -0.1584 -0.7015
11791TIP3   OH256787   3.391   4.987   2.711  0.4488 -0.4052 -0.1563
11791TIP3    H156788   3.342   4.919   2.757  0.3589 -0.5153 -0.4127
11791TIP3    H256789   3.392   4.958   2.620  0.8154 -0.3011 -0.1880
11792TIP3   OH256790   6.058   5.620  14.729  0.4124 -0.1544 -0.0808
11792TIP3    H156791   6.094   5.537  14.698 -0.4679 -0.3725 -0.5501
11792TIP3    H256792   6.035   5.667  14.649 -0.0907  0.0892  0.2048
11793TIP3   OH256793   3.235   1.237  16.430 -0.1662  0.0803  0.1581
11793TIP3    H156794   3.147   1.275  16.434 -0.3197 -0.1462 -0.9325
11793TIP3    H256795   3.248   1.198  16.516 -1.0782  0.2320  0.3682
11794TIP3   OH256796   0.653   0.716   3.082  0.4785  0.3212  0.5093
11794TIP3    H156797   0.597   0.678   3.015 -0.0180 -0.6914  1.4630
11794TIP3    H256798   0.688   0.796   3.042 -2.2513  1.4386  0.1541
11795TIP3   OH256799   2.829   6.169  16.181 -0.4365 -0.7619  0.0573
11795TIP3    H156800   2.769   6.163  16.107 -0.1211 -3.0776 -0.1108
11795TIP3    H256801   2.811   6.090  16.232  0.9797 -0.4177  1.1505
11796TIP3   OH256802   0.488   4.991   5.792  0.5224 -0.0130 -0.0790
11796TIP3    H156803   0.537   4.916   5.826  1.3799  0.0709 -1.0762
11796TIP3    H256804   0.396   4.965   5.797  0.7132 -0.5410  0.9574
11797TIP3   OH256805   5.502   3.924   3.381 -0.7494 -0.4276 -0.4477
11797TIP3    H156806   5.468   3.986   3.318  0.7576  1.9826  0.9526
11797TIP3    H256807   5.592   3.907   3.353 -0.6561 -0.7844  0.0325
11798TIP3   OH256808   4.146   2.276   5.889  0.0865  0.0203  0.5201
11798TIP3    H156809   4.154   2.335   5.814 -1.1171  0.0119  0.3667
11798TIP3    H256810   4.088   2.206   5.858  2.2163 -1.7854  0.3954
11799TIP3   OH256811   2.665   2.773   0.307 -0.4898  0.2451  0.0169
11799TIP3    H156812   2.702   2.860   0.317  1.2651 -0.4606  0.1076
11799TIP3    H256813   2.660   2.739   0.396  0.7934 -0.4606 -0.1431
11800TIP3   OH256814   2.911   4.050   6.816  0.1060 -0.4253 -0.1029
11800TIP3    H156815   3.003   4.025   6.828  0.1048 -0.2085  0.3685
11800TIP3    H256816   2.862   3.984   6.866 -0.0755 -1.2529 -1.3162
11801TIP3   OH256817   6.061   2.718  12.515  0.3523 -0.2242 -0.1997
11801TIP3    H156818   6.013   2.650  12.563  1.1412 -0.1346  0.7519
11801TIP3    H256819   6.136   2.671  12.478  1.2164  0.2078  0.9425
11802TIP3   OH256820   3.375   1.201   6.022 -0.2921  0.3426 -0.4190
11802TIP3    H156821   3.455   1.198   6.075 -0.3942  0.9903 -0.2132
11802TIP3    H256822   3.337   1.114   6.032  0.1477  0.1772 -0.1354
11803TIP3   OH256823   5.365   5.579   1.665 -0.5051  0.6979 -0.3519
11803TIP3    H156824   5.288   5.614   1.709 -1.8865 -1.2286 -1.0653
11803TIP3    H256825   5.378   5.636   1.590 -1.1917  1.1097 -0.1633
11804TIP3   OH256826   3.861   0.413  16.084  0.1492 -0.3436 -1.0880
11804TIP3    H156827   3.781   0.452  16.049 -0.8501  0.2956  1.6377
11804TIP3    H256828   3.896   0.480  16.144  0.7257 -1.9764  0.4867
11805TIP3   OH256829   4.825   1.847  13.232  0.3283 -0.7159  0.6039
11805TIP3    H156830   4.916   1.849  13.263 -0.1130  0.5565  1.8950
11805TIP3    H256831   4.815   1.928  13.183 -0.6084  0.0845  2.0494
11806TIP3   OH256832   4.326   0.733   6.157 -0.4455  0.4038  0.4384
11806TIP3    H156833   4.400   0.692   6.203 -0.4351  0.8719  0.8433
11806TIP3    H256834   4.249   0.704   6.207 -0.3660  1.6995  1.3734
11807TIP3   OH256835   1.113   0.313   2.067 -0.2134 -0.0362  0.4819
11807TIP3    H156836   1.034   0.364   2.051 -0.4577  0.1990  2.2616
11807TIP3    H256837   1.112   0.246   1.999 -0.4638  1.6089 -1.2220
11808TIP3   OH256838   1.029   2.236   0.375 -0.0007 -0.1876  0.8101
11808TIP3    H156839   1.073   2.250   0.459  1.0699 -1.4267  0.4832
11808TIP3    H256840   0.961   2.304   0.372  0.9144  0.8252  1.9996
11809TIP3   OH256841   6.059   1.557   6.522  1.1358 -0.4745 -0.5241
11809TIP3    H156842   6.069   1.463   6.536  3.7198 -0.1971 -0.0364
11809TIP3    H256843   6.092   1.573   6.434  2.4384  0.1496  0.0394
11810TIP3   OH256844   3.690   2.298   3.735  0.2780 -0.0392 -0.3387
11810TIP3    H156845   3.748   2.228   3.767 -1.2586 -0.4441  1.8185
11810TIP3    H256846   3.718   2.313   3.645  1.1352 -2.9395 -0.6588
11811TIP3   OH256847   3.322   0.803   3.287 -0.1754  0.0868 -0.2196
11811TIP3    H156848   3.354   0.822   3.375 -1.8153  3.6050 -0.2093
11811TIP3    H256849   3.238   0.760   3.301  0.2165 -0.7015 -0.1653
11812TIP3   OH256850   4.786   5.197   0.686  0.2029 -0.3364 -0.2971
11812TIP3    H156851   4.694   5.217   0.704  0.4117  0.0657  0.3721
11812TIP3    H256852   4.790   5.185   0.591 -0.3681  0.5513 -0.4418
11813TIP3   OH256853   3.241   3.452  12.792 -0.3279  0.0966 -0.1932
11813TIP3    H156854   3.231   3.383  12.857 -0.8893 -0.6473 -1.0542
11813TIP3    H256855   3.157   3.496  12.789 -0.1212  0.5137  0.0015
11814TIP3   OH256856   1.898   6.737  12.295 -0.6675  0.8496  0.4098
11814TIP3    H156857   1.912   6.720  12.202 -0.8965  2.4011  0.0681
11814TIP3    H256858   1.985   6.727  12.335 -0.0803  2.4664 -0.3712
11815TIP3   OH256859   3.552   0.585   0.876  0.7257  0.0626 -0.1922
11815TIP3    H156860   3.465   0.587   0.835  0.1386 -1.3725  0.8693
11815TIP3    H256861   3.534   0.577   0.969  1.9730 -1.2966 -0.0266
11816TIP3   OH256862   6.497   3.564   4.736  0.2469  0.4673  0.1459
11816TIP3    H156863   6.481   3.470   4.728 -2.6123  0.9150 -0.4747
11816TIP3    H256864   6.592   3.571   4.747  0.3484 -2.6639  3.0250
11817TIP3   OH256865   4.656   3.930  12.537 -0.0205  0.0048 -0.2276
11817TIP3    H156866   4.717   3.980  12.482  1.3547 -0.1822  1.0759
11817TIP3    H256867   4.697   3.927  12.623 -1.6462 -0.5833  0.5738
11818TIP3   OH256868   2.131   5.426  16.938 -0.3723 -0.4378  0.5104
11818TIP3    H156869   2.182   5.377  16.873  0.3054 -1.4607  1.7759
11818TIP3    H256870   2.197   5.472  16.990 -0.7966 -0.8968  1.4716
11819TIP3   OH256871   4.209   6.265   3.212  0.0007  0.1585 -0.0270
11819TIP3    H156872   4.163   6.317   3.277 -0.4833 -1.4387  0.9610
11819TIP3    H256873   4.282   6.226   3.259 -0.0612 -0.6141 -0.5466
11820TIP3   OH256874   0.331   5.456  15.078 -0.0393  0.2919 -0.3313
11820TIP3    H156875   0.382   5.396  15.023 -0.5310 -0.0151 -0.4576
11820TIP3    H256876   0.324   5.536  15.026  0.4838  0.4085 -0.2273
11821TIP3   OH256877   5.086   3.502  13.824  0.4417 -0.6758  0.5273
11821TIP3    H156878   5.036   3.520  13.904 -2.7666 -2.3288 -0.9199
11821TIP3    H256879   5.117   3.412  13.836 -1.0171 -1.3497 -0.4387
11822TIP3   OH256880   5.227   4.588   0.158 -0.4437 -0.2919 -0.1706
11822TIP3    H156881   5.145   4.541   0.147 -1.5430  1.6008 -0.4058
11822TIP3    H256882   5.248   4.622   0.071 -0.1844  0.4487  0.1713
11823TIP3   OH256883   2.244   0.114   0.255  0.5855  0.1164 -0.2913
11823TIP3    H156884   2.186   0.190   0.246  0.1357  0.1068  1.9234
11823TIP3    H256885   2.198   0.055   0.315  3.5131  0.8766  3.0326
11824TIP3   OH256886   1.873   1.492  14.977 -0.0626  0.5322 -0.0057
11824TIP3    H156887   1.849   1.531  15.061  0.2483  1.3157 -0.2733
11824TIP3    H256888   1.913   1.408  15.000 -1.1791  0.1237  0.5548
11825TIP3   OH256889   5.047   6.408  14.311 -0.0472 -0.1215  0.3249
11825TIP3    H156890   5.016   6.322  14.339 -1.0372  0.4321  0.9957
11825TIP3    H256891   5.119   6.429  14.371 -0.3430 -0.1292  0.6812
11826TIP3   OH256892   0.724   1.641   4.889 -0.1898  0.0096 -0.0223
11826TIP3    H156893   0.715   1.562   4.835 -1.0069  0.5416 -0.6878
11826TIP3    H256894   0.634   1.662   4.916  0.2475 -0.6267  2.1513
11827TIP3   OH256895   1.717   0.193   5.843  0.1078 -0.4004 -0.1329
11827TIP3    H156896   1.763   0.145   5.911 -0.5477 -2.2688 -0.9282
11827TIP3    H256897   1.666   0.259   5.890  0.8432 -0.6238  1.0235
11828TIP3   OH256898   6.185   5.703  16.692 -0.0773 -0.3610 -0.5266
11828TIP3    H156899   6.196   5.798  16.682 -0.5499 -0.1016  1.0608
11828TIP3    H256900   6.106   5.682  16.643 -0.5706  0.2634 -0.0155
11829TIP3   OH256901   0.816   3.664  14.682  0.3890  0.2578  0.4216
11829TIP3    H156902   0.766   3.715  14.745  0.2597 -1.2152  1.5555
11829TIP3    H256903   0.905   3.699  14.689  0.1563  0.8177  0.6422
11830TIP3   OH256904   5.149   3.173   0.529  0.2884  0.3027 -0.0269
11830TIP3    H156905   5.082   3.198   0.465 -0.3488  0.6159  0.7460
11830TIP3    H256906   5.188   3.094   0.493  0.8033  1.1622 -1.4189
11831TIP3   OH256907   4.149   3.150  13.140 -0.7545  0.0292  0.0515
11831TIP3    H156908   4.132   3.227  13.194 -0.5209  1.4231 -1.7697
11831TIP3    H256909   4.229   3.112  13.177 -0.9328  0.5714  1.0288
11832TIP3   OH256910   5.842   3.117   4.326 -0.2148 -0.0261 -0.3354
11832TIP3    H156911   5.818   3.170   4.402 -0.0187 -0.4623  0.0359
11832TIP3    H256912   5.896   3.175   4.272 -0.9559  0.5178 -0.5011
11833TIP3   OH256913   3.937   0.196   2.848 -0.2284 -0.5981 -0.0403
11833TIP3    H156914   3.909   0.105   2.836  0.9451 -1.3187  2.1607
11833TIP3    H256915   3.973   0.198   2.937 -0.4307  2.0919  0.0496
11834TIP3   OH256916   1.530   3.429  12.534 -0.1799  0.5634  0.2148
11834TIP3    H156917   1.524   3.434  12.629 -1.2717  0.7303  0.1542
11834TIP3    H256918   1.575   3.347  12.517 -0.6613  0.1519  0.8744
11835TIP3   OH256919   1.121   5.441   6.380 -0.2067 -0.2503  0.1687
11835TIP3    H156920   1.115   5.402   6.467 -2.6083  1.0950  0.6825
11835TIP3    H256921   1.088   5.530   6.391 -0.6167 -0.0656 -2.1275
11836TIP3   OH256922   2.719   2.247  13.096  0.2834 -0.2769  0.5268
11836TIP3    H156923   2.768   2.229  13.016  1.2842 -0.5766  1.1879
11836TIP3    H256924   2.693   2.161  13.128  1.5556 -0.3341  1.5203
11837TIP3   OH256925   2.474   1.785  15.216  0.0990 -0.2090 -0.0488
11837TIP3    H156926   2.568   1.803  15.212  0.4711 -1.9181  0.3210
11837TIP3    H256927   2.442   1.843  15.285  1.0504 -0.2475  0.4428
11838TIP3   OH256928   1.163   6.663   1.845 -0.2844 -0.3416 -0.3425
11838TIP3    H156929   1.167   6.758   1.833 -0.6911 -0.4220 -1.2055
11838TIP3    H256930   1.074   6.640   1.821  0.5894 -1.2971 -3.0078
11839TIP3   OH256931   2.751   0.398   1.969 -0.1113  0.2083 -0.0691
11839TIP3    H156932   2.793   0.445   1.897  0.1833  0.7547  0.4484
11839TIP3    H256933   2.710   0.467   2.021  1.6857  0.0920  1.6060
11840TIP3   OH256934   0.202   6.310   3.250 -0.0022 -0.2813 -0.7659
11840TIP3    H156935   0.273   6.288   3.190  0.9064 -0.6315  0.3830
11840TIP3    H256936   0.189   6.230   3.301 -0.0214  0.3029  0.1858
11841TIP3   OH256937   3.125   4.893   0.907 -0.5224 -0.4318  0.0866
11841TIP3    H156938   3.212   4.857   0.926 -0.3607  0.2424  0.6684
11841TIP3    H256939   3.142   4.983   0.881 -1.0219 -0.4093 -0.1715
11842TIP3   OH256940   6.064   2.356   6.528 -0.0725 -0.4443  0.3199
11842TIP3    H156941   6.109   2.285   6.481 -1.7413 -0.9325 -0.6008
11842TIP3    H256942   6.095   2.436   6.486 -0.7767 -0.8235 -0.9623
11843TIP3   OH256943   1.655   5.565  16.958 -0.1850  0.3922 -0.7143
11843TIP3    H156944   1.606   5.484  16.946  0.6059 -0.4581  1.2927
11843TIP3    H256945   1.676   5.567  17.051 -1.5808  3.7772 -0.3387
11844TIP3   OH256946   4.474   0.806   2.288 -0.3572  0.0750  0.0248
11844TIP3    H156947   4.544   0.742   2.275 -1.9423 -2.0901  1.4536
11844TIP3    H256948   4.517   0.880   2.332  1.1709 -0.8027  0.0840
11845TIP3   OH256949   0.808   1.517  16.942  0.2907  0.2102 -0.5370
11845TIP3    H156950   0.875   1.586  16.941  1.4692 -0.9043 -0.6673
11845TIP3    H256951   0.725   1.565  16.951  1.1828  1.5691  1.2309
11846TIP3   OH256952   1.524   4.999   6.239  0.0620 -0.2024 -0.1134
11846TIP3    H156953   1.526   5.028   6.148 -5.0238 -2.2583 -1.2203
11846TIP3    H256954   1.562   4.912   6.238  0.8171  0.1186 -0.0408
11847TIP3   OH256955   2.637   0.847   4.757 -0.6378 -0.4031  0.2489
11847TIP3    H156956   2.663   0.819   4.845 -1.0264  0.4299  0.6422
11847TIP3    H256957   2.578   0.920   4.772 -0.5758 -0.1415 -0.7178
11848TIP3   OH256958   6.538   3.445   0.612  0.7192  0.0839 -0.0108
11848TIP3    H156959   6.534   3.380   0.543 -0.0957  0.0412  0.0633
11848TIP3    H256960   6.599   3.409   0.676  1.2313 -0.0225 -0.5494
11849TIP3   OH256961   3.788   6.398   2.263  0.1496  0.1505  0.8659
11849TIP3    H156962   3.847   6.332   2.299  2.2573  2.6128  2.3097
11849TIP3    H256963   3.726   6.416   2.334 -0.4385 -0.2653  0.4668
11850TIP3   OH256964   2.670   4.296   3.914  0.3865  0.2716 -0.2676
11850TIP3    H156965   2.605   4.333   3.973 -0.9245  1.3557 -2.2836
11850TIP3    H256966   2.754   4.319   3.954 -0.4480  1.6925  0.7565
11851TIP3   OH256967   5.751   4.609   0.744  0.1678 -0.7512  0.2747
11851TIP3    H156968   5.839   4.628   0.712 -0.2411 -1.1420 -1.1454
11851TIP3    H256969   5.760   4.527   0.792  0.6484 -0.5478  0.5438
11852TIP3   OH256970   4.067   6.272  15.066  0.4185 -0.8253 -0.1225
11852TIP3    H156971   4.096   6.184  15.043  0.0028 -0.4891 -2.1395
11852TIP3    H256972   4.138   6.329  15.038  0.8313 -0.4952  1.4820
11853TIP3   OH256973   1.465   6.027  15.468 -0.0613  0.2512  0.5845
11853TIP3    H156974   1.444   6.077  15.389  0.8498 -3.3579 -2.2250
11853TIP3    H256975   1.559   6.038  15.479 -0.0274 -0.0394  0.5808
11854TIP3   OH256976   5.239   5.840   6.615 -0.4786 -0.0451 -0.0658
11854TIP3    H156977   5.232   5.747   6.632 -1.5999  0.3485  1.9028
11854TIP3    H256978   5.332   5.860   6.620 -0.3317 -0.8734  0.5290
11855TIP3   OH256979   2.583   3.951   5.870  0.0994 -0.3534  0.0581
11855TIP3    H156980   2.515   3.989   5.815  2.2635  1.4254 -1.6024
11855TIP3    H256981   2.587   3.859   5.844 -1.2791 -0.3716 -0.1698
11856TIP3   OH256982   1.111   0.235  14.833 -0.5194 -0.0582  0.3255
11856TIP3    H156983   1.175   0.226  14.762 -0.8647 -0.4199  0.0491
11856TIP3    H256984   1.106   0.329  14.850  0.8526 -0.1002  1.0739
11857TIP3   OH256985   1.110   0.413  14.477 -0.7139 -0.2369  0.5310
11857TIP3    H156986   1.164   0.411  14.398  2.3360 -0.7555  2.4504
11857TIP3    H256987   1.069   0.499  14.476  0.5808  0.4110 -0.8077
11858TIP3   OH256988   3.898   4.087   4.033 -0.5067 -0.1377  0.4800
11858TIP3    H156989   3.871   4.165   4.081 -1.7754 -1.7876  2.6762
11858TIP3    H256990   3.989   4.073   4.059 -0.9007 -0.4953  1.7471
11859TIP3   OH256991   6.463   1.697  13.400  0.6899  0.0194  0.7080
11859TIP3    H156992   6.492   1.606  13.410  0.4186 -0.2681 -0.7671
11859TIP3    H256993   6.542   1.749  13.416  1.5390 -0.6393 -1.0607
11860TIP3   OH256994   1.087   2.937   2.341  0.4292 -0.4346  0.4024
11860TIP3    H156995   1.138   2.883   2.281  1.9842  0.4351  0.8803
11860TIP3    H256996   1.048   3.004   2.284  2.0034  0.4654  0.3197
11861TIP3   OH256997   2.457   5.852   3.447  0.1185 -0.0789 -0.3061
11861TIP3    H156998   2.526   5.918   3.446  1.4916 -1.4321  0.4420
11861TIP3    H256999   2.435   5.838   3.354  0.0119  1.1622 -0.4881
11862TIP3   OH257000   2.775   5.915  16.299 -0.1452  0.2571 -0.0794
11862TIP3    H157001   2.846   5.884  16.355 -0.8125  0.0086  0.6274
11862TIP3    H257002   2.715   5.842  16.293  0.3559 -0.0544 -1.8806
11863TIP3   OH257003   3.736   1.816   1.770  0.3395 -0.0241 -0.5104
11863TIP3    H157004   3.786   1.896   1.754 -0.1588  0.9245  2.2242
11863TIP3    H257005   3.645   1.841   1.755  0.0725  0.2973  1.4457
11864TIP3   OH257006   0.772   2.156  11.833  0.0925  0.4800 -0.3900
11864TIP3    H157007   0.737   2.146  11.922  0.7092  0.6226 -0.1279
11864TIP3    H257008   0.867   2.160  11.845  0.1086  2.0490 -0.9020
11865TIP3   OH257009   2.871   5.754   5.670 -0.2751 -0.1382  0.0768
11865TIP3    H157010   2.870   5.741   5.575  1.2709  3.3861 -0.5867
11865TIP3    H257011   2.956   5.719   5.697  0.8107  1.8671 -0.5162
11866TIP3   OH257012   2.541   5.775   2.298  0.1619  0.2151 -0.7876
11866TIP3    H157013   2.455   5.752   2.264  0.1427 -0.0007 -0.5925
11866TIP3    H257014   2.582   5.691   2.320 -0.1969  0.3837  0.6386
11867TIP3   OH257015   2.325   2.323   4.501 -0.1063  0.6521  0.0020
11867TIP3    H157016   2.349   2.241   4.543 -1.2302 -0.2689 -1.1079
11867TIP3    H257017   2.404   2.377   4.507  1.2649 -1.1567 -0.8204
11868TIP3   OH257018   5.673   5.744  16.590 -0.3017 -0.2227 -0.5355
11868TIP3    H157019   5.607   5.735  16.658 -0.7112 -1.2530 -1.0426
11868TIP3    H257020   5.642   5.688  16.519  0.6259  0.0373 -1.1641
11869TIP3   OH257021   3.989   4.362   4.991 -0.1495  0.0333  0.0546
11869TIP3    H157022   4.020   4.312   4.916 -0.6212 -0.1149 -0.0471
11869TIP3    H257023   4.026   4.450   4.978 -1.6317  0.5053 -1.3005
11870TIP3   OH257024   0.036   3.303   0.421 -0.2731 -0.1131 -0.0552
11870TIP3    H157025   0.086   3.325   0.342 -0.9486  0.2021 -0.3997
11870TIP3    H257026  -0.055   3.321   0.398 -0.3050  1.8594  1.4352
11871TIP3   OH257027   6.190   2.716   0.943  0.2536 -0.2185  0.0066
11871TIP3    H157028   6.172   2.795   0.993 -0.3143 -0.5671  0.3602
11871TIP3    H257029   6.256   2.743   0.879 -1.9804  1.2942 -1.8076
11872TIP3   OH257030   4.107   1.982   0.975  0.2294  0.4527 -0.4694
11872TIP3    H157031   4.169   1.930   0.924  0.3598  1.1394 -1.0230
11872TIP3    H257032   4.024   1.974   0.928 -0.0949 -0.4231  0.2420
11873TIP3   OH257033   6.088   3.280   2.859  0.2247 -0.1488 -0.1582
11873TIP3    H157034   6.142   3.255   2.935  0.7754  0.6157 -0.2893
11873TIP3    H257035   6.107   3.373   2.846 -0.5019 -0.0771 -0.7246
11874TIP3   OH257036   2.753   2.090   3.897 -0.3164 -0.0209  0.4762
11874TIP3    H157037   2.825   2.055   3.950  0.6459  0.5941 -0.3898
11874TIP3    H257038   2.789   2.096   3.809 -0.3221  3.3045  0.5915
11875TIP3   OH257039   5.719   2.792   3.001  0.1026  0.2094 -0.5589
11875TIP3    H157040   5.729   2.699   3.019 -1.5613 -0.2208 -1.6508
11875TIP3    H257041   5.799   2.817   2.954  0.3113 -0.8015 -0.7497
11876TIP3   OH257042   4.031   2.130   3.509 -0.2932 -0.1630 -0.0438
11876TIP3    H157043   3.941   2.163   3.501 -0.0086  0.8549  0.8053
11876TIP3    H257044   4.086   2.207   3.496  0.4111 -0.4657  1.0606
11877TIP3   OH257045   3.981   3.649   5.047  0.1030  0.0548 -0.1856
11877TIP3    H157046   3.896   3.689   5.066 -1.1577 -3.0743  1.4437
11877TIP3    H257047   4.033   3.664   5.126 -0.0264 -0.6550  0.0359
11878TIP3   OH257048   5.419   2.137   4.174  0.0191 -0.5476  0.1073
11878TIP3    H157049   5.486   2.105   4.115  1.4364 -1.7160  2.2066
11878TIP3    H257050   5.393   2.060   4.225  0.1850  0.7015  2.2029
11879TIP3   OH257051   6.119   5.717  16.293  0.4807 -0.1098 -0.1955
11879TIP3    H157052   6.061   5.682  16.360  1.1256 -2.2231 -0.6729
11879TIP3    H257053   6.205   5.679  16.313  0.9914  0.3752 -1.3748
11880TIP3   OH257054   1.186   1.804  15.777  0.2750  0.3860  0.2985
11880TIP3    H157055   1.275   1.836  15.763  0.2253  0.0138 -1.0565
11880TIP3    H257056   1.139   1.827  15.696 -0.1147 -1.8463 -0.1923
11881TIP3   OH257057   4.853   5.463   5.775 -0.2417 -0.2749 -0.5054
11881TIP3    H157058   4.795   5.387   5.782 -0.4789 -0.0946 -0.5187
11881TIP3    H257059   4.826   5.505   5.693 -0.5659  0.2063 -0.1531
11882TIP3   OH257060   4.275   6.774  14.075  0.1791 -0.4957 -0.4334
11882TIP3    H157061   4.203   6.797  14.133  0.5015 -0.1390 -0.1709
11882TIP3    H257062   4.353   6.808  14.119  0.3136  0.7545 -1.5988
11883TIP3   OH257063   0.525   1.045  14.312 -0.1263  0.3831  0.5695
11883TIP3    H157064   0.620   1.051  14.302 -0.2768  1.2869 -0.4695
11883TIP3    H257065   0.513   1.005  14.398  1.2047 -2.8171 -0.5979
11884TIP3   OH257066   4.724   4.044   1.416 -0.2698 -0.1431 -0.4775
11884TIP3    H157067   4.647   4.048   1.360  0.2196  0.4085 -1.1325
11884TIP3    H257068   4.778   4.117   1.387 -0.0588  0.2326  0.8032
11885TIP3   OH257069   4.945   6.095   3.082  0.0688 -0.0927  0.0454
11885TIP3    H157070   4.950   6.075   3.176 -2.3075 -1.0101  0.0327
11885TIP3    H257071   4.914   6.185   3.078  0.9428  0.2272  0.0986
11886TIP3   OH257072   1.672   0.029  13.021  0.4546  0.1373  0.1824
11886TIP3    H157073   1.622   0.090  13.075 -0.7848 -1.1906  0.6226
11886TIP3    H257074   1.685   0.075  12.938 -1.6018  0.5689  0.0288
11887TIP3   OH257075   1.583   5.307   0.203  0.6959  0.5962 -0.0275
11887TIP3    H157076   1.584   5.213   0.187  3.8288  0.5178 -0.0466
11887TIP3    H257077   1.507   5.321   0.260 -0.8438 -1.6305 -1.3943
11888TIP3   OH257078   6.097   1.803  11.638 -0.0004 -0.7626 -0.2714
11888TIP3    H157079   6.126   1.859  11.710  0.1280  0.2978 -1.1210
11888TIP3    H257080   6.001   1.806  11.642  0.0052 -1.1499  0.1848
11889TIP3   OH257081   5.688   6.648   2.603  0.1435 -0.7419 -0.2709
11889TIP3    H157082   5.778   6.662   2.575 -0.4785 -0.9479 -2.5902
11889TIP3    H257083   5.642   6.729   2.579 -0.5293 -1.0943 -0.2070
11890TIP3   OH257084   6.684   4.166  13.947 -0.4048  0.0346 -0.0859
11890TIP3    H157085   6.619   4.097  13.961  0.0436 -0.5725 -0.9475
11890TIP3    H257086   6.710   4.192  14.036 -2.4906  0.9573  0.3217
11891TIP3   OH257087   4.163   5.181  16.836 -0.3841 -0.0103  0.3545
11891TIP3    H157088   4.220   5.234  16.892 -0.3016  1.1464 -0.7733
11891TIP3    H257089   4.196   5.092  16.846  2.2025  0.7105 -0.8712
11892TIP3   OH257090   4.217   5.279  13.234 -0.0139 -0.0071  0.4660
11892TIP3    H157091   4.283   5.330  13.188  1.8113 -0.6060  2.2681
11892TIP3    H257092   4.257   5.193  13.245 -0.8055 -0.1977  2.1885
11893TIP3   OH257093   5.263   1.751   0.365  0.1581 -0.5139 -0.1455
11893TIP3    H157094   5.329   1.686   0.343  0.4996 -0.1460 -0.2211
11893TIP3    H257095   5.281   1.825   0.306 -0.2226 -0.3517 -0.0626
11894TIP3   OH257096   2.690   1.744  12.467  0.8600  0.1459 -0.4068
11894TIP3    H157097   2.762   1.703  12.419 -0.7966 -0.8667 -2.1788
11894TIP3    H257098   2.620   1.753  12.402 -0.4452  1.5947  1.0964
11895TIP3   OH257099   4.166   4.968   5.450  0.0526 -0.2717 -0.4391
11895TIP3    H157100   4.120   4.890   5.417 -0.0290 -0.2359 -0.4096
11895TIP3    H257101   4.122   4.989   5.532  1.3571 -1.3817  0.5795
11896TIP3   OH257102   1.012   0.096   5.923 -0.1225 -0.0258  0.0702
11896TIP3    H157103   1.024   0.001   5.929 -1.7155 -0.1529  3.3555
11896TIP3    H257104   1.098   0.132   5.942 -0.0883 -0.8638  1.7031
11897TIP3   OH257105   0.598   2.999   4.884 -0.1931 -0.2834  0.3611
11897TIP3    H157106   0.636   2.960   4.963  0.4539  2.9339  1.7828
11897TIP3    H257107   0.505   3.009   4.905 -0.8339 -2.8611 -0.8686
11898TIP3   OH257108   1.028   4.887   2.575  0.0370  0.2253  0.3110
11898TIP3    H157109   1.116   4.896   2.610  0.0102 -1.2064  0.8236
11898TIP3    H257110   1.037   4.824   2.503 -0.7282 -0.8306  1.1040
11899TIP3   OH257111   2.428   1.990  17.064 -0.4098  0.2687  0.1938
11899TIP3    H157112   2.333   1.981  17.053 -0.1978 -0.9089 -0.9571
11899TIP3    H257113   2.454   1.910  17.110  0.1044  0.3048 -0.0342
11900TIP3   OH257114   6.024   5.275   2.828  0.2796 -0.0825 -0.2971
11900TIP3    H157115   5.945   5.220   2.825 -0.0495  0.3213  0.6232
11900TIP3    H257116   6.058   5.263   2.916  1.8858 -1.0835 -0.9909
11901TIP3   OH257117   1.940   0.534  14.972  0.9284 -0.0791  0.0036
11901TIP3    H157118   1.926   0.441  14.950 -0.6458 -0.5241  2.5110
11901TIP3    H257119   1.903   0.581  14.897  1.7046 -1.4463 -1.3076
11902TIP3   OH257120   1.460   3.664  11.654 -0.1799  0.0376 -0.0840
11902TIP3    H157121   1.539   3.610  11.653 -0.2572 -0.0737 -0.7598
11902TIP3    H257122   1.490   3.751  11.627  0.3658  0.9917  3.1337
11903TIP3   OH257123   3.443   4.574  16.778  0.3049  0.2392 -0.3671
11903TIP3    H157124   3.362   4.618  16.753  0.4319  0.9110  0.3731
11903TIP3    H257125   3.423   4.480  16.770 -0.9169  0.3645  0.9317
11904TIP3   OH257126   1.392   5.448   0.789 -0.0969 -0.7239 -0.4930
11904TIP3    H157127   1.461   5.382   0.779  0.1665 -0.4736 -0.3339
11904TIP3    H257128   1.337   5.436   0.712  0.7175 -0.2332 -1.1717
11905TIP3   OH257129   5.916   6.735  16.733 -0.2599  0.3559 -0.1466
11905TIP3    H157130   5.960   6.754  16.650 -0.9314 -0.9391 -0.8374
11905TIP3    H257131   5.860   6.660  16.713 -0.0878 -0.2763  1.6084
11906TIP3   OH257132   5.461   5.488  17.147 -0.0357  0.4794  0.2506
11906TIP3    H157133   5.378   5.457  17.110 -0.3752 -0.9007  2.0364
11906TIP3    H257134   5.438   5.521  17.234  1.4014 -1.0871  1.3090
11907TIP3   OH257135   6.272   6.750   5.386  0.5351  0.2671  0.2473
11907TIP3    H157136   6.275   6.734   5.480 -3.1151 -0.5935  0.3535
11907TIP3    H257137   6.243   6.841   5.378 -0.8925 -0.1806  0.0457
11908TIP3   OH257138   6.131   3.819  13.588 -0.4649 -0.1398  0.1587
11908TIP3    H157139   6.070   3.888  13.564 -0.3661  0.2691  1.0708
11908TIP3    H257140   6.181   3.802  13.508 -0.4721  0.8637 -0.0650
11909TIP3   OH257141   3.275   3.447  14.150  0.0910 -0.1534 -0.5103
11909TIP3    H157142   3.221   3.495  14.087  0.7933 -0.7907 -1.6542
11909TIP3    H257143   3.243   3.474  14.236 -0.6958  0.9916 -1.1381
11910TIP3   OH257144   6.501   3.974  14.005 -0.2994 -0.0965 -0.4481
11910TIP3    H157145   6.439   3.932  13.945 -1.0249  0.4518 -0.0899
11910TIP3    H257146   6.503   3.917  14.081 -0.2642 -0.1843 -0.5139
11911TIP3   OH257147   6.194   4.070  14.764  0.2988  0.9054  0.1977
11911TIP3    H157148   6.155   4.108  14.685 -1.5169 -1.1008  0.0379
11911TIP3    H257149   6.177   4.136  14.832  0.1243  1.7900 -0.6700
11912TIP3   OH257150   0.935   6.479   4.459 -0.1555 -0.0507 -0.1099
11912TIP3    H157151   0.969   6.568   4.462 -1.6040  0.5286  0.1630
11912TIP3    H257152   0.912   6.459   4.550  2.0133 -1.4982  0.1742
11913TIP3   OH257153   6.246   4.131  17.244 -0.6405  0.4469  0.3491
11913TIP3    H157154   6.261   4.116  17.150 -1.4601 -0.3951  0.3345
11913TIP3    H257155   6.331   4.117  17.284 -0.3995  0.2594 -0.2152
11914TIP3   OH257156   4.533   3.142  13.973  0.2412  0.1505  0.1278
11914TIP3    H157157   4.533   3.116  13.881  2.6304 -0.6357  0.2808
11914TIP3    H257158   4.620   3.178  13.988 -0.5631  1.5624  1.7717
11915TIP3   OH257159   0.164   4.128   1.034  0.3744 -0.9620  0.5366
11915TIP3    H157160   0.209   4.193   0.981  1.1303 -1.2846  0.7642
11915TIP3    H257161   0.146   4.172   1.117  2.0817 -1.4124  1.1920
11916TIP3   OH257162   2.010   4.829  14.581  0.2317  0.0398 -0.0665
11916TIP3    H157163   2.026   4.802  14.491  1.5312 -0.5819  0.3221
11916TIP3    H257164   1.931   4.783  14.606  0.6936 -0.9749 -0.4217
11917TIP3   OH257165   4.891   0.569   3.074  0.4277  0.3283  0.1364
11917TIP3    H157166   4.798   0.555   3.092  0.2773 -0.8735 -1.3794
11917TIP3    H257167   4.895   0.654   3.030 -0.2239 -0.4175 -1.4399
11918TIP3   OH257168   3.241   1.765   5.655  0.0295  0.0153  0.0995
11918TIP3    H157169   3.216   1.674   5.667  0.6165 -0.2148 -0.3736
11918TIP3    H257170   3.179   1.815   5.709 -0.1276 -0.6749  0.5594
11919TIP3   OH257171   4.363   6.673   5.263 -0.1567 -0.7686 -0.9127
11919TIP3    H157172   4.418   6.724   5.322 -0.5355 -0.3034 -0.9565
11919TIP3    H257173   4.332   6.600   5.317 -0.8082 -0.1379 -0.4137
11920TIP3   OH257174   3.046   1.245  13.881 -0.2262 -0.2513 -0.1374
11920TIP3    H157175   3.114   1.182  13.857  0.4538  0.9554 -1.5192
11920TIP3    H257176   2.965   1.194  13.880  0.2972 -1.1024 -1.2557
11921TIP3   OH257177   4.239   6.560  14.311 -0.1633 -0.3776 -0.8950
11921TIP3    H157178   4.316   6.615  14.302  0.4768 -1.1258 -0.1653
11921TIP3    H257179   4.240   6.503  14.234 -0.8510  0.6381 -1.6727
11922TIP3   OH257180   3.860   4.187  13.429 -0.5339 -0.2149 -0.4065
11922TIP3    H157181   3.832   4.097  13.445  2.6577 -1.1724  0.4322
11922TIP3    H257182   3.902   4.214  13.510  0.9081  1.0518 -1.5249
11923TIP3   OH257183   5.350   5.849  14.558  0.4794  0.3497 -0.1354
11923TIP3    H157184   5.396   5.777  14.601  1.0515  0.8466  0.1066
11923TIP3    H257185   5.406   5.872  14.484 -0.1244 -0.0034 -0.7137
11924TIP3   OH257186   4.131   6.120  15.780 -0.5572 -0.2083 -0.3187
11924TIP3    H157187   4.140   6.030  15.810 -1.2905 -0.2509 -0.2183
11924TIP3    H257188   4.196   6.169  15.831 -1.6570 -0.3042  1.2178
11925TIP3   OH257189   2.177   1.363   4.220 -0.1074 -0.0427  0.0016
11925TIP3    H157190   2.186   1.405   4.135 -2.2406  1.8759  0.6305
11925TIP3    H257191   2.259   1.383   4.265  0.7424 -0.4664 -1.2851
11926TIP3   OH257192   3.576   0.317  14.778  0.0881 -0.1016 -0.5362
11926TIP3    H157193   3.509   0.274  14.725  0.2729  0.8622 -1.5864
11926TIP3    H257194   3.536   0.399  14.806  1.0905  0.9288 -1.9450
11927TIP3   OH257195   2.313   4.544   3.867 -0.2452 -0.1583  0.8287
11927TIP3    H157196   2.270   4.505   3.791 -0.4625  0.7490  0.4647
11927TIP3    H257197   2.363   4.473   3.907  0.5080 -0.4678 -0.6225
11928TIP3   OH257198   1.619   2.011  10.992  0.6372  0.3372  0.0789
11928TIP3    H157199   1.668   2.047  10.917 -0.0901 -0.6970 -0.9260
11928TIP3    H257200   1.528   2.035  10.974  0.3116 -0.8998  0.0306
11929TIP3   OH257201   4.340   1.244   1.798  0.1676 -0.2867 -0.5977
11929TIP3    H157202   4.424   1.248   1.753  0.7566  1.1136  0.5128
11929TIP3    H257203   4.341   1.161   1.844  0.9540 -0.2962 -0.6137
11930TIP3   OH257204   2.658   3.450   4.333  0.4716  0.6642  0.2537
11930TIP3    H157205   2.581   3.503   4.312  0.3255  0.1104 -0.6617
11930TIP3    H257206   2.721   3.471   4.265  0.2965 -0.5515 -0.3199
11931TIP3   OH257207   1.571   1.146   4.006 -0.1973  0.3877  0.5281
11931TIP3    H157208   1.497   1.114   4.057 -1.4487  1.0284 -0.8137
11931TIP3    H257209   1.572   1.090   3.928  0.0143  1.1274 -0.0049
11932TIP3   OH257210   3.699   1.814  15.122  0.3844 -0.3893  0.3702
11932TIP3    H157211   3.638   1.836  15.052 -0.6540 -2.5955  0.4865
11932TIP3    H257212   3.786   1.827  15.083 -0.1615  0.1157 -0.7264
11933TIP3   OH257213   0.953   2.856   3.895 -0.0311 -0.2732  0.8050
11933TIP3    H157214   1.033   2.894   3.861 -0.6350  1.1904  0.9380
11933TIP3    H257215   0.896   2.846   3.819  0.0803 -0.8322  0.7881
11934TIP3   OH257216   1.771   6.674   5.523 -0.2443 -0.4499  0.4144
11934TIP3    H157217   1.787   6.765   5.547 -0.4395 -1.0216  3.0622
11934TIP3    H257218   1.739   6.678   5.433 -1.3589  2.1992  0.8313
11935TIP3   OH257219   2.730   1.489  13.618  0.2030  0.2249 -0.1062
11935TIP3    H157220   2.776   1.536  13.688 -0.3157 -0.8694  0.9912
11935TIP3    H257221   2.735   1.549  13.543  0.1460  1.7407  1.0416
11936TIP3   OH257222   6.187   6.011   5.218  0.0868  0.0193 -0.1075
11936TIP3    H157223   6.125   6.015   5.145  0.1891 -0.5898 -0.2378
11936TIP3    H257224   6.217   6.101   5.229  0.3811  0.0578 -1.0888
11937TIP3   OH257225   5.930   1.073  15.762  0.2739  0.1859  0.0673
11937TIP3    H157226   6.013   1.036  15.731  0.3904  0.8946 -0.4889
11937TIP3    H257227   5.950   1.109  15.848 -0.0578 -1.8316  1.0641
11938TIP3   OH257228   5.594   1.414   2.051  0.0027 -0.1766  0.3942
11938TIP3    H157229   5.575   1.374   1.966  0.4300 -1.5745  0.9389
11938TIP3    H257230   5.679   1.379   2.076 -0.8151 -1.0331  2.1227
11939TIP3   OH257231   4.983   6.765   0.829  0.7046 -0.1692  0.3874
11939TIP3    H157232   4.946   6.853   0.820 -0.5064 -0.6299  0.6114
11939TIP3    H257233   5.078   6.777   0.820  0.4453  0.8948 -1.5450
11940TIP3   OH257234   3.022   2.326   4.004 -0.3698 -0.0359 -0.4327
11940TIP3    H157235   3.036   2.338   4.098 -1.5466  2.2059 -0.4712
11940TIP3    H257236   2.927   2.314   3.996 -0.2573 -0.3578 -1.3411
11941TIP3   OH257237   4.031   2.071  12.834 -0.2435  0.0692  0.2381
11941TIP3    H157238   3.988   1.985  12.834  1.3087 -0.7609 -1.3690
11941TIP3    H257239   4.115   2.056  12.791  0.5907  2.1651  1.0129
11942TIP3   OH257240   0.309   4.496  12.918 -0.0733  0.4567 -0.8873
11942TIP3    H157241   0.391   4.454  12.945  0.7290  1.8846 -0.9651
11942TIP3    H257242   0.255   4.425  12.883  1.1350 -0.5144 -0.8356
11943TIP3   OH257243   3.650   4.664   5.085  0.4037  0.1324 -0.5245
11943TIP3    H157244   3.568   4.618   5.101  1.8430 -1.9802  1.4441
11943TIP3    H257245   3.682   4.627   5.003  0.4960 -0.7881 -0.0811
11944TIP3   OH257246   4.180   2.741   4.132  0.1100  0.3570 -0.1337
11944TIP3    H157247   4.101   2.792   4.113  1.1010  2.6311  1.4318
11944TIP3    H257248   4.184   2.737   4.228  0.6772 -1.7915 -0.1916
11945TIP3   OH257249   2.938   6.109  10.930  0.3190 -0.5721 -0.4735
11945TIP3    H157250   2.950   6.022  10.891  2.6321 -0.1634 -0.7995
11945TIP3    H257251   3.026   6.144  10.939 -0.1565  0.0435  3.6781
11946TIP3   OH257252   1.864   2.282   0.453 -0.3416 -0.0955 -0.5335
11946TIP3    H157253   1.772   2.281   0.476 -0.7747 -0.0627 -2.1453
11946TIP3    H257254   1.907   2.229   0.520 -1.7162 -1.2519 -0.5316
11947TIP3   OH257255   3.893   3.914  11.458 -0.2354 -0.7419 -0.0443
11947TIP3    H157256   3.879   3.821  11.472  0.5053 -1.0820 -1.4489
11947TIP3    H257257   3.870   3.929  11.366 -0.3226  0.4608  0.1535
11948TIP3   OH257258   0.178   5.788  14.057  0.4838 -0.3228  0.4262
11948TIP3    H157259   0.259   5.792  14.006  1.1205  1.1608  1.4780
11948TIP3    H257260   0.160   5.695  14.066  1.3723 -0.6560 -0.9013
11949TIP3   OH257261   5.363   1.498   3.705 -0.4845  0.0144  0.3272
11949TIP3    H157262   5.413   1.509   3.624 -0.5055 -1.9577  0.0079
11949TIP3    H257263   5.281   1.544   3.689  0.7056  2.3611  0.4556
11950TIP3   OH257264   2.133   2.812  13.536  0.5355 -0.4340 -0.6347
11950TIP3    H157265   2.168   2.898  13.558  0.2684 -0.0648 -1.6161
11950TIP3    H257266   2.203   2.751  13.559 -0.0641 -0.2018  2.1463
11951TIP3   OH257267   4.527   3.917  12.066 -0.2905  0.2249 -0.5942
11951TIP3    H157268   4.577   3.986  12.110 -0.4997 -0.4551  0.7857
11951TIP3    H257269   4.457   3.963  12.019 -2.6470  0.9125  3.1469
11952TIP3   OH257270   4.513   0.133  11.183 -0.0286 -0.3596  0.0375
11952TIP3    H157271   4.553   0.172  11.261 -0.9254 -0.6161  0.6516
11952TIP3    H257272   4.493   0.043  11.209  1.3021 -1.0130 -1.1032
11953TIP3   OH257273   1.866   6.717   0.370 -0.3363  0.3554  0.0724
11953TIP3    H157274   1.913   6.729   0.287 -0.2520  0.6143  0.1568
11953TIP3    H257275   1.914   6.646   0.414 -0.4747  0.1134 -0.1671
11954TIP3   OH257276   5.101   0.357   1.625  0.4867  0.1079  0.4800
11954TIP3    H157277   5.100   0.414   1.702  1.0277 -0.1326  0.6689
11954TIP3    H257278   5.074   0.272   1.659 -0.6557  0.3152  0.1351
11955TIP3   OH257279   2.977   5.955  13.776 -0.1668  0.1297  0.0817
11955TIP3    H157280   2.889   5.986  13.798  0.7172  2.2458  0.8999
11955TIP3    H257281   3.027   5.965  13.857  0.8304 -1.1198 -0.3444
11956TIP3   OH257282   3.367   2.199  12.072  0.0089  0.2456 -0.4564
11956TIP3    H157283   3.328   2.273  12.118  0.6357  0.6777 -0.5980
11956TIP3    H257284   3.363   2.127  12.135 -0.4162  0.4550 -0.2405
11957TIP3   OH257285   6.382   6.122  16.432  0.5278 -0.5365  0.7410
11957TIP3    H157286   6.361   6.191  16.494  1.9219  0.4858  0.1163
11957TIP3    H257287   6.297   6.081  16.413 -0.0222 -0.4302  2.7421
11958TIP3   OH257288   4.172   3.607   2.915 -0.3329 -0.0726  0.4897
11958TIP3    H157289   4.099   3.552   2.943 -2.0959  0.8593 -1.8835
11958TIP3    H257290   4.243   3.546   2.897 -0.2400 -0.9546  3.3964
11959TIP3   OH257291   3.639   0.591  15.027 -0.0650 -0.3087  0.1062
11959TIP3    H157292   3.704   0.638  15.080 -3.0182  4.2563  0.1402
11959TIP3    H257293   3.674   0.593  14.938  1.1079 -0.6331  0.5351
11960TIP3   OH257294   6.032   6.177   4.667  0.0753  0.2622  0.2115
11960TIP3    H157295   6.074   6.145   4.747  2.9234 -0.5182 -1.4448
11960TIP3    H257296   6.088   6.250   4.639 -0.3062 -0.0989 -1.5613
11961TIP3   OH257297   5.137   5.644   6.419 -0.2533  0.2970 -0.1144
11961TIP3    H157298   5.130   5.612   6.509  1.2245  3.3763  1.2624
11961TIP3    H257299   5.054   5.690   6.403 -0.6454 -0.5243 -0.4638
11962TIP3   OH257300   4.051   5.991  13.830  0.3043  0.3211  0.7118
11962TIP3    H157301   4.053   5.949  13.744 -0.2659 -0.0922  0.8938
11962TIP3    H257302   4.017   6.079  13.812 -3.0699 -0.8221  0.9003
11963TIP3   OH257303   1.961   2.405   1.211 -0.6293  0.1061 -0.4495
11963TIP3    H157304   2.026   2.455   1.262 -0.8710 -2.2087  2.4487
11963TIP3    H257305   1.952   2.323   1.260 -1.7440 -1.9464 -3.7849
11964TIP3   OH257306   1.272   3.955   1.200  0.6071 -0.1434 -0.4280
11964TIP3    H157307   1.333   4.011   1.248 -0.8497  0.4394  0.8504
11964TIP3    H257308   1.206   4.016   1.166 -0.7303 -0.9732  0.5573
11965TIP3   OH257309   6.195   3.237  15.960 -0.3988 -0.1429  0.1864
11965TIP3    H157310   6.147   3.212  15.881 -1.5992  0.5619  0.6624
11965TIP3    H257311   6.193   3.159  16.016 -0.9017 -0.1610  0.1492
11966TIP3   OH257312   6.027   4.328  16.301 -0.3234  0.0809  0.6531
11966TIP3    H157313   5.958   4.277  16.259  0.7583 -2.7059  1.9516
11966TIP3    H257314   5.987   4.361  16.382 -0.0887 -2.0027  1.6866
11967TIP3   OH257315   2.036   2.527   1.795 -0.6049  0.2978  0.5532
11967TIP3    H157316   2.023   2.450   1.850 -0.5254  0.7463  1.2053
11967TIP3    H257317   2.052   2.598   1.856  1.9801  0.3556 -0.0919
11968TIP3   OH257318   5.644   4.313   2.382  0.4047  0.0143 -0.3719
11968TIP3    H157319   5.644   4.408   2.375  0.5825  0.2296  1.7869
11968TIP3    H257320   5.692   4.295   2.463 -0.1653 -1.8759 -0.4004
11969TIP3   OH257321   1.504   3.792  13.572  0.6879 -0.0028  0.6161
11969TIP3    H157322   1.544   3.827  13.652  0.3966  1.0595  0.3194
11969TIP3    H257323   1.424   3.749  13.603 -0.3462  1.8870  0.7877
11970TIP3   OH257324   3.133   4.398  13.056  0.4436  0.0653 -0.5674
11970TIP3    H157325   3.122   4.303  13.044  0.0867 -0.0258  0.4297
11970TIP3    H257326   3.067   4.422  13.120  0.7765  0.9346 -0.5387
11971TIP3   OH257327   4.483   6.343   2.942 -0.1224  0.2696 -0.1370
11971TIP3    H157328   4.493   6.340   3.037  1.5859  1.3318 -0.2593
11971TIP3    H257329   4.435   6.424   2.925  1.2874  1.0946 -0.2831
11972TIP3   OH257330   5.963   5.615  12.906  0.1950 -0.2357 -0.0157
11972TIP3    H157331   5.898   5.598  12.839  0.5150 -1.3467 -0.0807
11972TIP3    H257332   5.918   5.669  12.971  0.3778  2.3147 -1.8831
11973TIP3   OH257333   4.434   4.796   1.426 -0.0043  0.1484  0.0228
11973TIP3    H157334   4.433   4.700   1.425 -0.3693  0.1373  0.8661
11973TIP3    H257335   4.476   4.820   1.343 -2.2391 -0.7132 -1.4511
11974TIP3   OH257336   4.621   3.432  16.480 -0.4435 -0.8077  0.4552
11974TIP3    H157337   4.580   3.469  16.557 -1.3727 -0.9841  0.0507
11974TIP3    H257338   4.599   3.339  16.483 -3.1915 -0.3621 -1.6205
11975TIP3   OH257339   4.732   6.645   3.806  0.0079  0.2976 -0.1154
11975TIP3    H157340   4.725   6.733   3.768 -0.5839 -0.1558 -1.1148
11975TIP3    H257341   4.702   6.587   3.736  1.0720 -0.7677  0.2837
11976TIP3   OH257342   3.899   2.707  16.238 -0.0782 -0.5355  0.3949
11976TIP3    H157343   3.864   2.717  16.327  0.6779 -0.5987  0.7086
11976TIP3    H257344   3.862   2.624  16.208 -2.3301  0.6476 -0.3158
11977TIP3   OH257345   3.048   2.658   4.370  0.7783  0.0822  0.2005
11977TIP3    H157346   3.138   2.628   4.354 -0.0130 -2.3468 -0.0572
11977TIP3    H257347   2.994   2.580   4.360 -1.2406  1.1782  1.7430
11978TIP3   OH257348   5.576   1.691   1.374 -0.4337 -0.7695  0.1669
11978TIP3    H157349   5.533   1.628   1.316 -0.2552 -1.3897  0.6971
11978TIP3    H257350   5.510   1.758   1.390 -0.8924 -1.2236  0.2128
11979TIP3   OH257351   2.482   4.946   2.520 -0.7515  0.2694  0.8502
11979TIP3    H157352   2.514   4.923   2.607  0.1286  0.9425  0.7127
11979TIP3    H257353   2.531   4.889   2.460 -0.9935  0.1565  0.7583
11980TIP3   OH257354   2.428   5.288  12.171 -0.3296  0.1834 -0.1842
11980TIP3    H157355   2.424   5.384  12.168  0.1976  0.2153  0.0620
11980TIP3    H257356   2.378   5.260  12.095  1.7172  0.7155 -1.8353
11981TIP3   OH257357   6.628   5.525   1.863  0.2608 -0.1423 -0.7346
11981TIP3    H157358   6.721   5.540   1.846  0.1406  1.0009 -0.4453
11981TIP3    H257359   6.623   5.434   1.893  1.6264  0.5083  1.7201
11982TIP3   OH257360   2.226   3.771   1.039 -0.4760  0.1513  0.0888
11982TIP3    H157361   2.217   3.679   1.063  5.2434 -1.4385 -2.1848
11982TIP3    H257362   2.302   3.802   1.089 -0.3871  2.6427 -1.4077
11983TIP3   OH257363   6.563   4.741   4.243 -0.0281  0.0078  0.1563
11983TIP3    H157364   6.477   4.771   4.270 -0.3369  1.0093 -1.7298
11983TIP3    H257365   6.563   4.647   4.262 -1.2537  0.1290  0.8489
11984TIP3   OH257366   1.842   2.102   4.249  0.2220  0.7264  0.1632
11984TIP3    H157367   1.910   2.085   4.314  0.2474 -3.1338 -0.6638
11984TIP3    H257368   1.890   2.130   4.171  0.8619 -1.0914 -0.1355
11985TIP3   OH257369   4.672   1.529  12.288  0.0253  0.1698  0.6779
11985TIP3    H157370   4.744   1.570  12.240  0.8160  0.4244  2.0285
11985TIP3    H257371   4.608   1.599  12.301  0.8903  0.7315  2.0538
11986TIP3   OH257372   1.605   1.523   4.353  0.3299  0.3742  0.3664
11986TIP3    H157373   1.546   1.476   4.296  0.7296 -0.4632  0.6323
11986TIP3    H257374   1.631   1.601   4.303  0.2031 -0.0352 -0.3372
11987TIP3   OH257375   4.224   2.934  12.570 -0.3714  0.0614  0.2895
11987TIP3    H157376   4.146   2.982  12.541 -0.3034  1.3528  2.0978
11987TIP3    H257377   4.288   3.002  12.590  0.6275 -0.9186  0.4935
11988TIP3   OH257378   2.066   1.526   5.030 -0.1404  0.1457  0.2203
11988TIP3    H157379   2.012   1.450   5.052  0.7787 -0.6874 -0.3337
11988TIP3    H257380   2.003   1.597   5.016 -1.1026 -0.8478 -0.6050
11989TIP3   OH257381   0.088   5.524  14.087  0.0459 -0.8973  0.1413
11989TIP3    H157382   0.040   5.496  14.165 -1.2019  1.5452  0.3308
11989TIP3    H257383   0.047   5.475  14.015 -0.9335 -0.8317  0.6353
11990TIP3   OH257384   5.402   1.579   0.117  0.6651  0.4374 -1.0105
11990TIP3    H157385   5.478   1.636   0.131  0.6243  0.1397  0.6307
11990TIP3    H257386   5.439   1.491   0.113  0.4718  0.3429 -0.7530
11991TIP3   OH257387   6.613   6.338   0.980  0.5469  0.8911  0.2078
11991TIP3    H157388   6.639   6.266   1.038 -2.7746 -0.3993  0.2912
11991TIP3    H257389   6.616   6.300   0.892 -1.3993  0.4895  0.2689
11992TIP3   OH257390   6.031   5.094  16.566  0.1223  0.0462  0.4396
11992TIP3    H157391   6.086   5.097  16.645  1.2145 -2.7210 -0.1170
11992TIP3    H257392   5.967   5.025  16.584 -1.0193  0.8723 -0.3076
11993TIP3   OH257393   1.290   0.115   1.951 -0.6338 -0.2181  0.3417
11993TIP3    H157394   1.383   0.139   1.955 -0.6476  0.6270 -2.2755
11993TIP3    H257395   1.267   0.091   2.041  2.4197 -1.7060  0.8578
11994TIP3   OH257396   1.017   5.082   5.360 -0.6777  0.5804 -0.2376
11994TIP3    H157397   0.989   5.173   5.354  0.7593  0.9819 -1.6998
11994TIP3    H257398   0.982   5.041   5.280 -1.3561 -0.1813  0.4309
11995TIP3   OH257399   0.670   6.625   1.195  0.1820 -0.1559 -0.0206
11995TIP3    H157400   0.719   6.692   1.147 -0.1580 -0.0783 -0.2623
11995TIP3    H257401   0.738   6.566   1.228  0.5020  0.4257  0.3825
11996TIP3   OH257402   5.112   1.672   3.632  0.4102 -0.2454 -0.0469
11996TIP3    H157403   5.059   1.709   3.703  0.0105  0.6504 -0.8007
11996TIP3    H257404   5.077   1.711   3.552  0.5470 -1.6061 -0.8001
11997TIP3   OH257405   3.358   1.518  11.738 -0.0730  0.0161  0.5817
11997TIP3    H157406   3.367   1.567  11.656 -1.2703  1.3374  1.1992
11997TIP3    H257407   3.357   1.426  11.711  0.0593  0.4076 -0.8310
11998TIP3   OH257408   3.814   2.559   6.432  0.1916 -0.2437 -0.1826
11998TIP3    H157409   3.740   2.499   6.446 -0.5457  0.3107 -1.5292
11998TIP3    H257410   3.773   2.643   6.413  1.1454 -0.0922 -1.6774
11999TIP3   OH257411   3.877   0.522   0.448 -0.3659  0.1364 -0.2560
11999TIP3    H157412   3.906   0.569   0.370 -0.1102  0.3631 -0.0247
11999TIP3    H257413   3.828   0.447   0.414  2.6650 -1.7958 -0.7486
12000TIP3   OH257414   1.954   5.931   5.163 -0.1750 -0.4273  0.3136
12000TIP3    H157415   1.961   5.852   5.109 -0.0837 -0.0766 -0.1993
12000TIP3    H257416   2.005   5.996   5.116  2.0190 -0.7611  2.0855
12001TIP3   OH257417   4.317   3.139  15.252 -0.0634  0.2647 -0.0602
12001TIP3    H157418   4.321   3.233  15.270  0.5300  0.2526 -0.1186
12001TIP3    H257419   4.247   3.107  15.309 -0.3039  0.7528 -0.0815
12002TIP3   OH257420   1.075   6.226  13.363 -0.7641 -0.6793  0.2451
12002TIP3    H157421   1.083   6.276  13.282  1.9367  0.7882  1.2913
12002TIP3    H257422   0.996   6.260  13.405  0.2433  1.8147  0.2702
12003TIP3   OH257423   4.302   2.909  13.697  0.0809 -0.1172  0.0555
12003TIP3    H157424   4.258   2.941  13.619 -0.3510  0.1421  0.4039
12003TIP3    H257425   4.243   2.843  13.733  0.9665 -1.3558 -0.6714
12004TIP3   OH257426   6.429   0.125   0.706  0.4238 -0.0653 -0.5266
12004TIP3    H157427   6.362   0.193   0.712  1.0698  0.5220  0.1509
12004TIP3    H257428   6.504   0.161   0.752  0.8716 -1.1356 -0.3983
12005TIP3   OH257429   0.421   4.786  13.957 -0.6436 -0.3400 -0.0673
12005TIP3    H157430   0.451   4.848  13.890  0.8606 -2.3512 -1.4107
12005TIP3    H257431   0.328   4.776  13.941 -0.3977 -0.4166 -1.5699
12006TIP3   OH257432   2.800   6.629   3.283  0.8266  0.1471  0.0410
12006TIP3    H157433   2.813   6.722   3.305 -1.7420  0.6843 -0.4342
12006TIP3    H257434   2.773   6.588   3.365  4.8519 -0.9683  1.0293
12007TIP3   OH257435   0.701   0.517  16.866  0.0110 -0.2907 -0.3504
12007TIP3    H157436   0.725   0.512  16.774 -0.3016 -3.2574 -0.3749
12007TIP3    H257437   0.612   0.483  16.870 -0.6617  1.4801  0.8708
12008TIP3   OH257438   3.829   1.548   1.587  0.2498  0.3822  0.2642
12008TIP3    H157439   3.751   1.495   1.571  0.6058 -0.4185  1.0538
12008TIP3    H257440   3.796   1.635   1.606 -0.4058  0.2240 -0.1257
12009TIP3   OH257441   1.698   3.210  12.474 -0.0869  0.2419  0.3474
12009TIP3    H157442   1.784   3.227  12.513 -0.3474 -2.0067  2.0877
12009TIP3    H257443   1.715   3.205  12.380  1.5146  0.7038  0.5786
12010TIP3   OH257444   0.756   5.037  16.765  0.2814  0.5021 -0.1923
12010TIP3    H157445   0.681   4.982  16.789  1.2907 -0.1980  1.5197
12010TIP3    H257446   0.742   5.119  16.811  0.9992  0.0301  0.9181
12011TIP3   OH257447   4.614   3.559  13.563  0.3949  0.0535 -0.2086
12011TIP3    H157448   4.556   3.630  13.535  0.4873 -0.1564 -0.9618
12011TIP3    H257449   4.701   3.599  13.566  0.1822  0.4635  1.2786
12012TIP3   OH257450   2.404   2.105  13.899 -0.5811  0.2532  0.1191
12012TIP3    H157451   2.473   2.042  13.879 -1.5136 -0.4572 -0.9783
12012TIP3    H257452   2.392   2.098  13.994 -0.5047 -1.0735  0.0506
12013TIP3   OH257453   5.117   6.060   6.454  0.4954 -0.1778  0.0673
12013TIP3    H157454   5.115   5.983   6.510 -0.3641  0.3439  0.7756
12013TIP3    H257455   5.192   6.046   6.397  0.8160 -1.1674  0.7087
12014TIP3   OH257456   1.218   0.894  14.685 -0.3638 -0.1601  0.0596
12014TIP3    H157457   1.267   0.924  14.761 -0.7982 -1.5245  0.9223
12014TIP3    H257458   1.134   0.940  14.690 -0.1979  0.1371  0.1190
12015TIP3   OH257459   3.160   4.263   1.325  0.2185  0.1271 -0.1440
12015TIP3    H157460   3.165   4.355   1.351 -2.1997 -0.1429  1.5730
12015TIP3    H257461   3.248   4.229   1.341  1.1487  2.0867 -0.7630
12016TIP3   OH257462   5.394   0.321   5.184 -0.1654  0.1593  0.1931
12016TIP3    H157463   5.378   0.414   5.199 -1.0314  0.2764 -1.2505
12016TIP3    H257464   5.310   0.279   5.201  0.0196 -0.2556  0.0912
12017TIP3   OH257465   1.441   4.334   2.562 -0.1516 -0.4202 -0.2570
12017TIP3    H157466   1.401   4.250   2.541 -2.2330  0.5367 -0.4119
12017TIP3    H257467   1.480   4.322   2.649 -0.8804 -1.4091 -0.0518
12018TIP3   OH257468   4.934   2.457  10.236  0.3847  0.0496  0.0613
12018TIP3    H157469   4.844   2.469  10.204  0.1611 -2.8568 -0.6526
12018TIP3    H257470   4.931   2.489  10.326 -1.3782  0.0345  0.0507
12019TIP3   OH257471   2.680   5.995   3.501 -0.1548 -0.3509 -0.0473
12019TIP3    H157472   2.714   6.065   3.557  0.1086 -1.7818  1.6842
12019TIP3    H257473   2.759   5.948   3.473 -0.4255 -1.2625  0.6607
12020TIP3   OH257474   0.636   2.520  15.379  0.1377  0.1021 -0.5722
12020TIP3    H157475   0.634   2.425  15.392  1.9180  0.2077  0.8536
12020TIP3    H257476   0.724   2.546  15.405 -0.1454  2.1056 -1.4168
12021TIP3   OH257477   1.784   2.543  14.375  0.2073 -0.5393 -0.5762
12021TIP3    H157478   1.861   2.574  14.328  0.5456  0.0157  0.3123
12021TIP3    H257479   1.781   2.449  14.357  0.0783 -0.2785 -2.0219
12022TIP3   OH257480   1.738   6.419  17.079  0.0986  0.2396  0.1545
12022TIP3    H157481   1.771   6.374  17.157 -0.2039  2.0766  1.3980
12022TIP3    H257482   1.699   6.500  17.112 -3.3659 -0.5720 -1.4902
12023TIP3   OH257483   0.079   2.789  12.631  0.3001 -0.2318 -0.2248
12023TIP3    H157484   0.149   2.843  12.597  1.6562 -1.7559  0.0343
12023TIP3    H257485   0.063   2.823  12.719 -1.6017  2.1994 -1.4065
12024TIP3   OH257486   0.485   4.329  14.237 -0.0703 -0.1959  0.4332
12024TIP3    H157487   0.429   4.324  14.315  0.1615  1.0547  0.7001
12024TIP3    H257488   0.464   4.413  14.197  2.3074  0.7981  1.0964
12025TIP3   OH257489   0.797   2.322   1.180 -0.0063  0.6396 -0.1653
12025TIP3    H157490   0.892   2.319   1.195 -0.1434  1.3097  1.0249
12025TIP3    H257491   0.779   2.246   1.126  0.7845 -1.4710  2.2994
12026TIP3   OH257492   4.535   1.669  10.691  0.2185 -0.1277 -0.5572
12026TIP3    H157493   4.514   1.754  10.652  1.4257 -0.3706 -1.8147
12026TIP3    H257494   4.478   1.663  10.768 -0.1377  1.6589 -0.6408
12027TIP3   OH257495   1.304   1.722  11.913 -0.3291  0.0238 -0.1646
12027TIP3    H157496   1.347   1.807  11.904  0.0415 -0.1671 -0.2279
12027TIP3    H257497   1.211   1.742  11.917 -0.1814  0.5648  1.3549
12028TIP3   OH257498   3.791   1.439   4.170  0.2648 -0.1153 -0.1669
12028TIP3    H157499   3.712   1.387   4.157 -0.3693  0.5717  0.8549
12028TIP3    H257500   3.766   1.528   4.143 -0.0877  0.6383  2.4092
12029TIP3   OH257501   5.781   5.895  14.331 -0.9127  0.1938  0.3055
12029TIP3    H157502   5.807   5.843  14.407  0.6743  1.5143  0.7008
12029TIP3    H257503   5.831   5.858  14.259  1.1262  1.8113  0.7999
12030TIP3   OH257504   6.271   0.732   0.841 -0.2603  0.0877  0.4846
12030TIP3    H157505   6.246   0.672   0.771  0.2187 -1.2656  1.4336
12030TIP3    H257506   6.270   0.678   0.920  0.3179  1.3119  1.3525
12031TIP3   OH257507   4.097   3.703  11.546 -0.1315  0.4519 -0.4463
12031TIP3    H157508   4.135   3.685  11.632 -0.4066  3.3541  0.4046
12031TIP3    H257509   4.015   3.748  11.564  1.0139  3.5215 -2.0838
12032TIP3   OH257510   1.001   3.369  16.100  0.2379 -0.1149  0.1062
12032TIP3    H157511   1.018   3.279  16.127  2.2849 -0.6476 -2.5967
12032TIP3    H257512   0.957   3.360  16.015 -1.1166  1.4602  0.6004
12033TIP3   OH257513   1.938   5.499   0.754  0.2257  0.8615 -0.0243
12033TIP3    H157514   2.026   5.521   0.784 -0.6299  2.5511  1.4467
12033TIP3    H257515   1.903   5.581   0.721 -0.5441  0.0339 -1.3464
12034TIP3   OH257516   3.708   3.912  12.154  0.6045  0.2569 -0.0480
12034TIP3    H157517   3.774   3.975  12.183  0.5585  1.2264 -1.8733
12034TIP3    H257518   3.627   3.943  12.195  0.9722  0.0601  0.8467
12035TIP3   OH257519   4.257   0.009   5.007 -0.5629  0.2604 -0.4568
12035TIP3    H157520   4.292  -0.049   5.074  0.4017  1.0111 -0.3029
12035TIP3    H257521   4.223   0.084   5.056 -1.2060  0.1401 -0.7074
12036TIP3   OH257522   0.766   3.075   1.104  0.7022  0.8423  0.3611
12036TIP3    H157523   0.680   3.103   1.135 -0.1229 -2.4525  1.4839
12036TIP3    H257524   0.749   3.039   1.017  1.4310  2.2030 -0.3787
12037TIP3   OH257525   3.321   2.097  15.165  0.5388 -0.5296  0.6669
12037TIP3    H157526   3.411   2.093  15.198  0.4310 -2.1127  0.8690
12037TIP3    H257527   3.267   2.084  15.243  0.1682 -0.6862  0.3850
12038TIP3   OH257528   6.026   2.458  14.819  0.4639 -0.6330 -0.5693
12038TIP3    H157529   6.062   2.371  14.830  0.5378 -0.7274 -1.4896
12038TIP3    H257530   5.946   2.458  14.872  1.0089 -0.9135  0.2600
12039TIP3   OH257531   1.304   2.225  16.981 -0.1499 -0.0334 -0.0550
12039TIP3    H157532   1.281   2.252  16.892 -0.8282 -2.3754 -0.6588
12039TIP3    H257533   1.275   2.297  17.037 -0.8887  0.9237 -1.6179
12040TIP3   OH257534   1.345   6.012  11.564 -0.0496  0.4114  0.6680
12040TIP3    H157535   1.297   6.015  11.647 -0.5552 -0.5137  0.4289
12040TIP3    H257536   1.302   6.077  11.509 -0.0181  0.6916  0.9729
12041TIP3   OH257537   2.627   0.259  13.043  0.2532  0.4694  0.1453
12041TIP3    H157538   2.681   0.184  13.071 -0.3765  0.8574  2.7127
12041TIP3    H257539   2.676   0.336  13.073 -0.3522  0.9505 -0.0861
12042TIP3   OH257540   0.166   4.589  16.994 -0.0987  0.1363 -0.1612
12042TIP3    H157541   0.193   4.665  17.045 -1.3153  0.9077 -0.6158
12042TIP3    H257542   0.071   4.597  16.987 -0.0275 -0.0726 -2.2952
12043TIP3   OH257543   1.182   4.853  13.206  0.1687 -0.2950  0.0250
12043TIP3    H157544   1.181   4.839  13.111  1.6721  3.8631 -0.8220
12043TIP3    H257545   1.108   4.911  13.223 -0.1531 -1.0751  1.4593
12044TIP3   OH257546   4.984   2.712   4.870 -0.2506  0.4571  0.3652
12044TIP3    H157547   4.999   2.800   4.904  0.6767  0.7218 -0.6860
12044TIP3    H257548   5.031   2.710   4.787  0.7580 -1.4062  0.9261
12045TIP3   OH257549   4.773   1.818  14.355 -0.2457  0.7286 -0.4558
12045TIP3    H157550   4.859   1.777  14.345 -0.7126 -0.1974 -0.8533
12045TIP3    H257551   4.751   1.851  14.268 -0.3814  0.7674 -0.4074
12046TIP3   OH257552   4.124   1.602  14.813  0.0011 -0.5308  0.1996
12046TIP3    H157553   4.124   1.565  14.724 -0.2191  0.9929 -0.4684
12046TIP3    H257554   4.148   1.694  14.800 -0.4398 -0.1868  1.6861
12047TIP3   OH257555   5.549   3.915  14.328  0.3310 -0.1894  0.3241
12047TIP3    H157556   5.486   3.952  14.390  1.1208 -0.2389  1.1824
12047TIP3    H257557   5.517   3.941  14.242 -1.1810 -0.7065  0.7011
12048TIP3   OH257558   0.521   0.167  14.770 -1.1166  0.5672 -0.1294
12048TIP3    H157559   0.555   0.247  14.728  0.5747 -0.4745 -0.8503
12048TIP3    H257560   0.564   0.165  14.855  2.6808 -1.8467 -1.8241
12049TIP3   OH257561   5.360   3.874   4.324  0.2549 -0.4363 -0.4635
12049TIP3    H157562   5.335   3.799   4.379  0.7952 -1.1041 -1.0995
12049TIP3    H257563   5.455   3.876   4.328  0.2041  0.8650  0.3577
12050TIP3   OH257564   6.104   6.348  14.871  0.2361  0.5389 -0.1226
12050TIP3    H157565   6.068   6.274  14.921  1.8102 -1.2265 -1.4516
12050TIP3    H257566   6.028   6.387  14.828 -0.4364 -1.6427 -1.0308
12051TIP3   OH257567   3.502   3.380  15.610  0.0538 -0.0137  0.6365
12051TIP3    H157568   3.574   3.396  15.671  1.8226 -1.0904 -1.0721
12051TIP3    H257569   3.445   3.318  15.656  1.0318 -0.3478  1.4340
12052TIP3   OH257570   5.481   1.853   5.887 -1.1941  0.2507  0.2827
12052TIP3    H157571   5.511   1.779   5.939 -1.1743 -0.2244 -0.3974
12052TIP3    H257572   5.487   1.928   5.946  0.2475 -0.0211  0.5030
12053TIP3   OH257573   2.729   0.770  16.649  0.5817 -0.5263  0.4927
12053TIP3    H157574   2.696   0.857  16.671  4.8440  1.7777 -0.9757
12053TIP3    H257575   2.667   0.736  16.585 -1.1290  1.4935  0.9813
12054TIP3   OH257576   3.704   3.054   2.582 -0.3179  0.0591 -0.7393
12054TIP3    H157577   3.640   3.090   2.520 -1.1325 -1.2578 -0.7093
12054TIP3    H257578   3.716   3.123   2.647 -0.5509  0.9098 -1.5780
12055TIP3   OH257579   2.381   1.327  15.195  0.1319  0.0176  0.0129
12055TIP3    H157580   2.319   1.401  15.189 -0.5179 -0.4780  0.4034
12055TIP3    H257581   2.441   1.353  15.265 -0.8358 -0.3215  1.0191
12056TIP3   OH257582   2.182   4.739  11.515 -0.5312  0.0436 -0.1992
12056TIP3    H157583   2.162   4.647  11.494  1.1128 -0.7277  1.3861
12056TIP3    H257584   2.194   4.781  11.429 -0.4594 -1.4197 -0.9401
12057TIP3   OH257585   2.541   5.016  13.793  0.0165 -0.3510 -0.1395
12057TIP3    H157586   2.467   5.054  13.841 -0.1898 -0.8909 -0.0208
12057TIP3    H257587   2.501   4.972  13.718  0.0630 -1.7300  0.5915
12058TIP3   OH257588   5.613   0.192   0.030  0.0273  0.1654  0.3873
12058TIP3    H157589   5.692   0.138   0.026  0.5142  0.8393  0.7446
12058TIP3    H257590   5.607   0.219   0.121 -1.2216 -0.7434  0.6008
12059TIP3   OH257591   0.503   1.446   4.312 -0.3953  0.5556  0.0319
12059TIP3    H157592   0.515   1.402   4.228  0.8420  1.2598 -0.1929
12059TIP3    H257593   0.552   1.392   4.374 -1.1676  0.1278  0.2735
12060TIP3   OH257594   1.247   0.750   4.484  0.3051 -0.1067  0.1679
12060TIP3    H157595   1.157   0.759   4.518  0.3611 -0.6241  0.4783
12060TIP3    H257596   1.295   0.823   4.522  0.3373 -0.6121  1.1400
12061TIP3   OH257597   4.759   2.570  15.724 -0.0442  0.3753 -0.3862
12061TIP3    H157598   4.792   2.659  15.734  1.1811  0.0450 -1.1299
12061TIP3    H257599   4.773   2.529  15.809  0.4745  0.5678 -0.3743
12062TIP3   OH257600   1.032   1.888   0.662  0.0272 -0.1065  0.7250
12062TIP3    H157601   1.070   1.964   0.706 -0.8477  0.2062  0.9663
12062TIP3    H257602   1.069   1.889   0.574  0.0424  0.5809  0.7379
12063TIP3   OH257603   1.401   0.965   6.339  0.2089  0.5289 -0.2805
12063TIP3    H157604   1.355   0.909   6.402 -0.2518 -0.5362 -1.5196
12063TIP3    H257605   1.492   0.936   6.344  0.4613  1.4268  0.8878
12064TIP3   OH257606   4.580   5.267   6.219  0.4727 -0.2408  0.0934
12064TIP3    H157607   4.548   5.355   6.238 -1.0078 -0.8558  0.5695
12064TIP3    H257608   4.509   5.225   6.171  1.5940 -0.8467 -1.1216
12065TIP3   OH257609   3.279   5.242   0.110  0.1690  0.3982  0.6800
12065TIP3    H157610   3.309   5.288   0.189  0.5753 -0.5127  1.0682
12065TIP3    H257611   3.188   5.270   0.100  0.5715  1.7536  0.5492
12066TIP3   OH257612   2.919   4.485  13.767 -0.6683 -0.1143 -0.1366
12066TIP3    H157613   2.935   4.408  13.712  1.1840  1.6791 -2.3777
12066TIP3    H257614   2.896   4.450  13.852  1.7591 -3.2131 -0.5553
12067TIP3   OH257615   1.975   3.687  16.230 -0.2941  0.5725 -0.4177
12067TIP3    H157616   1.884   3.657  16.224 -0.8778  2.0662  0.3721
12067TIP3    H257617   1.969   3.769  16.279  1.7034 -0.2920  1.3968
12068TIP3   OH257618   1.415   1.953  12.129 -0.0809 -0.2194 -0.2962
12068TIP3    H157619   1.466   1.931  12.208 -0.3049  1.1398  0.2638
12068TIP3    H257620   1.468   1.922  12.057  1.5883  1.1455  0.2754
12069TIP3   OH257621   2.634   3.000  16.735 -0.0874 -0.2498 -0.4995
12069TIP3    H157622   2.714   2.968  16.775 -0.0832  0.1574 -0.1708
12069TIP3    H257623   2.573   2.926  16.740 -0.7198  0.3207  2.0250
12070TIP3   OH257624   3.675   3.859  16.494  0.0675  0.0225  0.2054
12070TIP3    H157625   3.656   3.876  16.586 -1.4146 -0.6257  0.0508
12070TIP3    H257626   3.610   3.793  16.468  0.7746 -0.1697 -1.1734
12071TIP3   OH257627   3.568   6.412  14.672 -0.2587 -0.3348  0.3246
12071TIP3    H157628   3.625   6.451  14.738 -1.9804  0.7081  1.2786
12071TIP3    H257629   3.591   6.457  14.590  0.9183 -0.6324  0.4740
12072TIP3   OH257630   5.179   1.716   1.846 -0.3658  0.0160 -0.5087
12072TIP3    H157631   5.266   1.682   1.866 -0.6451 -0.9239 -0.8030
12072TIP3    H257632   5.125   1.637   1.835 -1.5443  0.5950  0.9060
12073TIP3   OH257633   4.607   1.183  16.236  0.1960 -0.1385  0.1702
12073TIP3    H157634   4.533   1.122  16.233 -0.7783  0.9991  0.3835
12073TIP3    H257635   4.596   1.237  16.157  1.3412 -0.5425 -0.2937
12074TIP3   OH257636   6.363   5.665   0.377  0.1386 -0.5647  0.3970
12074TIP3    H157637   6.438   5.711   0.415  0.2034 -1.3047  1.2007
12074TIP3    H257638   6.359   5.583   0.425 -2.0154  0.0276  1.3320
12075TIP3   OH257639   4.458   5.109  13.470 -0.2795  0.7518 -0.4230
12075TIP3    H157640   4.473   5.026  13.516  2.5500  1.0765 -0.5517
12075TIP3    H257641   4.459   5.085  13.377  3.5017  1.0971 -0.6452
12076TIP3   OH257642   3.369   6.751  11.530  0.2875 -0.0681 -0.5682
12076TIP3    H157643   3.319   6.697  11.591  1.2466 -0.9089 -0.4945
12076TIP3    H257644   3.459   6.748  11.563  0.4593  1.0929 -0.9060
12077TIP3   OH257645   3.545   1.427   0.478  0.0892 -0.2136 -0.0717
12077TIP3    H157646   3.501   1.398   0.558  0.1367 -1.2670 -0.4059
12077TIP3    H257647   3.520   1.519   0.468 -3.0286 -1.0246 -0.8576
12078TIP3   OH257648   1.459   4.922  13.611 -0.1940 -0.2700 -0.1540
12078TIP3    H157649   1.436   4.959  13.526  0.3282  1.2450  0.3284
12078TIP3    H257650   1.387   4.948  13.669  0.1998  0.0487  0.2003
12079TIP3   OH257651   5.982   4.486   4.588  0.2304  0.6100  0.1173
12079TIP3    H157652   5.997   4.557   4.651  1.4882 -0.2397  0.8188
12079TIP3    H257653   5.965   4.409   4.642  1.1085 -0.0944 -0.5690
12080TIP3   OH257654   4.117   1.762   0.254 -0.5949 -0.2405  0.0303
12080TIP3    H157655   4.145   1.828   0.191 -3.7231 -1.3789 -2.8984
12080TIP3    H257656   4.186   1.696   0.254  1.9201  2.1738  1.9796
12081TIP3   OH257657   1.394   6.720  11.197  0.2033  0.7176  0.3423
12081TIP3    H157658   1.323   6.724  11.261  0.9427 -0.5180  1.2551
12081TIP3    H257659   1.362   6.774  11.124 -0.8744  1.7128  1.4985
12082TIP3   OH257660   5.575   4.219   5.084 -0.2160 -0.3868  0.4325
12082TIP3    H157661   5.567   4.123   5.091  2.1163 -0.5626  2.1034
12082TIP3    H257662   5.641   4.233   5.016 -1.7717  0.1718 -1.0286
12083TIP3   OH257663   6.097   4.427   3.650 -0.0830  0.0260 -0.1850
12083TIP3    H157664   6.148   4.356   3.689 -1.1580 -0.7172 -0.0951
12083TIP3    H257665   6.154   4.462   3.581  0.7980 -0.3516  0.3273
12084TIP3   OH257666   3.911   4.490   0.842  0.3794  0.2200 -0.7957
12084TIP3    H157667   4.006   4.501   0.842  0.2297  2.0433  0.2613
12084TIP3    H257668   3.894   4.422   0.907  0.8946  1.2848  0.5047
12085TIP3   OH257669   1.512   5.443  13.912 -0.0142 -0.2624 -0.0174
12085TIP3    H157670   1.572   5.372  13.938  1.2143  0.9005  0.4105
12085TIP3    H257671   1.526   5.452  13.818 -1.5722 -1.8213 -0.4515
12086TIP3   OH257672   0.997   4.385  17.067  0.0543  0.2280 -0.1345
12086TIP3    H157673   1.058   4.445  17.024  0.5961 -1.8377 -2.4584
12086TIP3    H257674   1.049   4.346  17.138  0.9393 -0.2916 -1.0398
12087TIP3   OH257675   1.018   4.787   4.422 -0.8620 -0.7793 -0.1791
12087TIP3    H157676   1.110   4.791   4.396 -0.5439  2.1382  0.9966
12087TIP3    H257677   1.019   4.760   4.513 -0.9749  0.7649  0.3160
12088TIP3   OH257678   4.718   6.555  13.035  0.4341  0.0190  0.5982
12088TIP3    H157679   4.788   6.613  13.063 -1.3267  1.3851  2.4578
12088TIP3    H257680   4.637   6.604  13.050 -1.1318 -2.6431  1.7110
12089TIP3   OH257681   6.174   2.975  16.973 -0.1901  0.3075  0.4799
12089TIP3    H157682   6.225   2.995  16.895 -0.5764 -0.4156  0.0397
12089TIP3    H257683   6.085   3.005  16.952 -0.0894  1.0193  1.0210
12090TIP3   OH257684   3.334   3.087  13.594 -0.0225  0.2701 -0.1000
12090TIP3    H157685   3.396   3.019  13.568 -0.7215 -0.5859  0.3930
12090TIP3    H257686   3.255   3.068  13.543 -0.2705  0.6342  0.1444
12091TIP3   OH257687   3.225   2.280   3.824  0.2715 -0.2106  0.1546
12091TIP3    H157688   3.272   2.208   3.867 -0.8243 -1.8613 -1.2961
12091TIP3    H257689   3.151   2.298   3.882  1.3525  0.8401  1.2832
12092TIP3   OH257690   4.566   6.570  14.801 -0.5836 -0.0745  0.3775
12092TIP3    H157691   4.491   6.620  14.769  0.4291  0.9935 -0.4455
12092TIP3    H257692   4.629   6.572  14.728 -0.2757 -2.1026  0.5325
12093TIP3   OH257693   1.247   2.266   4.995  0.7895 -0.5122 -0.2286
12093TIP3    H157694   1.233   2.205   5.068  0.4695 -1.7258 -1.2612
12093TIP3    H257695   1.162   2.269   4.950  1.8816 -2.8153 -2.7595
12094TIP3   OH257696   4.556   6.101   6.006  0.4329  0.0301 -0.5644
12094TIP3    H157697   4.623   6.033   5.999  0.9411  0.4633 -0.0536
12094TIP3    H257698   4.473   6.053   6.014  0.7008 -0.5116 -0.9639
12095TIP3   OH257699   0.560   2.771   4.434  0.1920  0.4857  0.3746
12095TIP3    H157700   0.640   2.766   4.486 -0.0665  0.0409  0.7391
12095TIP3    H257701   0.494   2.801   4.496 -0.0088  0.4653  0.1713
12096TIP3   OH257702   0.744   4.247  12.830 -0.5386  0.8019  0.1663
12096TIP3    H157703   0.831   4.262  12.868 -0.6401  1.1273  0.2779
12096TIP3    H257704   0.685   4.297  12.887 -0.8469  0.2700  0.3208
12097TIP3   OH257705   2.454   4.403  15.385  0.3044  0.2423  0.0383
12097TIP3    H157706   2.439   4.411  15.291  0.0607  0.3476  0.0839
12097TIP3    H257707   2.535   4.452  15.400 -0.8602  2.2434  0.2173
12098TIP3   OH257708   6.256   1.636   1.862  0.4003 -0.0962 -0.1748
12098TIP3    H157709   6.269   1.550   1.903  3.1228  1.1895  2.0407
12098TIP3    H257710   6.313   1.695   1.912 -1.2013  2.9994 -1.7041
12099TIP3   OH257711   5.393   0.829   4.505  0.2619  0.3609 -0.3129
12099TIP3    H157712   5.373   0.741   4.536 -1.0046  0.5342 -0.5863
12099TIP3    H257713   5.337   0.886   4.556  1.4290  1.0717  0.2022
12100TIP3   OH257714   6.145   3.084  11.920 -0.8223  1.0164  0.4596
12100TIP3    H157715   6.130   3.179  11.924 -0.8392  1.0490 -0.1694
12100TIP3    H257716   6.079   3.052  11.859  0.8629  0.9995 -1.4736
12101TIP3   OH257717   0.830   0.277  10.440 -0.5268 -0.3056  0.5694
12101TIP3    H157718   0.919   0.302  10.464  0.3441 -0.8192 -1.8385
12101TIP3    H257719   0.787   0.360  10.418 -0.2647 -0.1686  0.5701
12102TIP3   OH257720   5.556   2.555  17.156 -0.5145  0.6769 -0.3054
12102TIP3    H157721   5.636   2.516  17.120 -0.0656  1.4990 -0.2236
12102TIP3    H257722   5.573   2.562  17.250 -1.1029 -0.1108 -0.1329
12103TIP3   OH257723   4.791   1.047   3.739  0.4006 -0.2852  0.0378
12103TIP3    H157724   4.859   1.089   3.792 -0.7667  0.5982  0.9097
12103TIP3    H257725   4.817   0.955   3.733  3.1232  0.5004 -2.0527
12104TIP3   OH257726   6.412   2.630   5.020 -0.0195 -0.5007  0.4731
12104TIP3    H157727   6.326   2.597   4.996  0.1167 -0.9372  0.5805
12104TIP3    H257728   6.429   2.593   5.106  0.4508 -0.7511  0.2745
12105TIP3   OH257729   1.517   4.666   2.711  0.3172 -0.3434 -0.0146
12105TIP3    H157730   1.508   4.656   2.806  0.0774 -1.0011 -0.1010
12105TIP3    H257731   1.430   4.648   2.677  0.6835 -1.3194 -0.4509
12106TIP3   OH257732   3.179   4.739  10.655  0.4334 -0.1132 -0.6472
12106TIP3    H157733   3.242   4.685  10.609  1.0000 -0.8287  0.9019
12106TIP3    H257734   3.110   4.678  10.683  0.2703  0.2371 -0.2630
12107TIP3   OH257735   5.217   3.883  16.785  0.0030 -0.0796 -0.1145
12107TIP3    H157736   5.234   3.916  16.697 -1.1559  1.9179  0.3595
12107TIP3    H257737   5.302   3.852  16.816  1.2212  2.5564 -0.6060
12108TIP3   OH257738   4.287   6.170   1.728 -0.1519 -0.0641  0.0437
12108TIP3    H157739   4.225   6.234   1.693  1.4961  1.2714 -0.6060
12108TIP3    H257740   4.261   6.159   1.820 -1.7486 -0.1055 -0.3844
12109TIP3   OH257741   6.191   3.622  10.941  0.2661 -0.6052 -0.2063
12109TIP3    H157742   6.274   3.632  10.989  2.0125 -1.1258 -2.9138
12109TIP3    H257743   6.216   3.627  10.849 -2.6017 -1.8343 -1.1482
12110TIP3   OH257744   0.285   2.551   0.273  0.1450  0.5075 -0.3881
12110TIP3    H157745   0.370   2.527   0.235  0.2833 -0.3062  0.4152
12110TIP3    H257746   0.305   2.571   0.364 -0.5531  0.1646 -0.1553
12111TIP3   OH257747   2.422   5.902   0.818  0.4041  0.4404 -0.0213
12111TIP3    H157748   2.385   5.859   0.894 -0.3581 -1.1636 -1.2576
12111TIP3    H257749   2.346   5.930   0.766  0.7508 -2.6797 -2.4683
12112TIP3   OH257750   2.148   0.924  12.449 -0.1061  0.1444  0.7761
12112TIP3    H157751   2.223   0.867  12.464 -0.2137 -0.9936 -2.2803
12112TIP3    H257752   2.077   0.884  12.499  0.4509 -0.9652  0.7056
12113TIP3   OH257753   0.195   5.580   3.889  0.0731  0.2746  0.3741
12113TIP3    H157754   0.271   5.613   3.842  0.1170 -0.0635  0.2071
12113TIP3    H257755   0.168   5.502   3.841  2.5581 -2.5470  3.1050
12114TIP3   OH257756   0.256   0.108  16.214 -0.1670  0.1277 -0.1868
12114TIP3    H157757   0.347   0.135  16.207 -0.1307 -0.2752 -1.8865
12114TIP3    H257758   0.260   0.021  16.254  0.0718  0.6355  0.9314
12115TIP3   OH257759   3.119   2.856  16.893  0.0847  0.3709 -0.1506
12115TIP3    H157760   3.093   2.869  16.802  1.1734 -0.9522 -0.6862
12115TIP3    H257761   3.158   2.939  16.919 -0.0658  0.7007 -0.9579
12116TIP3   OH257762   1.719   5.643   2.561  0.3553  0.0084  0.3154
12116TIP3    H157763   1.731   5.565   2.507  0.1233 -0.1886  0.5415
12116TIP3    H257764   1.742   5.716   2.504  0.7561 -0.2357  0.1594
12117TIP3   OH257765   6.236   1.671   3.218  0.0729  0.0306  0.3676
12117TIP3    H157766   6.176   1.746   3.216  0.2099  0.1276 -0.4589
12117TIP3    H257767   6.198   1.608   3.158  1.5103  0.6822 -1.3307
12118TIP3   OH257768   6.766   1.524  15.734  0.0017 -0.5282  0.4215
12118TIP3    H157769   6.842   1.565  15.692  0.8280 -1.4026  1.0221
12118TIP3    H257770   6.749   1.578  15.812 -0.7235  0.3317 -0.3090
12119TIP3   OH257771   1.183   1.297   2.585  0.5455  0.1044  0.8944
12119TIP3    H157772   1.183   1.202   2.583  0.4402  0.1039 -1.1950
12119TIP3    H257773   1.112   1.319   2.646 -1.0146 -1.1902 -0.3530
12120TIP3   OH257774   0.197   1.324  15.696  0.4710 -0.3338 -0.0908
12120TIP3    H157775   0.104   1.300  15.689  0.7197 -1.2155 -0.4647
12120TIP3    H257776   0.223   1.347  15.607  0.0279  2.2648  0.3652
12121TIP3   OH257777   3.301   6.333  14.445  0.2514 -0.0242  0.0202
12121TIP3    H157778   3.332   6.421  14.468  0.2663 -0.0532  0.1122
12121TIP3    H257779   3.231   6.315  14.508  0.7026 -0.3491  0.4357
12122TIP3   OH257780   6.290   2.188   1.269 -0.2407  0.1529  0.4128
12122TIP3    H157781   6.245   2.107   1.245 -0.4123  0.1712  0.6623
12122TIP3    H257782   6.221   2.254   1.268  0.0019  0.4004 -0.3151
12123TIP3   OH257783   1.581   0.260  13.152 -0.0963 -0.2319  0.5224
12123TIP3    H157784   1.665   0.288  13.187 -0.7612  0.6359  1.5196
12123TIP3    H257785   1.533   0.228  13.228 -1.5732  1.6519  0.4548
12124TIP3   OH257786   3.383   5.654   5.565  0.1369  0.3163  0.6588
12124TIP3    H157787   3.422   5.737   5.535 -0.0106  0.9032  2.0130
12124TIP3    H257788   3.362   5.607   5.484 -1.0087  2.1599 -0.1965
12125TIP3   OH257789   0.186   3.875   0.654  0.4539  0.4893 -0.0202
12125TIP3    H157790   0.276   3.891   0.682  0.3817 -1.1082  1.3598
12125TIP3    H257791   0.135   3.947   0.692  1.3577  2.8074 -2.8342
12126TIP3   OH257792   1.114   3.095   1.353 -0.2103 -0.6536  0.2047
12126TIP3    H157793   1.038   3.043   1.327 -0.9191  0.6989 -0.5425
12126TIP3    H257794   1.181   3.030   1.375 -0.4611 -1.9239 -2.3437
12127TIP3   OH257795   1.795   0.392  15.380  0.3655  0.4499 -0.1179
12127TIP3    H157796   1.804   0.398  15.285 -0.3563 -0.0228 -0.2295
12127TIP3    H257797   1.800   0.298  15.399  0.7644  0.5605  0.3403
12128TIP3   OH257798   0.204   3.807  15.682 -0.0350  0.3469  0.1841
12128TIP3    H157799   0.184   3.882  15.625  1.1766  0.2315 -0.4476
12128TIP3    H257800   0.120   3.781  15.719 -0.6998  1.0755 -0.7657
12129TIP3   OH257801   2.201   1.151  13.892  0.1027 -0.2806  0.4404
12129TIP3    H157802   2.202   1.159  13.988  1.3067  1.3003  0.3271
12129TIP3    H257803   2.264   1.082  13.874  0.6640  0.1457  0.7451
12130TIP3   OH257804   6.380   6.252  14.988 -0.0095  0.2607 -0.2522
12130TIP3    H157805   6.292   6.268  14.954  0.3510  0.3532 -1.1576
12130TIP3    H257806   6.399   6.329  15.042 -1.3241 -0.7359  1.7660
12131TIP3   OH257807   3.700   6.613  12.287 -0.5482 -0.2222 -0.2595
12131TIP3    H157808   3.624   6.614  12.229  1.1297 -0.8117 -2.6168
12131TIP3    H257809   3.692   6.694  12.338 -2.7244 -0.2978 -0.3845
12132TIP3   OH257810   4.893   2.695  11.894  0.1533  0.0194 -0.0837
12132TIP3    H157811   4.973   2.643  11.886  1.5622  2.0270  0.0969
12132TIP3    H257812   4.872   2.720  11.804 -0.1332 -0.2892 -0.1045
12133TIP3   OH257813   2.036   5.652   0.331  0.2709 -0.0641  0.6237
12133TIP3    H157814   2.124   5.690   0.326  0.0253  0.4329 -3.3094
12133TIP3    H257815   2.050   5.558   0.322  0.4400  0.0441 -0.3957
12134TIP3   OH257816   5.668   5.977  13.924  0.7850  0.0195  0.2154
12134TIP3    H157817   5.594   6.038  13.935  0.5787 -0.1017 -0.4707
12134TIP3    H257818   5.702   5.996  13.837  1.6765  0.1854  0.5830
12135TIP3   OH257819   5.579   4.210  16.216  0.5170  0.4151 -0.1839
12135TIP3    H157820   5.531   4.264  16.153  1.8225  1.6504 -0.1626
12135TIP3    H257821   5.525   4.211  16.294 -0.3823  0.1316 -0.7888
12136TIP3   OH257822   1.392   0.773  12.562 -0.3690  0.1340 -0.9539
12136TIP3    H157823   1.321   0.720  12.527 -0.1134 -0.4331 -0.6245
12136TIP3    H257824   1.375   0.861  12.529 -3.0000  0.7392  1.6070
12137TIP3   OH257825   0.068   2.819   4.686 -0.4032  0.1087 -0.0198
12137TIP3    H157826   0.114   2.765   4.622  0.6283  2.4080 -1.3475
12137TIP3    H257827  -0.013   2.772   4.703  0.9798 -2.4817 -0.0416
12138TIP3   OH257828   6.143   2.221   5.894 -0.1279 -0.1905  0.5528
12138TIP3    H157829   6.126   2.132   5.926  1.4472 -0.2852  1.2286
12138TIP3    H257830   6.128   2.277   5.971 -1.7496  0.2371 -0.0348
12139TIP3   OH257831   6.675   0.673   3.408 -0.0046  0.0218  0.3531
12139TIP3    H157832   6.727   0.752   3.392  0.6508 -0.4951 -0.1550
12139TIP3    H257833   6.739   0.602   3.406 -0.3612 -0.4103  2.2593
12140TIP3   OH257834   0.152   3.037  17.292  0.3462 -0.1257 -0.5775
12140TIP3    H157835   0.205   2.999  17.362 -2.8471 -1.2232  1.4978
12140TIP3    H257836   0.178   3.129  17.289 -0.2996  0.3294  3.1500
12141TIP3   OH257837   4.112   6.340   5.577 -0.0331  0.2595  0.2204
12141TIP3    H157838   4.045   6.286   5.618 -1.1531  1.8252  0.5878
12141TIP3    H257839   4.147   6.393   5.648 -0.8875  1.8906 -0.5124
12142TIP3   OH257840   3.858   2.837  17.014  0.4122  0.1919  0.7856
12142TIP3    H157841   3.887   2.900  16.948 -0.0301 -0.4485 -0.0437
12142TIP3    H257842   3.889   2.872  17.097  0.3191  1.4138  0.3190
12143TIP3   OH257843   0.448   5.999  10.708 -0.1545  0.0008 -0.7952
12143TIP3    H157844   0.526   5.968  10.662  1.1221 -0.8526  1.7163
12143TIP3    H257845   0.434   5.934  10.777 -2.3460  0.8147 -0.3984
12144TIP3   OH257846   1.508   6.555   1.182 -0.1501 -0.1065  0.4487
12144TIP3    H157847   1.491   6.532   1.273  1.7649  1.7004  1.3471
12144TIP3    H257848   1.491   6.649   1.177  1.8222  0.2540 -0.4657
12145TIP3   OH257849   3.676   2.209  16.133  0.2510 -0.2743 -0.1987
12145TIP3    H157850   3.689   2.147  16.062  1.2760 -0.5681  0.2382
12145TIP3    H257851   3.750   2.196  16.191  0.4237  1.2676 -0.0268
12146TIP3   OH257852   1.654   6.617  16.657 -0.4078  0.7289  0.1049
12146TIP3    H157853   1.633   6.551  16.723  0.0895  0.7690  0.3059
12146TIP3    H257854   1.727   6.579  16.608  0.6286  1.5947  0.9333
12147TIP3   OH257855   2.041   1.699   5.932 -0.2278  0.3724 -0.0557
12147TIP3    H157856   2.126   1.663   5.906 -0.5551 -0.5447  0.1076
12147TIP3    H257857   1.981   1.625   5.925 -0.9819  0.9757 -0.0143
12148TIP3   OH257858   3.227   0.047   4.607 -0.0437  0.1518 -0.6421
12148TIP3    H157859   3.201   0.056   4.699 -0.0184  0.7902 -0.6915
12148TIP3    H257860   3.322   0.062   4.608  0.1265 -0.8707 -0.6372
12149TIP3   OH257861   3.110   1.445  15.920 -0.0910 -0.2449 -0.2014
12149TIP3    H157862   3.094   1.360  15.960  0.2878 -0.0956  0.2800
12149TIP3    H257863   3.047   1.503  15.962  0.5709 -0.0046  0.4875
12150TIP3   OH257864   5.489   2.820   1.916 -0.7140 -0.1762  0.1774
12150TIP3    H157865   5.578   2.823   1.881 -0.4336  1.6494  0.9440
12150TIP3    H257866   5.497   2.779   2.002 -0.5196  0.4296  0.4537
12151TIP3   OH257867   0.206   0.334  17.195 -0.7496  0.0963 -0.3221
12151TIP3    H157868   0.145   0.310  17.265 -0.8928  0.1234 -0.4383
12151TIP3    H257869   0.263   0.400  17.235  0.4389 -1.2946  0.3974
12152TIP3   OH257870   1.704   4.626   1.813  0.1455  0.1969  0.0295
12152TIP3    H157871   1.679   4.562   1.880  3.1693 -1.7524 -0.4898
12152TIP3    H257872   1.743   4.699   1.862  0.5307 -0.3213  0.5076
12153TIP3   OH257873   2.338   3.941  13.727  0.0234 -0.0821  0.0614
12153TIP3    H157874   2.424   3.898  13.725 -0.0760 -0.2996  0.3265
12153TIP3    H257875   2.280   3.876  13.767 -0.8477 -0.9961 -2.4343
12154TIP3   OH257876   3.181   6.625  13.100  0.2279  0.5373 -0.1431
12154TIP3    H157877   3.195   6.659  13.188 -4.7331  1.3784  0.6005
12154TIP3    H257878   3.212   6.535  13.103  3.4088  1.5477  1.2414
12155TIP3   OH257879   4.031   3.642  16.972  0.4096  0.2197  0.0167
12155TIP3    H157880   4.089   3.718  16.970 -0.0315  0.5422 -0.7045
12155TIP3    H257881   3.945   3.676  16.946 -0.1759 -0.2007  1.3174
12156TIP3   OH257882   2.825   0.982  10.994  0.1830 -0.1340  0.1584
12156TIP3    H157883   2.908   0.990  10.947 -1.5061  1.1366 -2.9964
12156TIP3    H257884   2.805   1.071  11.023 -1.3536  0.2194 -1.7622
12157TIP3   OH257885   1.392   6.538  11.447  0.0594  0.6539  0.1907
12157TIP3    H157886   1.364   6.500  11.530 -1.3824 -0.3485 -0.7046
12157TIP3    H257887   1.478   6.499  11.430 -1.0632 -1.7963 -0.3494
12158TIP3   OH257888   5.055   1.640  16.920 -0.7563 -0.3309 -0.1383
12158TIP3    H157889   4.996   1.667  16.991  0.3152  0.8174  0.3382
12158TIP3    H257890   5.088   1.554  16.948 -0.1251  0.2344  0.9161
12159TIP3   OH257891   0.870   3.001   4.151 -0.2266 -0.1015  0.1060
12159TIP3    H157892   0.877   2.969   4.061 -1.1972  0.4196 -0.1737
12159TIP3    H257893   0.776   3.002   4.168 -0.0548 -0.0603  1.0847
12160TIP3   OH257894   2.457   1.696  15.548  0.8093  0.0672  0.1792
12160TIP3    H157895   2.415   1.777  15.519 -0.9832 -1.5482 -2.1597
12160TIP3    H257896   2.549   1.707  15.523  0.4941  1.1784 -0.5670
12161TIP3   OH257897   4.022   0.213  15.783  0.2560  0.2356 -0.4153
12161TIP3    H157898   4.112   0.240  15.801  0.3849  1.1376 -2.0986
12161TIP3    H257899   4.030   0.127  15.743  0.3582  0.1934 -0.3023
12162TIP3   OH257900   0.704   3.535   2.719  0.1732  0.4202 -0.2563
12162TIP3    H157901   0.755   3.534   2.801  1.3402 -2.1710 -0.8844
12162TIP3    H257902   0.750   3.472   2.663 -2.6388 -0.5551 -1.6103
12163TIP3   OH257903   4.294   2.688   5.313 -0.3839  0.0811 -0.3159
12163TIP3    H157904   4.255   2.753   5.254  0.6362  1.4551  0.4706
12163TIP3    H257905   4.348   2.634   5.255 -0.5894  0.4472 -0.8623
12164TIP3   OH257906   3.929   0.020  16.438 -0.0598 -0.4222  0.0121
12164TIP3    H157907   3.989   0.048  16.369  0.2255 -0.8442  0.0837
12164TIP3    H257908   3.931  -0.076  16.434 -0.0919 -0.4496  0.5634
12165TIP3   OH257909   0.658   3.894  16.933  0.5616  0.2875 -0.0456
12165TIP3    H157910   0.673   3.933  16.847 -1.5786 -1.9585 -1.5726
12165TIP3    H257911   0.738   3.843  16.950  2.2879  3.0815  0.8085
12166TIP3   OH257912   3.218   4.015   5.255 -0.7353  0.0074 -0.6725
12166TIP3    H157913   3.162   4.073   5.306 -1.2501 -1.0297 -0.0161
12166TIP3    H257914   3.187   3.927   5.276  0.5408 -0.5545 -1.0161
12167TIP3   OH257915   0.043   5.662   6.195 -0.4183  0.5411 -0.2547
12167TIP3    H157916  -0.009   5.724   6.246 -0.9262  0.1423 -0.2783
12167TIP3    H257917  -0.020   5.598   6.163  0.2252 -0.6162  0.6776
12168TIP3   OH257918   2.150   3.409   2.563 -0.1515  0.6730  0.8110
12168TIP3    H157919   2.189   3.495   2.579  0.7052  0.5739 -0.5551
12168TIP3    H257920   2.150   3.400   2.468 -1.5242 -0.2651  0.8742
12169TIP3   OH257921   2.583   1.999  12.012  0.4696 -0.1862  0.2539
12169TIP3    H157922   2.582   2.020  12.106  2.2221 -1.3012  0.5688
12169TIP3    H257923   2.655   2.051  11.977 -0.4041  0.4957 -0.5666
12170TIP3   OH257924   1.564   5.367   4.422 -0.2668  0.3345  0.2623
12170TIP3    H157925   1.612   5.337   4.499  1.3592 -3.0430 -1.8094
12170TIP3    H257926   1.620   5.435   4.384  0.3173  0.0587  0.6146
12171TIP3   OH257927   0.675   5.595   0.232  0.0618 -0.1729 -0.4000
12171TIP3    H157928   0.622   5.567   0.307  0.6153  0.2313  0.1557
12171TIP3    H257929   0.626   5.667   0.193 -0.5833 -0.8578 -0.8701
12172TIP3   OH257930   2.597   6.553  14.661 -0.1723  0.5944 -0.0120
12172TIP3    H157931   2.613   6.595  14.746  2.5070  0.2741 -0.2641
12172TIP3    H257932   2.528   6.489  14.679  0.5891  0.2534  2.0570
12173TIP3   OH257933   1.504   4.670  16.861 -0.0610  0.5735 -0.2851
12173TIP3    H157934   1.485   4.764  16.866 -0.1569  0.5130  0.6197
12173TIP3    H257935   1.588   4.660  16.905  1.6633  0.6716 -3.2818
12174TIP3   OH257936   0.142   5.783   4.065 -0.4677 -0.0517 -0.3992
12174TIP3    H157937   0.161   5.716   3.999  0.7452  1.2387 -1.4281
12174TIP3    H257938   0.159   5.740   4.149 -1.7981 -1.6587 -0.8992
12175TIP3   OH257939   4.120   0.924  15.794 -1.1153 -0.3449  0.3649
12175TIP3    H157940   4.052   0.929  15.726 -2.2850  0.8136  1.5569
12175TIP3    H257941   4.194   0.883  15.750 -2.3529 -1.0686 -1.1788
12176TIP3   OH257942   2.836   5.662   1.241 -0.6587 -0.5799  0.4200
12176TIP3    H157943   2.827   5.694   1.331  0.5932  0.6649  0.1379
12176TIP3    H257944   2.919   5.698   1.211 -1.1700 -0.7569 -1.3366
12177TIP3   OH257945   4.167   1.670   6.639  0.1065  0.2834  0.2158
12177TIP3    H157946   4.097   1.670   6.573  0.5483 -1.6257 -0.3281
12177TIP3    H257947   4.205   1.583   6.633  1.0110  0.4921  2.1496
12178TIP3   OH257948   1.673   1.490  16.880 -0.0810  0.9491 -0.3240
12178TIP3    H157949   1.621   1.414  16.854  0.7611  0.1999  0.1094
12178TIP3    H257950   1.709   1.467  16.966 -0.5466  2.2266  0.2384
12179TIP3   OH257951   0.212   3.532   5.157  0.1876 -0.0190  0.0463
12179TIP3    H157952   0.208   3.592   5.232 -1.8151  0.1572 -0.1427
12179TIP3    H257953   0.148   3.464   5.178 -0.7511  0.2786 -1.6803
12180TIP3   OH257954   3.930   0.799  16.893 -0.4418  0.4207 -0.4077
12180TIP3    H157955   3.988   0.742  16.944  0.5245  0.8585 -1.0071
12180TIP3    H257956   3.911   0.872  16.951 -1.5581 -0.3935  0.3090
12181TIP3   OH257957   3.895   2.411  10.841 -0.0275 -0.1441 -0.0841
12181TIP3    H157958   3.871   2.343  10.778 -1.1176  0.2563 -0.1255
12181TIP3    H257959   3.980   2.443  10.811 -0.1029 -0.5970 -0.8079
12182TIP3   OH257960   0.345   1.024   5.399  0.3477 -0.1931 -0.3144
12182TIP3    H157961   0.324   0.986   5.314 -0.3675 -0.9610  0.1804
12182TIP3    H257962   0.279   1.092   5.412 -1.3965 -1.9875  0.8358
12183TIP3   OH257963   0.449   4.611  11.034 -0.4569 -0.1416  0.4140
12183TIP3    H157964   0.372   4.559  11.055 -1.0732  0.7105  0.2880
12183TIP3    H257965   0.415   4.692  10.995  0.3571  1.1968  2.3019
12184TIP3   OH257966   5.919   2.976  12.587  0.0096 -0.3959  0.6911
12184TIP3    H157967   5.957   2.890  12.567 -1.1373 -1.2270  1.9053
12184TIP3    H257968   5.833   2.974  12.546 -0.2353 -0.0546  1.1756
12185TIP3   OH257969   4.628   4.017  15.954  0.1314 -0.0823  0.3732
12185TIP3    H157970   4.623   4.087  15.889 -1.1918  0.9150  1.4989
12185TIP3    H257971   4.701   3.962  15.925  0.0115  0.7149 -1.5590
12186TIP3   OH257972   3.252   2.894   1.653  0.3009  0.3242  0.1552
12186TIP3    H157973   3.178   2.892   1.713  0.7547  0.5472  0.7339
12186TIP3    H257974   3.239   2.972   1.600  0.5054  0.7807  0.7650
12187TIP3   OH257975   2.792   2.920   0.745  0.4878 -0.0577 -0.0626
12187TIP3    H157976   2.810   2.982   0.676  0.8501  0.8797  0.8478
12187TIP3    H257977   2.875   2.911   0.792 -0.4576  1.7325  2.1390
12188TIP3   OH257978   2.987   2.027  12.582  0.2329 -0.0877  0.0246
12188TIP3    H157979   3.056   2.012  12.647  2.6358  1.9311 -1.8506
12188TIP3    H257980   3.019   1.985  12.503 -1.7345 -0.8610 -0.4005
12189TIP3   OH257981   4.473   0.602  14.567 -0.5010  0.3787  0.2194
12189TIP3    H157982   4.551   0.595  14.512  0.6931  2.7220  1.4904
12189TIP3    H257983   4.400   0.589  14.506  0.8025  0.9988 -1.5446
12190TIP3   OH257984   4.113   1.393  16.657 -0.3747  0.0053  0.3074
12190TIP3    H157985   4.137   1.369  16.567  0.9696 -3.3802  1.3597
12190TIP3    H257986   4.028   1.352  16.671  0.0638 -0.7426  0.9273
12191TIP3   OH257987   2.221   0.356  15.376  0.1477  0.0669 -0.0391
12191TIP3    H157988   2.209   0.267  15.409  2.0014  0.3679  1.5603
12191TIP3    H257989   2.231   0.345  15.281 -0.2143 -1.3465  0.0632
12192TIP3   OH257990   1.269   5.786   4.634 -0.4132 -0.1202 -0.2195
12192TIP3    H157991   1.307   5.789   4.722 -0.5088 -0.2951 -0.1717
12192TIP3    H257992   1.310   5.709   4.593  0.0416  0.2694 -0.5178
12193TIP3   OH257993   2.660   3.673  13.985  0.6455  0.1563  0.1830
12193TIP3    H157994   2.601   3.736  13.942 -0.3102 -1.0083 -0.2812
12193TIP3    H257995   2.690   3.719  14.064  0.1742  1.2802 -0.2588
12194TIP3   OH257996   1.673   1.620  11.955  0.1281 -0.1770  0.1445
12194TIP3    H157997   1.603   1.672  11.915  0.6885 -0.8011 -1.7875
12194TIP3    H257998   1.734   1.685  11.989  0.5246  0.4847 -1.7055
12195TIP3   OH257999   2.756   0.505  13.075 -0.0947 -0.1058 -0.2040
12195TIP3    H158000   2.845   0.523  13.045 -0.8769  1.0846 -1.9727
12195TIP3    H258001   2.754   0.541  13.164  1.1459 -0.0357 -0.1778
12196TIP3   OH258002   2.067   4.979   3.399 -0.3631  0.2421 -0.5776
12196TIP3    H158003   2.000   5.005   3.463  0.8196  0.1529  0.7491
12196TIP3    H258004   2.073   5.052   3.339  1.5795  2.4127  1.9965
12197TIP3   OH258005   5.188   6.166   3.276 -0.4170  0.4289 -0.0111
12197TIP3    H158006   5.103   6.162   3.320  0.2526 -0.0843  1.3237
12197TIP3    H258007   5.212   6.074   3.263 -0.1670  0.5721 -0.5857
12198TIP3   OH258008   4.105   4.161   3.578  0.1547  0.3477  0.3086
12198TIP3    H158009   4.102   4.252   3.548 -0.9995 -0.1990 -1.4318
12198TIP3    H258010   4.040   4.157   3.648 -0.9513  0.5634 -0.6643
12199TIP3   OH258011   3.654   6.557   1.814 -0.0368  0.0605  0.6551
12199TIP3    H158012   3.697   6.472   1.810 -0.3886 -0.1576  1.2915
12199TIP3    H258013   3.633   6.569   1.907  0.6297  1.1598  0.6840
12200TIP3   OH258014   2.403   3.431   6.425  0.1065  0.2174  0.3269
12200TIP3    H158015   2.406   3.525   6.441 -0.5756  0.3326 -0.1527
12200TIP3    H258016   2.377   3.423   6.333 -0.4962 -0.4411  0.5414
12201TIP3   OH258017   5.962   5.379   1.815  0.1033  0.2096  0.2396
12201TIP3    H158018   5.877   5.371   1.772 -0.1761 -1.2845  1.0057
12201TIP3    H258019   6.022   5.328   1.760 -0.0623 -0.9284  1.0860
12202TIP3   OH258020   2.468   0.262  17.061 -0.2780  0.0957 -0.2307
12202TIP3    H158021   2.404   0.320  17.019 -1.5571 -2.1096 -1.5603
12202TIP3    H258022   2.543   0.263  17.001 -0.1115  0.6992 -0.0169
12203TIP3   OH258023   5.939   0.290   0.094  0.0750 -0.3609  0.2826
12203TIP3    H158024   6.031   0.268   0.085 -0.1510 -0.6821 -1.7294
12203TIP3    H258025   5.898   0.211   0.129  0.3095 -0.8025 -0.4358
12204TIP3   OH258026   5.190   2.242  14.462 -0.1439  0.1996 -0.3588
12204TIP3    H158027   5.100   2.266  14.441  0.0898  1.4107 -0.0510
12204TIP3    H258028   5.203   2.157  14.419 -1.4335 -0.0115 -0.3741
12205TIP3   OH258029   1.634   0.674  14.701 -0.2733 -0.0117 -0.4378
12205TIP3    H158030   1.589   0.704  14.780 -1.0047  1.4543 -1.3621
12205TIP3    H258031   1.629   0.578  14.705 -1.4337  0.0647  0.6500
12206TIP3   OH258032   4.719   4.428  11.291  0.0144  0.1282 -0.1915
12206TIP3    H158033   4.741   4.503  11.235  0.8539  1.4276  1.7573
12206TIP3    H258034   4.711   4.466  11.379  0.2053 -2.0477  0.8145
12207TIP3   OH258035   5.655   4.860  15.153  0.0091 -0.0793 -0.2712
12207TIP3    H158036   5.563   4.848  15.178  0.5137 -0.9772  1.3205
12207TIP3    H258037   5.703   4.851  15.235  1.8235 -3.0566 -1.5058
12208TIP3   OH258038   2.178   3.171  12.262 -0.2379 -0.1634  0.4090
12208TIP3    H158039   2.160   3.117  12.340 -0.3552 -1.5525 -0.5506
12208TIP3    H258040   2.163   3.261  12.292 -0.3225 -0.6614  1.9824
12209TIP3   OH258041   4.146   0.498   0.926 -0.7550  0.7769  0.1517
12209TIP3    H158042   4.176   0.585   0.952  2.4662 -0.0573 -0.4035
12209TIP3    H258043   4.100   0.512   0.843  0.9081  1.8385 -0.6333
12210TIP3   OH258044   6.312   3.071   2.693 -0.5166  0.3241  0.8361
12210TIP3    H158045   6.321   3.052   2.786  0.1855  0.7014  0.8529
12210TIP3    H258046   6.262   2.997   2.658  0.5574 -0.6093  1.2236
12211TIP3   OH258047   1.373   5.442  14.801  0.1392  0.3650  0.4893
12211TIP3    H158048   1.316   5.366  14.792  0.6066 -0.0779  1.0934
12211TIP3    H258049   1.402   5.439  14.893 -0.4017  1.6874  0.7323
12212TIP3   OH258050   6.554   6.474  12.151  0.0377 -0.0043 -0.2446
12212TIP3    H158051   6.569   6.400  12.093  0.0771 -0.1498 -0.0486
12212TIP3    H258052   6.478   6.449  12.203  1.5118 -0.9726  1.5487
12213TIP3   OH258053   0.400   4.479   4.253 -0.4325  0.5380  0.6658
12213TIP3    H158054   0.310   4.485   4.221 -0.3287 -0.3726  0.1692
12213TIP3    H258055   0.409   4.553   4.312 -0.9867  1.6336 -0.5572
12214TIP3   OH258056   1.602   5.544   0.498 -0.5157 -0.4621 -0.4802
12214TIP3    H158057   1.530   5.485   0.478 -0.5137 -1.2235  1.5170
12214TIP3    H258058   1.668   5.488   0.538  1.4733  0.1085 -2.7010
12215TIP3   OH258059   0.553   6.431  17.029  0.6217 -0.9243 -0.4267
12215TIP3    H158060   0.614   6.358  17.027  1.3041 -0.3645 -0.3188
12215TIP3    H258061   0.589   6.491  17.094 -0.0832 -0.6181 -0.3053
12216TIP3   OH258062   1.689   4.286  15.959 -0.1940  0.2047 -0.2596
12216TIP3    H158063   1.706   4.295  16.053  0.1775 -1.4713 -0.1290
12216TIP3    H258064   1.772   4.255  15.922 -0.3137  0.9153 -1.1710
12217TIP3   OH258065   5.002   6.437   4.457 -0.3965 -0.2297 -0.3956
12217TIP3    H158066   5.075   6.475   4.506 -0.6729 -0.5469  0.2805
12217TIP3    H258067   4.936   6.506   4.455  0.4700  0.6295 -2.3443
12218TIP3   OH258068   2.353   2.493  10.491  0.0927 -0.4511  0.1191
12218TIP3    H158069   2.386   2.553  10.424  0.6050  0.9529  1.5728
12218TIP3    H258070   2.361   2.541  10.573 -1.4533 -1.7411  1.0986
12219TIP3   OH258071   2.203   1.499  12.152  0.2316 -0.5207  0.0622
12219TIP3    H158072   2.120   1.530  12.117 -0.2283 -0.4672  1.1735
12219TIP3    H258073   2.181   1.464  12.238  1.2628 -1.0651  0.1172
12220TIP3   OH258074   0.821   5.271   4.346  0.2223 -0.6710 -0.4154
12220TIP3    H158075   0.840   5.293   4.437 -2.1655  0.2291 -0.0641
12220TIP3    H258076   0.735   5.228   4.349  1.2999 -3.1580 -1.9756
12221TIP3   OH258077   5.872   2.679   5.810  0.0152 -0.3590 -0.0042
12221TIP3    H158078   5.886   2.727   5.892  0.9858  0.1805 -0.4711
12221TIP3    H258079   5.950   2.623   5.802  1.1437  1.3154 -1.7171
12222TIP3   OH258080   4.244   3.619   1.360 -0.1412  0.0080  0.2476
12222TIP3    H158081   4.292   3.538   1.377 -1.2324 -0.5441  0.7670
12222TIP3    H258082   4.228   3.656   1.446 -0.8516  0.0566  0.1004
12223TIP3   OH258083   3.719   1.117  16.033  0.3220 -0.2391  0.3997
12223TIP3    H158084   3.770   1.042  16.003  1.0311  0.6545 -0.7075
12223TIP3    H258085   3.707   1.171  15.955 -3.8854 -1.1986  0.1115
12224TIP3   OH258086   6.325   1.726   1.227  0.1588  0.5028  0.6180
12224TIP3    H158087   6.310   1.633   1.246 -2.3128  1.0862  1.9224
12224TIP3    H258088   6.320   1.769   1.312  0.7818  1.9155 -0.0343
12225TIP3   OH258089   1.207   0.563  11.870  0.3147  0.0143 -0.3534
12225TIP3    H158090   1.267   0.624  11.912  0.1627  0.6345 -1.0213
12225TIP3    H258091   1.242   0.477  11.892 -0.4276  0.2502  2.0424
12226TIP3   OH258092   3.498   3.322   0.877 -0.8399 -0.0052  0.6647
12226TIP3    H158093   3.481   3.416   0.884 -1.3238 -0.0176 -0.1991
12226TIP3    H258094   3.525   3.296   0.965  1.7001  1.3948  0.3858
12227TIP3   OH258095   6.751   5.425  13.820 -0.1072 -0.3165 -0.3423
12227TIP3    H158096   6.722   5.481  13.748 -0.3589 -0.2188 -0.1662
12227TIP3    H258097   6.670   5.403  13.867 -0.1771 -1.8766 -1.1524
12228TIP3   OH258098   4.872   4.575  12.772  0.0895  0.3114 -0.7192
12228TIP3    H158099   4.906   4.642  12.713 -1.1514  1.2313 -0.4199
12228TIP3    H258100   4.806   4.529  12.720  2.0765 -1.8814 -1.5116
12229TIP3   OH258101   5.259   1.512   3.180 -0.1891  0.0425  0.3763
12229TIP3    H158102   5.282   1.519   3.087  0.6615 -1.1147  0.4817
12229TIP3    H258103   5.176   1.464   3.180  1.2275 -2.5785  0.2885
12230TIP3   OH258104   1.582   0.668   6.259  0.1274  0.0261 -0.0116
12230TIP3    H158105   1.614   0.746   6.214  0.9628  0.8314  1.8560
12230TIP3    H258106   1.660   0.613   6.269  0.2135  0.3613  1.3737
12231TIP3   OH258107   2.312   1.485  16.747 -1.0767  0.1008  0.4512
12231TIP3    H158108   2.348   1.572  16.733 -1.4971  0.5527  2.0025
12231TIP3    H258109   2.337   1.436  16.668  3.0434  0.3174  1.3811
12232TIP3   OH258110   4.716   6.300   2.306 -0.4619  0.3372  0.0129
12232TIP3    H158111   4.749   6.305   2.396 -0.3107 -0.9847  0.0555
12232TIP3    H258112   4.667   6.217   2.304 -0.5898  0.4309 -1.0821
12233TIP3   OH258113   4.867   2.320   2.727 -0.0603 -0.3835 -0.2011
12233TIP3    H158114   4.829   2.233   2.731 -1.6607  0.2938  0.4153
12233TIP3    H258115   4.859   2.346   2.635 -1.0689 -0.2808 -0.0944
12234TIP3   OH258116   3.552   3.552   3.447 -0.3021  0.2324  0.2442
12234TIP3    H158117   3.605   3.580   3.523 -1.6674 -1.0282  1.7276
12234TIP3    H258118   3.581   3.463   3.428 -0.2153  0.4139 -0.4993
12235TIP3   OH258119   2.866   2.739  11.489  0.4805  0.2759 -0.3448
12235TIP3    H158120   2.869   2.644  11.476  0.8674  0.1846  0.3642
12235TIP3    H258121   2.787   2.767  11.442  1.5124 -0.0924 -2.3617
12236TIP3   OH258122   6.699   3.594  16.304  0.3174 -0.4198  0.3797
12236TIP3    H158123   6.760   3.522  16.290  0.7865 -0.0328  0.4098
12236TIP3    H258124   6.723   3.630  16.389  0.7138  0.3722 -0.0578
12237TIP3   OH258125   2.710   5.382   6.730  0.3582 -0.4552  0.2139
12237TIP3    H158126   2.619   5.371   6.758 -1.1843  0.8366 -3.5562
12237TIP3    H258127   2.729   5.474   6.745  0.0835 -0.1336 -1.2542
12238TIP3   OH258128   3.475   3.610  11.498 -0.1176 -0.7944 -0.0649
12238TIP3    H158129   3.525   3.563  11.432  1.3478  0.2093  0.2793
12238TIP3    H258130   3.441   3.687  11.452 -0.0198 -0.6643  0.0790
12239TIP3   OH258131   2.873   4.813   2.259 -0.5504 -0.2708 -0.1657
12239TIP3    H158132   2.789   4.848   2.228 -0.7228  0.6198  1.2321
12239TIP3    H258133   2.860   4.799   2.353  0.9765  0.2168  0.1398
12240TIP3   OH258134   2.476   4.212   2.553 -0.3196 -0.5182 -0.1176
12240TIP3    H158135   2.417   4.287   2.543  0.0405  0.1727  2.3087
12240TIP3    H258136   2.434   4.157   2.619  0.8337 -0.9585  0.2700
12241TIP3   OH258137   5.494   0.267   4.114 -0.1861 -0.5772 -0.9577
12241TIP3    H158138   5.565   0.233   4.060 -0.9050 -1.6022 -1.2776
12241TIP3    H258139   5.463   0.344   4.066  2.2131  1.3597  0.3548
12242TIP3   OH258140   1.553   2.320  11.886 -0.2476 -0.4631 -0.1388
12242TIP3    H158141   1.612   2.264  11.935 -0.3535  0.2226  0.8019
12242TIP3    H258142   1.602   2.344  11.807  0.9546  0.5138  0.8685
12243TIP3   OH258143   2.316   5.909  11.643  0.2633  0.0785 -0.4552
12243TIP3    H158144   2.293   5.933  11.733  0.4441 -2.7233  0.4492
12243TIP3    H258145   2.252   5.954  11.588 -0.7782  0.6758  1.1907
12244TIP3   OH258146   0.351   4.565   3.361  0.2944  0.2785  0.7131
12244TIP3    H158147   0.412   4.619   3.411  1.4745 -0.0394 -0.3355
12244TIP3    H258148   0.389   4.559   3.274 -2.0997  1.4671 -0.5188
12245TIP3   OH258149   2.333   1.426   5.014  0.5275 -0.1153 -0.4001
12245TIP3    H158150   2.375   1.513   5.017  0.2480  0.0060  0.2444
12245TIP3    H258151   2.253   1.437   5.066 -0.5485 -0.2224 -1.9625
12246TIP3   OH258152   6.021   0.717   1.794  0.0400  0.1809  0.3869
12246TIP3    H158153   5.932   0.714   1.760 -0.0961  0.3991  0.7228
12246TIP3    H258154   6.013   0.758   1.880  0.5686  0.9330  0.0855
12247TIP3   OH258155   3.209   4.354   1.993  0.0067 -0.2945  0.1622
12247TIP3    H158156   3.114   4.362   1.989  0.0550  0.0017 -2.1522
12247TIP3    H258157   3.231   4.296   1.920  1.7216  1.3418 -0.7077
12248TIP3   OH258158   5.035   6.368   0.169  0.2192  0.6853  0.4869
12248TIP3    H158159   4.983   6.448   0.170 -1.2387 -0.2309  1.4886
12248TIP3    H258160   4.974   6.300   0.196  1.5341 -0.7103  0.0524
12249TIP3   OH258161   6.432   6.022   0.800  0.0048  0.2927  0.5098
12249TIP3    H158162   6.467   5.935   0.822  1.1427  0.0664 -1.8533
12249TIP3    H258163   6.509   6.077   0.788 -0.5383  0.7807 -1.0926
12250TIP3   OH258164   4.326   0.598  15.961  0.3230 -0.0055 -0.0162
12250TIP3    H158165   4.401   0.644  15.924 -0.9120  1.3554 -0.9334
12250TIP3    H258166   4.270   0.579  15.886 -0.2902 -0.9438  0.6589
12251TIP3   OH258167   3.698   6.634   5.828  0.3161 -0.0623  0.0106
12251TIP3    H158168   3.679   6.553   5.781  2.3662  0.3116 -1.6032
12251TIP3    H258169   3.778   6.616   5.876 -0.6360  0.2330  1.7777
12252TIP3   OH258170   4.866   1.191   2.488  0.2882 -0.0471 -0.2918
12252TIP3    H158171   4.832   1.232   2.408 -0.8875 -0.1912  0.1098
12252TIP3    H258172   4.844   1.252   2.558  0.4503 -0.3686  0.0445
12253TIP3   OH258173   5.067   1.081  16.219 -0.5884 -0.3856  0.4264
12253TIP3    H158174   5.085   0.988  16.205 -1.3060 -0.6930  1.4134
12253TIP3    H258175   4.995   1.101  16.159 -0.6015 -0.5213  0.3973
12254TIP3   OH258176   3.416   4.349   3.593 -0.0903  0.3082  0.1732
12254TIP3    H158177   3.510   4.349   3.608 -0.0408  1.6616  0.0240
12254TIP3    H258178   3.378   4.314   3.673  0.5652 -0.9468 -0.0527
12255TIP3   OH258179   4.015   4.100   2.429 -0.2045  0.1526 -0.2813
12255TIP3    H158180   4.056   4.015   2.442 -0.3585  0.2229  0.7731
12255TIP3    H258181   3.968   4.092   2.346  0.5853 -0.4625 -0.6745
12256TIP3   OH258182   4.804   5.745   2.989 -1.0741  0.3569 -0.0566
12256TIP3    H158183   4.737   5.720   2.925 -0.7318  0.9113 -0.6541
12256TIP3    H258184   4.852   5.816   2.946  0.9612 -1.1147 -0.3380
12257TIP3   OH258185   6.469   0.814  14.357  0.1814  0.2068 -0.2475
12257TIP3    H158186   6.485   0.804  14.263 -1.5370  0.8357 -0.6266
12257TIP3    H258187   6.502   0.901  14.377  1.0378 -0.1277 -0.1250
12258TIP3   OH258188   1.771   5.025  12.067  0.0899 -0.0574  0.6799
12258TIP3    H158189   1.805   4.937  12.047 -1.4919 -0.3555 -1.0060
12258TIP3    H258190   1.833   5.084  12.024 -0.2549 -0.5010 -0.4951
12259TIP3   OH258191   6.453   3.781   4.261 -0.0215  0.1672 -0.2380
12259TIP3    H158192   6.429   3.761   4.352  0.0759 -1.4989 -0.5390
12259TIP3    H258193   6.546   3.758   4.255  0.8198  3.1674 -0.0126
12260TIP3   OH258194   0.452   2.905  12.679 -0.2102  0.7456  0.1615
12260TIP3    H158195   0.376   2.887  12.623 -2.0152  0.6133  2.4678
12260TIP3    H258196   0.526   2.864  12.634 -2.1474 -2.5439 -0.3995
12261TIP3   OH258197   1.823   3.211  15.124 -0.6416  0.4759  0.3965
12261TIP3    H158198   1.847   3.140  15.183 -0.8864  0.8121  0.9143
12261TIP3    H258199   1.728   3.206  15.117 -0.6571  0.7242  0.4035
12262TIP3   OH258200   3.914   1.531   5.036  0.2236  0.0873  0.0530
12262TIP3    H158201   3.863   1.522   4.956  2.2495  0.2727 -1.3196
12262TIP3    H258202   3.896   1.450   5.085  0.6810 -1.1022 -1.6470
12263TIP3   OH258203   5.952   3.285  15.537 -0.5024 -0.9048 -0.2824
12263TIP3    H158204   5.882   3.347  15.555  0.7123  1.4189 -2.8574
12263TIP3    H258205   5.911   3.218  15.483 -1.3513 -1.2319  0.7327
12264TIP3   OH258206   2.822   3.991  11.371  0.0779 -0.1474 -0.5149
12264TIP3    H158207   2.841   4.051  11.299 -3.7505  1.6245 -0.2723
12264TIP3    H258208   2.861   4.032  11.448  2.6948 -1.1886 -1.1829
12265TIP3   OH258209   5.524   3.494  14.930  0.9086  0.2532  0.7071
12265TIP3    H158210   5.511   3.452  15.016  3.5463  0.5578  1.3175
12265TIP3    H258211   5.492   3.583  14.943 -0.4599 -0.2059  0.7554
12266TIP3   OH258212   4.146   6.205   5.939 -0.7596  0.0468 -0.3196
12266TIP3    H158213   4.149   6.114   5.908 -0.8935  0.2240 -0.8521
12266TIP3    H258214   4.062   6.238   5.907 -1.0509  0.1306  0.5167
12267TIP3   OH258215   1.561   3.469  14.364  0.5244  0.1024 -0.4023
12267TIP3    H158216   1.477   3.424  14.371  0.1133  0.8906 -0.1102
12267TIP3    H258217   1.624   3.400  14.344 -0.0673 -0.6105  0.1481
12268TIP3   OH258218   0.576   1.478   3.420 -0.1970  0.3069  0.0989
12268TIP3    H158219   0.669   1.479   3.396 -0.9892  0.5598 -3.6771
12268TIP3    H258220   0.555   1.386   3.435  0.1371 -0.1577 -1.9634
12269TIP3   OH258221   6.093   0.565   5.979 -0.5565 -0.6308 -0.0851
12269TIP3    H158222   6.187   0.559   5.967 -0.4817 -0.4008  0.3636
12269TIP3    H258223   6.059   0.481   5.947 -0.0424 -1.3603  1.2096
12270TIP3   OH258224   0.513   3.710   5.448 -0.2237  0.3023 -0.0836
12270TIP3    H158225   0.576   3.744   5.512 -0.9637  0.5171  0.5400
12270TIP3    H258226   0.503   3.618   5.470  2.0452 -0.5022 -1.9893
12271TIP3   OH258227   4.445   5.480   5.446 -0.3163  0.3299 -0.1708
12271TIP3    H158228   4.503   5.548   5.414  1.1880  0.5509  2.7014
12271TIP3    H258229   4.479   5.399   5.407 -1.4019  0.9827 -2.6631
12272TIP3   OH258230   3.989   0.191   4.845  0.1765 -0.2149 -0.1664
12272TIP3    H158231   3.974   0.114   4.900  1.3370 -0.6556 -0.4374
12272TIP3    H258232   4.082   0.187   4.823  0.1013  0.8877 -0.7689
12273TIP3   OH258233   6.762   1.503  14.079  0.0512  0.5238  0.8226
12273TIP3    H158234   6.711   1.425  14.057  0.3855  0.9175 -1.7342
12273TIP3    H258235   6.848   1.470  14.103  0.0849  0.0528  0.0968
12274TIP3   OH258236   2.661   5.416   2.978  0.1496 -0.8809 -0.3441
12274TIP3    H158237   2.608   5.347   2.939 -0.4687 -1.0221  0.7101
12274TIP3    H258238   2.663   5.395   3.071  1.1254 -0.2468 -0.2088
12275TIP3   OH258239   0.756   4.601   4.256 -0.4724  0.8379  0.3512
12275TIP3    H158240   0.671   4.643   4.242 -1.3225 -1.1300 -0.7750
12275TIP3    H258241   0.818   4.657   4.209 -1.6745  0.4980 -1.7728
12276TIP3   OH258242   2.969   3.237  17.081  0.0229 -0.0044  0.2997
12276TIP3    H158243   2.916   3.162  17.056  0.9515 -0.2970 -0.9189
12276TIP3    H258244   2.918   3.313  17.054  0.3702 -0.2913 -1.3014
12277TIP3   OH258245   2.311   0.293   5.539 -0.1887  0.7204  0.5738
12277TIP3    H158246   2.297   0.267   5.448 -0.0217  2.5697 -0.0306
12277TIP3    H258247   2.401   0.266   5.558 -0.3313  0.0382  0.3012
12278TIP3   OH258248   0.700   0.116   4.615 -0.3731 -0.3933 -0.2064
12278TIP3    H158249   0.622   0.068   4.645 -1.8519  1.5228 -0.7541
12278TIP3    H258250   0.772   0.081   4.668 -2.1073 -0.1425  2.5289
12279TIP3   OH258251   2.972   1.794   2.504 -0.1745  0.2242 -0.3035
12279TIP3    H158252   2.880   1.786   2.478  0.1121 -2.4174 -0.8151
12279TIP3    H258253   2.970   1.848   2.582 -2.1687  0.3249 -0.3588
12280TIP3   OH258254   2.411   3.321   6.117  0.0837 -0.1716 -0.0268
12280TIP3    H158255   2.471   3.247   6.130  1.7945  0.9754 -1.0324
12280TIP3    H258256   2.325   3.280   6.106  0.6999 -1.8906  1.0841
12281TIP3   OH258257   5.697   6.492   0.416  0.1444  0.8606  0.3878
12281TIP3    H158258   5.631   6.525   0.355  0.3563  1.5356  0.5127
12281TIP3    H258259   5.649   6.474   0.496 -0.3895 -1.3152 -0.3607
12282TIP3   OH258260   2.501   6.603   2.732 -0.0054 -0.2981 -0.2253
12282TIP3    H158261   2.530   6.673   2.673  2.3288 -0.2697  0.8262
12282TIP3    H258262   2.536   6.523   2.694 -0.7261 -0.6141 -0.2374
12283TIP3   OH258263   4.104   6.250   0.964  0.2997  0.1379 -0.3585
12283TIP3    H158264   4.171   6.262   0.897  0.2801  1.2080 -0.2032
12283TIP3    H258265   4.050   6.329   0.959  0.9292  0.7418  1.6336
12284TIP3   OH258266   0.437   4.218  16.758 -0.5320  0.1003  0.0630
12284TIP3    H158267   0.363   4.252  16.707  0.0525 -0.9695 -1.6030
12284TIP3    H258268   0.498   4.291  16.763 -1.2615  0.6858  0.5793
12285TIP3   OH258269   1.781   6.068  15.739  0.2693  0.1271  0.7990
12285TIP3    H158270   1.873   6.091  15.740  0.5861 -0.8418 -0.9837
12285TIP3    H258271   1.767   6.018  15.820  1.7449 -1.1374  0.3249
12286TIP3   OH258272   0.013   3.960  13.068  0.2897 -0.2092  0.2569
12286TIP3    H158273   0.036   3.892  13.132 -1.5842  0.0437  1.2549
12286TIP3    H258274   0.075   4.031  13.086  0.4071 -0.5202  1.1590
12287TIP3   OH258275   1.464   2.231   5.613  0.0201  0.6356  0.5532
12287TIP3    H158276   1.479   2.137   5.603 -1.2629  0.1647  2.4973
12287TIP3    H258277   1.506   2.270   5.536  0.7563 -1.4879 -0.2055
12288TIP3   OH258278   3.325   6.524  17.059  0.4282  0.6923  0.4142
12288TIP3    H158279   3.380   6.515  16.981  0.7578 -0.3227  0.7579
12288TIP3    H258280   3.236   6.533  17.025  0.2378 -2.2114 -0.0532
12289TIP3   OH258281   4.576   5.008  14.746 -0.3593  0.5349 -0.2512
12289TIP3    H158282   4.560   5.103  14.745 -1.4241  0.3542 -1.2364
12289TIP3    H258283   4.651   4.997  14.688  0.0512  0.8008  0.2092
12290TIP3   OH258284   6.516   4.352  17.248 -0.5769 -0.4749  0.0816
12290TIP3    H158285   6.444   4.411  17.227 -0.2004 -0.4868 -1.3779
12290TIP3    H258286   6.544   4.318  17.163 -0.9547 -2.9896  0.8935
12291TIP3   OH258287   6.415   3.328   6.014 -0.2087 -0.1543  0.2467
12291TIP3    H158288   6.320   3.337   6.003 -0.1344 -0.8916 -1.2331
12291TIP3    H258289   6.449   3.416   5.995 -0.5916  0.1512  0.9275
12292TIP3   OH258290   2.395   4.177  14.011  0.3832  0.2280  0.2632
12292TIP3    H158291   2.359   4.090  14.025  2.0895 -0.7249 -0.8814
12292TIP3    H258292   2.334   4.220  13.951  0.3804 -0.7948 -0.4804
12293TIP3   OH258293   0.490   4.786   2.199 -0.3189  0.1266  0.1335
12293TIP3    H158294   0.435   4.863   2.186  0.7938  1.3978  2.3090
12293TIP3    H258295   0.456   4.746   2.279 -0.3892 -1.2356 -0.5518
12294TIP3   OH258296   0.661   5.640  14.584 -0.7790  0.6472 -0.1702
12294TIP3    H158297   0.607   5.603  14.654 -0.2288  0.3505  0.1052
12294TIP3    H258298   0.728   5.691  14.630 -1.2236  1.5848 -0.5273
12295TIP3   OH258299   0.880   4.912   2.027  0.5122  0.1349  0.3364
12295TIP3    H158300   0.817   4.960   1.973 -1.7807 -2.6624  0.2914
12295TIP3    H258301   0.965   4.929   1.986 -0.5408  1.9463 -1.2203
12296TIP3   OH258302   5.613   1.177  11.621  0.3662 -0.8305 -0.1446
12296TIP3    H158303   5.628   1.209  11.710 -0.7773 -2.7025  0.7902
12296TIP3    H258304   5.565   1.247  11.578  1.4863  0.3752  0.4698
12297TIP3   OH258305   4.243   2.410  16.224 -0.1759 -0.5684 -0.3321
12297TIP3    H158306   4.262   2.342  16.289 -0.9746  2.3561  3.3288
12297TIP3    H258307   4.321   2.466  16.225 -1.0885  0.7591 -0.1022
12298TIP3   OH258308   4.858   0.336  11.987 -0.3359  0.1827 -0.6551
12298TIP3    H158309   4.769   0.307  12.009 -0.6512  1.5697  0.0110
12298TIP3    H258310   4.909   0.255  11.981 -1.1273 -0.5232  1.3042
12299TIP3   OH258311   2.670   5.252   0.879 -0.2331  0.0883 -0.2430
12299TIP3    H158312   2.687   5.337   0.838 -0.4998  0.1680 -0.1905
12299TIP3    H258313   2.757   5.212   0.888 -0.3177 -1.0192 -3.1986
12300TIP3   OH258314   1.488   2.774  13.657  0.4055 -0.1846 -0.1850
12300TIP3    H158315   1.463   2.731  13.575  3.4330  0.9478 -1.8803
12300TIP3    H258316   1.494   2.867  13.634 -0.6214  0.4538  1.9094
12301TIP3   OH258317   2.465   0.809   2.195 -0.4300  0.1439  0.2693
12301TIP3    H158318   2.555   0.827   2.220 -0.7536  1.3515  0.6471
12301TIP3    H258319   2.444   0.876   2.131 -1.0021 -0.2490  0.0351
12302TIP3   OH258320   2.841   6.395  12.684  0.1659 -0.6112  0.0585
12302TIP3    H158321   2.925   6.423  12.647  0.5148 -1.3698  0.2469
12302TIP3    H258322   2.863   6.368  12.774 -0.1260 -1.5493 -0.1372
12303TIP3   OH258323   2.715   2.262   5.898 -0.3035 -0.1263 -0.9759
12303TIP3    H158324   2.791   2.204   5.897  2.0270  2.6841 -0.2288
12303TIP3    H258325   2.669   2.244   5.816  2.3696 -0.5034 -2.4780
12304TIP3   OH258326   1.757   4.280  15.513  0.2500  0.4601  0.2399
12304TIP3    H158327   1.716   4.234  15.586  0.3370  0.6491  0.4077
12304TIP3    H258328   1.708   4.362  15.505  1.1195  1.0616  0.9731
12305TIP3   OH258329   5.802   4.967   3.818 -0.9628  0.5028  0.3293
12305TIP3    H158330   5.831   5.023   3.889  1.0554 -1.5257  1.2305
12305TIP3    H258331   5.727   4.919   3.853 -0.3817 -0.0106  0.8914
12306TIP3   OH258332   4.097   4.137   5.468 -0.0464  0.0544 -0.3780
12306TIP3    H158333   4.108   4.060   5.413 -1.8035 -1.5002  1.3011
12306TIP3    H258334   4.062   4.204   5.408 -0.2340 -1.0224 -1.5047
12307TIP3   OH258335   6.384   6.473  15.166  0.9355  0.0701  0.1515
12307TIP3    H158336   6.417   6.519  15.243 -1.4697  0.6419  0.9381
12307TIP3    H258337   6.329   6.537  15.121  0.6399 -0.8889 -0.9038
12308TIP3   OH258338   4.252   2.596  14.189  0.0356  0.2047  0.2913
12308TIP3    H158339   4.244   2.688  14.165 -0.7623  0.0639 -0.0069
12308TIP3    H258340   4.271   2.551  14.107 -2.7650 -0.2860 -0.1856
12309TIP3   OH258341   5.297   3.711   5.521 -0.6506 -0.2076  0.1149
12309TIP3    H158342   5.291   3.647   5.592  0.3463  1.2164  1.5422
12309TIP3    H258343   5.314   3.794   5.564  0.5679  0.6311 -1.8084
12310TIP3   OH258344   2.100   5.564   3.707  0.5391  0.0598  0.1355
12310TIP3    H158345   2.118   5.581   3.615 -0.6089 -0.1366 -0.1433
12310TIP3    H258346   2.137   5.639   3.753  0.4039  0.5684 -0.5655
12311TIP3   OH258347   2.400   5.532  14.549  0.0605 -0.5820 -0.1381
12311TIP3    H158348   2.313   5.569  14.533  0.3449 -0.2295 -0.9579
12311TIP3    H258349   2.458   5.608  14.549  0.5534 -0.9451 -1.0936
12312TIP3   OH258350   4.725   0.996   4.357 -0.0040  0.1401  0.1178
12312TIP3    H158351   4.649   1.007   4.414  0.3410 -0.6079  0.7484
12312TIP3    H258352   4.696   1.024   4.271 -0.8899  0.1640  0.4190
12313TIP3   OH258353   3.860   4.161   0.278  0.3971  0.1365 -0.3190
12313TIP3    H158354   3.829   4.151   0.188 -0.4493  0.1640 -0.0365
12313TIP3    H258355   3.818   4.241   0.309 -1.0196 -0.9896  0.7863
12314TIP3   OH258356   6.589   2.983  12.105  0.2288  0.0305 -0.0832
12314TIP3    H158357   6.493   2.990  12.096  0.3528  0.7409 -1.0144
12314TIP3    H258358   6.622   3.065  12.067  1.2056 -0.1921  0.2820
12315TIP3   OH258359   0.693   5.142  14.824 -0.4400  0.0169 -0.3291
12315TIP3    H158360   0.634   5.132  14.749 -1.2014  1.3347  0.0613
12315TIP3    H258361   0.721   5.052  14.844 -3.2618 -0.8553  0.2207
12316TIP3   OH258362   1.318   0.555   6.310  0.3369 -0.5327 -0.4089
12316TIP3    H158363   1.411   0.577   6.303  0.2098 -0.3658 -1.7916
12316TIP3    H258364   1.317   0.461   6.328  0.7679 -0.6038 -0.7367
12317TIP3   OH258365   1.379   6.060   4.622 -0.0140  0.1635  0.6531
12317TIP3    H158366   1.401   6.003   4.549  1.1008  1.6749 -0.2536
12317TIP3    H258367   1.303   6.019   4.663  0.3553 -1.5903 -0.3410
12318TIP3   OH258368   4.940   4.513   2.186  0.5252  0.0962  0.6525
12318TIP3    H158369   4.892   4.591   2.214  1.3435  0.4733  1.0493
12318TIP3    H258370   4.947   4.523   2.091  1.9164  1.3001  0.8407
12319TIP3   OH258371   0.226   4.048  15.349  0.2363  0.2353  0.1253
12319TIP3    H158372   0.181   3.978  15.300 -1.0029  0.2405  1.2173
12319TIP3    H258373   0.310   4.009  15.373  0.7426  0.1204 -1.7033
12320TIP3   OH258374   1.611   1.058  15.958  0.0280 -0.0538 -0.0804
12320TIP3    H158375   1.518   1.080  15.966  0.0732  0.8289 -1.6375
12320TIP3    H258376   1.649   1.131  15.909  1.5234 -0.4698  0.4159
12321TIP3   OH258377   4.818   2.097   5.693 -0.3513 -0.0159  0.0565
12321TIP3    H158378   4.860   2.103   5.607  2.2930 -0.3733  1.2189
12321TIP3    H258379   4.840   2.180   5.736  2.3209 -1.5242  1.9328
12322TIP3   OH258380   6.630   1.540   2.116  0.1964 -0.5553 -0.3171
12322TIP3    H158381   6.626   1.625   2.073 -1.5448  0.1664  1.1527
12322TIP3    H258382   6.670   1.558   2.201 -0.7981 -1.0422  0.2778
12323TIP3   OH258383   1.067   0.767   4.722 -0.3028  0.0724 -0.4375
12323TIP3    H158384   1.003   0.754   4.651 -0.4918  2.5623 -0.8024
12323TIP3    H258385   1.017   0.751   4.802 -1.1529  1.0412 -0.7519
12324TIP3   OH258386   4.149   6.161  16.584 -0.0349  0.1010 -0.8056
12324TIP3    H158387   4.082   6.229  16.580  0.2107  0.3630 -0.5068
12324TIP3    H258388   4.227   6.206  16.617  0.1382 -0.3216 -0.6359
12325TIP3   OH258389   4.272   1.831   4.458 -0.0158  0.7792 -0.0821
12325TIP3    H158390   4.185   1.791   4.450 -1.3621  3.1099  1.4364
12325TIP3    H258391   4.294   1.858   4.369 -1.2350  0.8335 -0.3856
12326TIP3   OH258392   6.661   5.459  11.271 -0.4478 -0.0224  0.6515
12326TIP3    H158393   6.705   5.533  11.313  1.2542  0.2553 -1.4411
12326TIP3    H258394   6.590   5.500  11.221 -0.8613 -0.0663  1.1948
12327TIP3   OH258395   2.287   5.217  13.282 -0.4888  0.8402 -0.4447
12327TIP3    H158396   2.219   5.251  13.339  0.3702  1.7804  0.0649
12327TIP3    H258397   2.368   5.225  13.333 -0.1815 -1.9611 -0.3031
12328TIP3   OH258398   2.978   6.172   0.498 -0.7145 -0.3356  0.0542
12328TIP3    H158399   2.962   6.144   0.588 -0.8587  1.0353  0.4813
12328TIP3    H258400   2.903   6.227   0.475  0.8939  2.1838  0.3672
12329TIP3   OH258401   2.927   1.580  16.541  0.1574 -0.6346 -0.3173
12329TIP3    H158402   2.988   1.643  16.579 -0.3768 -0.2473 -0.0834
12329TIP3    H258403   2.902   1.619  16.457 -1.2902  0.2084  0.4615
12330TIP3   OH258404   5.020   5.667   3.857 -0.2669  0.0367 -0.8245
12330TIP3    H158405   5.070   5.693   3.934 -1.7366 -1.0781  0.5700
12330TIP3    H258406   5.076   5.605   3.811  0.1739 -0.1503 -0.0436
12331TIP3   OH258407   1.332   1.987  13.542 -0.2874 -0.3721  0.0965
12331TIP3    H158408   1.243   1.975  13.575 -0.1894 -0.0405  0.4902
12331TIP3    H258409   1.353   1.903  13.501 -0.7755 -0.4563  0.0082
12332TIP3   OH258410   0.264   4.751  13.050  0.1918  0.3287  0.3126
12332TIP3    H158411   0.286   4.668  13.008  0.4192  1.1352 -1.2531
12332TIP3    H258412   0.184   4.732  13.099  0.7745 -1.0401  0.7944
12333TIP3   OH258413   3.381   6.252   3.216 -0.6276 -0.0968  0.0708
12333TIP3    H158414   3.358   6.341   3.190 -1.4690 -0.4471 -0.4313
12333TIP3    H258415   3.476   6.253   3.222 -0.5272  0.4894 -1.2627
12334TIP3   OH258416   4.778   6.356  11.552  1.4629 -0.4232 -0.2445
12334TIP3    H158417   4.847   6.389  11.495  1.1769 -0.0092 -0.3510
12334TIP3    H258418   4.818   6.354  11.639  1.0164  1.7085  0.0589
12335TIP3   OH258419   5.108   2.854  12.099 -0.2662  0.2658 -0.8521
12335TIP3    H158420   5.044   2.789  12.128  0.0605 -0.0249 -0.7735
12335TIP3    H258421   5.061   2.906  12.034 -0.9814  0.8644  0.1144
12336TIP3   OH258422   2.093   6.353  13.319 -0.3420  0.2922 -0.0292
12336TIP3    H158423   2.100   6.374  13.412  0.3712  1.0197 -0.2289
12336TIP3    H258424   2.171   6.300  13.302 -0.2579  0.4975 -0.2885
12337TIP3   OH258425   5.935   6.518   0.509 -0.2183  0.0443 -0.5983
12337TIP3    H158426   5.851   6.515   0.464 -1.0901  1.4581  0.8195
12337TIP3    H258427   5.950   6.429   0.540 -1.4035 -0.1304 -0.4979
12338TIP3   OH258428   4.634   1.939   5.217  0.7742  0.4320 -0.0895
12338TIP3    H158429   4.544   1.954   5.189 -0.0752 -2.3375  0.8020
12338TIP3    H258430   4.659   1.857   5.174  2.7762  0.9705 -0.0536
12339TIP3   OH258431   5.623   1.973   0.426 -0.1509 -0.0922 -0.7150
12339TIP3    H158432   5.548   2.031   0.443 -0.7434 -1.2303  0.7957
12339TIP3    H258433   5.610   1.899   0.485  2.0757 -0.4216 -0.5532
12340TIP3   OH258434   2.554   4.279   3.370  0.3479 -0.4178 -0.3732
12340TIP3    H158435   2.591   4.271   3.458 -1.0935 -1.0834  0.2006
12340TIP3    H258436   2.507   4.362   3.372 -1.3141 -1.3149  0.1673
12341TIP3   OH258437   2.754   4.861   5.425 -0.2965  0.4969  0.2289
12341TIP3    H158438   2.721   4.926   5.362  1.5999  1.9660  0.6460
12341TIP3    H258439   2.679   4.841   5.481 -0.8908  2.5886  0.2619
12342TIP3   OH258440   1.050   1.819  11.947 -0.0423 -0.0349 -0.0064
12342TIP3    H158441   0.959   1.791  11.949  0.1678 -0.7113  0.5268
12342TIP3    H258442   1.055   1.880  11.873 -0.7633 -0.5704 -0.5074
12343TIP3   OH258443   3.937   5.420  14.133 -0.4090  0.4536  0.2309
12343TIP3    H158444   3.991   5.473  14.074  0.5592 -0.4204  0.3026
12343TIP3    H258445   3.847   5.439  14.107  0.0025 -0.1001 -1.7021
12344TIP3   OH258446   0.687   4.763  12.567  0.0208  0.2010  0.3187
12344TIP3    H158447   0.704   4.670  12.550 -0.3086 -0.1745  1.9037
12344TIP3    H258448   0.711   4.807  12.485  0.7330 -1.2080 -0.2642
12345TIP3   OH258449   6.032   5.459  13.174  0.7391 -0.3171  0.1310
12345TIP3    H158450   5.971   5.524  13.138  0.5705 -1.6571 -2.2186
12345TIP3    H258451   5.976   5.395  13.217  0.7859  0.2338  1.0338
12346TIP3   OH258452   5.415   1.741  13.383 -0.2027 -1.0711  0.1245
12346TIP3    H158453   5.322   1.763  13.378  0.1698  0.7174  0.4105
12346TIP3    H258454   5.425   1.697  13.467 -0.3032  1.6862  1.7094
12347TIP3   OH258455   6.176   0.608   4.889 -0.6070 -0.3003 -0.7636
12347TIP3    H158456   6.180   0.704   4.891  0.5960 -0.3480 -0.2509
12347TIP3    H258457   6.085   0.589   4.867 -1.0586  0.9548 -0.0906
12348TIP3   OH258458   4.427   6.750  17.027 -0.4050 -0.5513 -0.8389
12348TIP3    H158459   4.403   6.683  17.090  1.1182 -0.3489 -0.0234
12348TIP3    H258460   4.400   6.832  17.068 -1.8954 -0.5794 -1.6634
12349TIP3   OH258461   2.067   5.490  15.450  0.2739  0.1412  0.2623
12349TIP3    H158462   2.027   5.575  15.465  1.2637  0.6602  0.0630
12349TIP3    H258463   2.099   5.495  15.360  0.7710 -0.2559  0.4137
12350TIP3   OH258464   5.764   6.736   2.261  0.8373  1.2751 -0.2499
12350TIP3    H158465   5.748   6.668   2.195  1.5415  0.8364  0.0163
12350TIP3    H258466   5.742   6.818   2.217 -1.8450  0.7707  0.0153
12351TIP3   OH258467   2.377   1.001   3.104  0.1200  0.1588 -0.2239
12351TIP3    H158468   2.406   1.092   3.111  2.5044 -0.5854  0.4088
12351TIP3    H258469   2.381   0.982   3.010  2.4625 -0.0969 -0.1219
12352TIP3   OH258470   3.554   0.914   1.118  0.5467 -0.0624 -0.4729
12352TIP3    H158471   3.607   0.915   1.197 -0.0992  0.1220 -0.0338
12352TIP3    H258472   3.505   0.831   1.122 -0.4260  0.5155 -0.0318
12353TIP3   OH258473   2.925   5.173  16.250  0.8730 -0.3752 -0.0151
12353TIP3    H158474   2.960   5.125  16.326 -0.4546  1.3912  1.8029
12353TIP3    H258475   3.003   5.210  16.208  1.6140 -1.0835  0.6871
12354TIP3   OH258476   5.474   5.205  12.131 -0.1456 -0.8657 -0.0742
12354TIP3    H158477   5.466   5.153  12.050 -1.6796  0.4436 -0.8222
12354TIP3    H258478   5.514   5.287  12.103 -0.3594 -0.5384  0.5595
12355TIP3   OH258479   6.767   3.702   4.864  0.3352  0.0857  0.4924
12355TIP3    H158480   6.758   3.723   4.771  1.4659  0.2245  0.4127
12355TIP3    H258481   6.793   3.610   4.865 -1.3801 -0.4381  0.7461
12356TIP3   OH258482   2.736   3.451   2.183  0.1165 -0.0686 -0.6466
12356TIP3    H158483   2.731   3.383   2.116  1.0329  0.7558 -1.5893
12356TIP3    H258484   2.649   3.452   2.223  0.5753 -3.0850  0.7485
12357TIP3   OH258485   6.749   4.729   0.711  0.1071 -0.4826  0.6641
12357TIP3    H158486   6.758   4.790   0.785 -0.9366 -1.3889  1.5681
12357TIP3    H258487   6.790   4.775   0.638 -2.1603  2.0991  0.8342
12358TIP3   OH258488   5.182   5.861   0.856  0.2484 -0.3484  0.2643
12358TIP3    H158489   5.198   5.927   0.923  0.1114 -1.1959  1.1469
12358TIP3    H258490   5.140   5.910   0.785  0.0830  0.5010  0.9218
12359TIP3   OH258491   0.180   6.727   0.957  0.0906  0.4570  0.1541
12359TIP3    H158492   0.215   6.776   0.882  0.1350 -1.0722 -0.8666
12359TIP3    H258493   0.254   6.674   0.988 -0.7001 -1.2209 -0.6974
12360TIP3   OH258494   3.343   2.062  15.540 -0.0703 -0.0581 -0.5733
12360TIP3    H158495   3.435   2.034  15.545 -0.5126 -1.3491  2.7474
12360TIP3    H258496   3.293   1.980  15.542 -1.4170  0.5342 -3.7647
12361TIP3   OH258497   1.497   1.315   4.683 -0.7824  0.4449 -0.6021
12361TIP3    H158498   1.531   1.337   4.596  0.1501  0.3470 -0.2722
12361TIP3    H258499   1.491   1.399   4.729  1.7272  0.2125  0.2827
12362TIP3   OH258500   3.768   0.422  17.163  0.2461 -0.3319 -0.2420
12362TIP3    H158501   3.735   0.354  17.222  0.5354  1.4175  2.0724
12362TIP3    H258502   3.696   0.485  17.155  0.5479 -0.0653 -0.9969
12363TIP3   OH258503   2.771   2.577   3.990 -0.1253  0.3884  1.0238
12363TIP3    H158504   2.693   2.624   3.962  0.5665  0.8001 -0.2711
12363TIP3    H258505   2.811   2.633   4.057 -0.6992  0.3739  1.3850
12364TIP3   OH258506   3.064   2.507  10.819  0.1223  0.7275 -0.1238
12364TIP3    H158507   2.994   2.450  10.852  0.3129  0.5231 -0.0727
12364TIP3    H258508   3.138   2.448  10.803  0.8505  1.1630  1.4052
12365TIP3   OH258509   0.414   6.232   3.108  0.0362 -0.1902 -0.1191
12365TIP3    H158510   0.493   6.284   3.095  0.2104 -0.3932  0.1148
12365TIP3    H258511   0.397   6.192   3.022 -0.5308  0.8347 -0.5086
12366TIP3   OH258512   2.946   5.241   6.713  0.1827 -0.2067  0.0367
12366TIP3    H158513   2.926   5.156   6.674 -0.7054  0.3489 -0.7537
12366TIP3    H258514   2.861   5.285   6.719  0.4851  0.2363  1.3998
12367TIP3   OH258515   5.441   4.136   2.256 -0.1434 -0.4763 -0.2867
12367TIP3    H158516   5.501   4.198   2.297  0.5500 -1.5285  0.3298
12367TIP3    H258517   5.452   4.152   2.162  0.3777 -0.0026 -0.1544
12368TIP3   OH258518   0.380   4.521  11.653  0.3281 -0.1476  0.7611
12368TIP3    H158519   0.460   4.551  11.695  1.1448  0.7524 -1.2890
12368TIP3    H258520   0.395   4.537  11.560 -1.2299 -2.3514  0.0523
12369TIP3   OH258521   1.951   2.420  16.835 -0.1827  0.7820 -0.0276
12369TIP3    H158522   1.953   2.489  16.901 -0.7412 -1.1898  2.1881
12369TIP3    H258523   1.887   2.357  16.868  1.1594 -1.3930 -1.3030
12370TIP3   OH258524   1.345   4.163   2.305  0.0772  0.3895  0.1656
12370TIP3    H158525   1.280   4.104   2.267 -1.2920  2.5805 -1.1205
12370TIP3    H258526   1.368   4.123   2.389 -0.5363 -2.0649 -0.7474
12371TIP3   OH258527   5.633   4.574  13.412 -0.0300 -0.5875 -0.5004
12371TIP3    H158528   5.609   4.499  13.358  1.4145 -0.6116 -1.1453
12371TIP3    H258529   5.705   4.616  13.365 -0.7458  1.1681 -0.1117
12372TIP3   OH258530   4.274   0.451   0.404  0.0765 -0.1467 -0.1387
12372TIP3    H158531   4.236   0.430   0.319  0.8405  1.1433 -0.8265
12372TIP3    H258532   4.324   0.374   0.428 -1.8141 -1.3615  0.1588
12373TIP3   OH258533   0.622   0.219  16.968  0.4478  0.5776 -0.0213
12373TIP3    H158534   0.536   0.258  16.980  0.1920 -0.1095  0.4623
12373TIP3    H258535   0.658   0.213  17.057 -0.5564 -2.5550  0.3215
12374TIP3   OH258536   0.457   2.635  13.441  0.6977  0.4874  0.4143
12374TIP3    H158537   0.532   2.625  13.500  0.0390  0.4400  1.2564
12374TIP3    H258538   0.387   2.585  13.483  0.5462 -0.5746 -1.0332
12375TIP3   OH258539   3.729   4.320   5.132  0.3572  0.5361  0.2046
12375TIP3    H158540   3.805   4.352   5.082  1.9494  1.8357  3.2125
12375TIP3    H258541   3.672   4.396   5.139  0.3905  0.5093  0.7808
12376TIP3   OH258542   2.293   5.168   6.729  0.5280 -0.4285  0.3600
12376TIP3    H158543   2.234   5.182   6.655  0.6068  0.3296  0.4334
12376TIP3    H258544   2.243   5.113   6.789 -0.1004  0.1850  0.4122
12377TIP3   OH258545   2.072   0.515   5.906  0.2641 -0.8540  0.3228
12377TIP3    H158546   1.988   0.555   5.884  0.0949 -0.9409  0.7948
12377TIP3    H258547   2.048   0.436   5.955  0.6353  0.1723  2.2589
12378TIP3   OH258548   0.610   0.362  14.343 -0.1945 -0.2448 -0.2598
12378TIP3    H158549   0.532   0.375  14.288 -0.0799  1.5061 -0.0772
12378TIP3    H258550   0.667   0.305  14.291 -1.0624 -0.5226 -0.9423
12379TIP3   OH258551   2.299   1.615   2.980  0.1967  0.2406  0.3060
12379TIP3    H158552   2.349   1.677   3.034  0.3279 -0.1482  0.6379
12379TIP3    H258553   2.362   1.586   2.914  0.3166 -0.0062  0.5281
12380TIP3   OH258554   2.227   5.476  11.164  0.5299 -0.2356  0.1880
12380TIP3    H158555   2.155   5.513  11.215 -1.0238 -1.3654 -1.0658
12380TIP3    H258556   2.184   5.420  11.099  2.5591 -1.0148 -0.5758
12381TIP3   OH258557   3.274   0.141  14.686 -1.2080 -0.2226  0.0909
12381TIP3    H158558   3.205   0.087  14.646 -1.6646  0.6093 -0.2819
12381TIP3    H258559   3.258   0.135  14.780 -1.9570  0.1655 -0.0052
12382TIP3   OH258560   2.204   5.209  11.954 -0.6828 -0.6537 -0.4282
12382TIP3    H158561   2.207   5.140  11.888  0.6910 -1.0015 -0.0292
12382TIP3    H258562   2.220   5.290  11.904 -1.9241 -0.6365 -0.8386
12383TIP3   OH258563   2.345   0.336  15.142 -0.3037  0.0544 -0.2770
12383TIP3    H158564   2.352   0.432  15.140  0.1279  0.0154 -0.6639
12383TIP3    H258565   2.368   0.308  15.054 -1.9950 -0.3141 -0.6368
12384TIP3   OH258566   3.975   6.771  11.062 -0.5797  0.4417 -0.3374
12384TIP3    H158567   3.962   6.772  11.157  0.7814 -0.3888 -0.1122
12384TIP3    H258568   4.059   6.727  11.050 -0.4693  1.0194 -1.9077
12385TIP3   OH258569   4.956   2.621   5.761  0.1359 -0.5282  0.0689
12385TIP3    H158570   4.922   2.705   5.792  0.8506 -0.4238  0.6070
12385TIP3    H258571   4.988   2.639   5.673  0.2838 -0.2376  0.1803
12386TIP3   OH258572   2.007   0.572   0.390 -0.3197  0.2493  0.2274
12386TIP3    H158573   1.996   0.478   0.378  2.7695 -0.2870  0.8666
12386TIP3    H258574   2.000   0.609   0.302 -1.2746 -0.5848 -0.0645
12387TIP3   OH258575   6.313   2.390   2.017 -0.6334 -0.2991 -0.1470
12387TIP3    H158576   6.277   2.313   2.061 -2.6706 -0.2382 -1.5677
12387TIP3    H258577   6.375   2.355   1.954 -0.6122 -0.6837  0.0832
12388TIP3   OH258578   2.560   6.328   4.496  0.8893 -0.3373  0.0174
12388TIP3    H158579   2.482   6.383   4.498 -0.5259 -2.2513  0.6613
12388TIP3    H258580   2.566   6.291   4.584  1.4089 -1.6846 -0.5465
12389TIP3   OH258581   3.435   0.260  16.210 -0.0702  0.9476 -0.4725
12389TIP3    H158582   3.428   0.225  16.121 -1.9729  0.6152 -0.2390
12389TIP3    H258583   3.517   0.224  16.244  0.2426  0.3720 -1.7852
12390TIP3   OH258584   2.942   0.013   2.463 -0.4524 -0.5909  0.5953
12390TIP3    H158585   3.006   0.084   2.453  0.4605 -1.5718 -1.1057
12390TIP3    H258586   2.988  -0.054   2.514 -0.7483 -0.6155  0.8351
12391TIP3   OH258587   0.588   1.637  15.629 -0.3632 -0.0243 -0.0435
12391TIP3    H158588   0.532   1.634  15.706  0.2668 -0.7836  0.4048
12391TIP3    H258589   0.592   1.730  15.606  2.3698  0.8371  3.0763
12392TIP3   OH258590   0.426   3.642  16.122 -0.5318 -0.1922 -0.0907
12392TIP3    H158591   0.433   3.704  16.050 -0.6384  0.3664  0.3699
12392TIP3    H258592   0.516   3.613  16.137 -0.7590 -2.0241 -1.8911
12393TIP3   OH258593   1.392   4.088   2.845 -0.1804 -0.4510 -0.5780
12393TIP3    H158594   1.350   4.074   2.930  0.1233  2.3512  0.1234
12393TIP3    H258595   1.321   4.082   2.782 -1.0733  0.8806  0.2594
12394TIP3   OH258596   0.020   6.271   4.742 -0.3377  0.2695  0.7551
12394TIP3    H158597  -0.049   6.211   4.715 -0.4414 -0.5110  2.5832
12394TIP3    H258598   0.056   6.232   4.821  2.8742  0.1494 -0.6276
12395TIP3   OH258599   0.582   4.618  11.952 -0.3028  0.3111 -0.0310
12395TIP3    H158600   0.570   4.713  11.948 -0.5582  0.2841  0.0936
12395TIP3    H258601   0.551   4.593  12.039 -0.9545  0.0133 -0.3414
12396TIP3   OH258602   3.370   1.458   2.731 -0.1635 -0.6665  0.6823
12396TIP3    H158603   3.417   1.489   2.653  1.3230 -1.0809  1.3655
12396TIP3    H258604   3.324   1.535   2.764  0.7585 -0.0073  0.4696
12397TIP3   OH258605   6.253   5.430  13.991 -0.6356  0.0402  0.8443
12397TIP3    H158606   6.269   5.401  14.081 -0.6397 -0.8804  0.5580
12397TIP3    H258607   6.182   5.375  13.960 -1.2923  1.0035  0.5806
12398TIP3   OH258608   5.084   3.334  12.304 -0.0505  0.2700  0.5155
12398TIP3    H158609   5.005   3.387  12.315 -1.3302 -0.5253 -3.3855
12398TIP3    H258610   5.052   3.244  12.295  1.0848  0.0306 -2.0610
12399TIP3   OH258611   3.635   6.317   3.948  0.3253  0.1183  0.3657
12399TIP3    H158612   3.705   6.318   3.882  0.3792  0.8564  0.4223
12399TIP3    H258613   3.574   6.250   3.918 -0.1294  1.0714 -0.9476
12400TIP3   OH258614   3.074   0.859   4.205 -0.0388 -0.0866  0.1756
12400TIP3    H158615   2.979   0.867   4.210 -0.0980 -1.1987  1.3909
12400TIP3    H258616   3.107   0.927   4.264 -0.2056 -1.4391  1.9237
12401TIP3   OH258617   5.711   6.388  14.594 -0.2882  0.2700 -0.2359
12401TIP3    H158618   5.692   6.325  14.524  0.5795  0.1354 -0.3629
12401TIP3    H258619   5.780   6.444  14.558 -0.7059  0.9891  0.0592
12402TIP3   OH258620   1.992   1.275   1.693 -0.2279  0.3717  0.4085
12402TIP3    H158621   1.921   1.328   1.730  0.0764  0.1419  1.3478
12402TIP3    H258622   2.066   1.335   1.687 -0.3822  0.5076 -0.1987
12403TIP3   OH258623   2.903   3.198  15.671  0.4425  0.0723 -0.2261
12403TIP3    H158624   2.874   3.118  15.715  1.1569  0.3426  0.7520
12403TIP3    H258625   2.856   3.197  15.588  1.3043 -1.9819 -0.7691
12404TIP3   OH258626   4.306   4.023   1.055  0.2564 -0.3142  0.2122
12404TIP3    H158627   4.297   3.953   0.991  0.0086 -0.8059  0.7727
12404TIP3    H258628   4.356   4.091   1.010  1.7575 -1.4400  0.1105
12405TIP3   OH258629   1.316   1.210   2.300  0.0979 -0.1051 -0.0115
12405TIP3    H158630   1.410   1.221   2.285  0.1296 -0.6878 -0.2465
12405TIP3    H258631   1.307   1.123   2.338 -0.1185  0.8404  2.2883
12406TIP3   OH258632   0.829   3.710  17.077 -0.1532 -0.2333 -0.6692
12406TIP3    H158633   0.805   3.704  17.169  0.4244 -0.4795 -0.5244
12406TIP3    H258634   0.882   3.631  17.061  0.5284  0.2694 -0.9648
12407TIP3   OH258635   0.588   4.510  14.547  0.0913  0.2615 -0.0050
12407TIP3    H158636   0.632   4.589  14.578 -0.4081  0.1203  1.0957
12407TIP3    H258637   0.516   4.542  14.493  1.0052  0.5080 -1.1087
12408TIP3   OH258638   1.498   5.310   3.627 -0.0522 -0.4899 -0.1210
12408TIP3    H158639   1.463   5.221   3.621 -0.4193 -0.4500  1.2465
12408TIP3    H258640   1.435   5.358   3.680  1.1807  0.0296  0.9294
12409TIP3   OH258641   0.264   1.119  11.614  0.1313  0.2193 -0.0870
12409TIP3    H158642   0.340   1.147  11.665  0.5960 -0.2234 -0.5186
12409TIP3    H258643   0.225   1.200  11.583  1.8610  0.4324 -1.9310
12410TIP3   OH258644   1.564   2.987   1.807 -0.1501 -0.1736 -0.2617
12410TIP3    H158645   1.513   2.907   1.821 -0.6855  0.2487  0.2903
12410TIP3    H258646   1.569   2.996   1.712 -0.7564 -0.4526 -0.3272
12411TIP3   OH258647   5.946   4.829   2.090 -0.5921 -0.2649  0.2526
12411TIP3    H158648   5.986   4.873   2.016 -1.6820  0.9166  0.3382
12411TIP3    H258649   6.016   4.775   2.127 -0.0369 -0.9439 -1.6483
12412TIP3   OH258650   0.245   4.053  17.165  0.3404  0.1606  0.0587
12412TIP3    H158651   0.159   4.069  17.203 -0.2020  2.0251 -1.7442
12412TIP3    H258652   0.299   4.024  17.239 -1.9927 -1.9696  1.0681
12413TIP3   OH258653   5.787   2.903  15.100  0.4872 -0.6446  0.1761
12413TIP3    H158654   5.800   2.808  15.098  0.1411 -0.7593  1.8059
12413TIP3    H258655   5.695   2.914  15.076  0.8663 -0.6052 -1.3189
12414TIP3   OH258656   1.500   1.090  16.353 -0.3530 -0.2132  0.5096
12414TIP3    H158657   1.448   1.013  16.330 -0.1446 -0.4489  0.8209
12414TIP3    H258658   1.437   1.150  16.393 -0.1965 -0.9514  1.9300
12415TIP3   OH258659   1.150   5.578  15.956  0.5133  0.1639 -0.1053
12415TIP3    H158660   1.077   5.588  15.895 -0.4256 -1.4220  0.6852
12415TIP3    H258661   1.227   5.567  15.900 -0.2048 -0.4795 -1.0002
12416TIP3   OH258662   2.790   3.657  17.231  0.0475  0.4852 -0.5913
12416TIP3    H158663   2.761   3.624  17.316  1.2555  0.5057 -0.1551
12416TIP3    H258664   2.884   3.672  17.242 -0.2038  2.9198 -1.1207
12417TIP3   OH258665   0.932   4.719   5.283 -0.2520 -0.6194  0.6018
12417TIP3    H158666   0.999   4.774   5.242  0.6867 -0.3568  2.4122
12417TIP3    H258667   0.914   4.651   5.217 -2.9028  2.7674 -2.5733
12418TIP3   OH258668   3.838   6.744   4.154  0.4089  0.3521  0.1217
12418TIP3    H158669   3.851   6.650   4.140  0.8080  0.3658  0.3754
12418TIP3    H258670   3.925   6.776   4.180 -0.0722  0.4880  1.6807
12419TIP3   OH258671   3.481   3.273   3.875 -0.4946  0.2934  0.4392
12419TIP3    H158672   3.398   3.298   3.916 -0.2608  0.1878  0.9811
12419TIP3    H258673   3.508   3.193   3.920 -1.0748 -0.7942 -1.0622
12420TIP3   OH258674   5.438   2.951  16.917  0.5885  0.3853 -0.2027
12420TIP3    H158675   5.423   3.014  16.988  0.0800 -1.4139  1.3698
12420TIP3    H258676   5.531   2.930  16.924 -0.1328 -2.6403  2.5837
12421TIP3   OH258677   5.834   2.256   2.306  0.3420  0.0614  0.1597
12421TIP3    H158678   5.833   2.295   2.394 -3.6878  1.3976 -0.2754
12421TIP3    H258679   5.850   2.163   2.322  0.6047  0.4010  2.2234
12422TIP3   OH258680   0.515   1.200  11.431  0.4690 -1.2646 -0.3962
12422TIP3    H158681   0.491   1.220  11.521  2.5745  1.6800 -0.3142
12422TIP3    H258682   0.571   1.273  11.405 -0.2588 -1.8354 -4.2023
12423TIP3   OH258683   5.820   5.073  11.966 -0.2119  0.1291  0.1541
12423TIP3    H158684   5.907   5.042  11.942 -0.2436 -0.1342  0.3785
12423TIP3    H258685   5.794   5.131  11.894 -0.2657 -0.5708 -0.3989
12424TIP3   OH258686   3.462   5.102   4.943  0.0283  0.7659 -0.1220
12424TIP3    H158687   3.442   5.115   5.036 -0.9585 -0.1169 -0.1944
12424TIP3    H258688   3.495   5.187   4.914 -1.1167  1.5218  0.6739
12425TIP3   OH258689   4.961   3.510  16.475  0.4759 -0.5363  0.8426
12425TIP3    H158690   4.970   3.417  16.495 -0.5093 -0.4472  1.8124
12425TIP3    H258691   4.867   3.523  16.462  0.6011  0.3249  0.7551
12426TIP3   OH258692   0.082   5.519   4.822  0.0553  0.2652  0.2245
12426TIP3    H158693   0.092   5.592   4.761 -2.4209  0.2182 -0.3775
12426TIP3    H258694   0.168   5.507   4.861  1.2576  1.5473 -1.8653
12427TIP3   OH258695   6.487   4.362   3.074  0.2219  0.4198  0.7143
12427TIP3    H158696   6.566   4.323   3.112 -0.4533 -1.3668  0.3639
12427TIP3    H258697   6.425   4.365   3.146 -0.6045 -1.7040  0.1626
12428TIP3   OH258698   4.744   2.672   1.842  0.2067  0.1211 -0.0899
12428TIP3    H158699   4.771   2.719   1.763 -1.3445 -0.1927 -0.8426
12428TIP3    H258700   4.826   2.645   1.883  1.0602 -0.6437 -2.1596
12429TIP3   OH258701   1.260   4.664  11.236 -0.5284 -0.3095  0.4692
12429TIP3    H158702   1.346   4.646  11.199  0.1185  0.9495  1.2964
12429TIP3    H258703   1.275   4.734  11.299 -2.3474  0.7931 -0.2325
12430TIP3   OH258704   1.955   6.041  13.603  0.1607 -0.3366 -0.3645
12430TIP3    H158705   1.887   6.013  13.663 -0.5894  1.5936 -0.2340
12430TIP3    H258706   2.035   6.000  13.636 -0.6232 -1.1777  0.5449
12431TIP3   OH258707   0.099   5.635   4.322 -0.1049 -0.6173 -0.3441
12431TIP3    H158708   0.119   5.550   4.282 -0.7850 -1.4922  1.1180
12431TIP3    H258709   0.004   5.642   4.317  0.0427  0.7973 -1.8493
12432TIP3   OH258710   3.712   2.290   5.642 -0.0758 -0.0769 -0.2781
12432TIP3    H158711   3.732   2.354   5.574  2.3372  0.1439  0.5442
12432TIP3    H258712   3.682   2.342   5.717  1.4569  0.1284  0.2381
12433TIP3   OH258713   5.688   4.775   5.168 -0.7523  0.0742 -0.5317
12433TIP3    H158714   5.653   4.821   5.245 -0.3510  0.5766 -0.6478
12433TIP3    H258715   5.633   4.697   5.160 -1.5585  0.6249 -0.4429
12434TIP3   OH258716   2.663   5.165   3.486 -0.0004  0.5290 -0.6879
12434TIP3    H158717   2.572   5.164   3.457 -1.0495 -0.5951  2.2450
12434TIP3    H258718   2.709   5.109   3.423 -1.2221  1.3710 -2.4024
12435TIP3   OH258719   3.181   3.259   5.773  0.5497 -0.2047 -0.0381
12435TIP3    H158720   3.093   3.295   5.784  0.0631 -1.1231 -0.8447
12435TIP3    H258721   3.238   3.336   5.767 -0.0287  0.4019  1.6339
12436TIP3   OH258722   5.591   5.629   4.300  0.1939  0.8635 -0.6413
12436TIP3    H158723   5.639   5.592   4.374 -1.7230 -0.6033 -0.0554
12436TIP3    H258724   5.644   5.704   4.272  0.8898  1.5872  2.3152
12437TIP3   OH258725   0.028   3.704  13.225 -0.7641  0.0485 -0.0645
12437TIP3    H158726   0.010   3.715  13.132  0.0813 -2.2098 -0.5565
12437TIP3    H258727   0.027   3.609  13.239  2.3313  0.1145  1.5245
12438TIP3   OH258728   5.102   4.623  11.358 -0.3278  0.0734 -0.2651
12438TIP3    H158729   5.100   4.588  11.447 -2.7436 -0.3838 -0.4259
12438TIP3    H258730   5.180   4.678  11.355 -0.1456  0.0407  2.1069
12439TIP3   OH258731   4.633   2.189  15.472  0.3493  0.1675  0.3447
12439TIP3    H158732   4.554   2.147  15.507  0.4399  0.8143  1.3387
12439TIP3    H258733   4.683   2.215  15.549  2.9175 -2.6321 -0.1646
12440TIP3   OH258734   2.004   4.103  16.082  0.8283  0.6644 -0.2263
12440TIP3    H158735   1.970   4.172  16.026  1.6758 -1.2173 -3.3001
12440TIP3    H258736   1.930   4.044  16.098  1.3789 -0.9359 -2.9608
12441TIP3   OH258737   6.130   0.265   4.997 -0.1125  0.0453  0.1963
12441TIP3    H158738   6.218   0.294   5.021 -0.2556 -0.8834  2.0130
12441TIP3    H258739   6.095   0.335   4.943  1.8401  0.3007 -0.8284
12442TIP3   OH258740   5.830   2.569   0.707  0.8352 -0.3628 -0.1221
12442TIP3    H158741   5.870   2.515   0.776 -1.1481 -0.5888  0.9148
12442TIP3    H258742   5.822   2.510   0.632  1.3960 -0.6137  0.0060
12443TIP3   OH258743   2.138   3.664  17.060 -0.0450 -0.2712 -0.4645
12443TIP3    H158744   2.067   3.648  17.121 -0.4892 -0.0505 -0.9141
12443TIP3    H258745   2.187   3.582  17.058  0.0984 -0.2084  0.3419
12444TIP3   OH258746   2.255   2.267  15.604 -0.3925  0.5169  0.1521
12444TIP3    H158747   2.269   2.361  15.615  0.3819  0.5126 -0.6662
12444TIP3    H258748   2.160   2.256  15.612 -0.3829  1.1922  1.3985
12445TIP3   OH258749   2.889   5.852   0.888 -0.5198 -0.0983  0.4234
12445TIP3    H158750   2.922   5.844   0.799 -0.5803  0.8770  0.3041
12445TIP3    H258751   2.871   5.762   0.915 -2.2648 -0.2962 -1.1953
12446TIP3   OH258752   0.609   4.541   5.095  0.0600 -0.0842  0.1758
12446TIP3    H158753   0.569   4.465   5.051 -0.1027 -0.1157  0.3778
12446TIP3    H258754   0.703   4.527   5.084  0.0166  0.3835 -0.9777
12447TIP3   OH258755   1.210   5.724   5.533  0.2712  0.2110 -0.3025
12447TIP3    H158756   1.197   5.774   5.614 -1.7883  0.0459 -0.4879
12447TIP3    H258757   1.195   5.632   5.559  2.8003 -0.2584 -0.2313
12448TIP3   OH258758   1.588   1.373   4.992  0.3967 -0.7003 -0.0184
12448TIP3    H158759   1.577   1.308   4.923 -0.6967 -0.2517 -0.2806
12448TIP3    H258760   1.500   1.407   5.008  0.7044 -0.4722  1.2780
12449TIP3   OH258761   4.851   0.937  15.773 -0.0866 -0.4912 -0.0382
12449TIP3    H158762   4.941   0.960  15.795  0.0890 -0.0778 -1.1039
12449TIP3    H258763   4.843   0.844  15.795  1.1520 -0.9923 -1.5129
12450TIP3   OH258764   4.431   0.789   0.639  0.1019  0.1925  0.0993
12450TIP3    H158765   4.419   0.804   0.545 -1.0024  2.2158  0.5001
12450TIP3    H258766   4.355   0.737   0.665  0.3249 -0.2319 -0.0914
12451TIP3   OH258767   6.428   4.434   1.258  0.8134  0.2860 -0.1401
12451TIP3    H158768   6.489   4.382   1.206  0.0052 -0.7488 -0.0919
12451TIP3    H258769   6.352   4.447   1.201 -0.6637 -2.0199  1.1169
12452TIP3   OH258770   5.790   0.355   5.037 -0.0724  0.4218 -0.1565
12452TIP3    H158771   5.779   0.449   5.052  2.3610  0.9083 -0.9368
12452TIP3    H258772   5.803   0.348   4.942  0.5922 -0.5865 -0.0019
12453TIP3   OH258773   5.558   1.452  14.092 -0.0535 -0.0775 -0.0897
12453TIP3    H158774   5.485   1.421  14.039 -0.2053 -1.0688  0.6731
12453TIP3    H258775   5.602   1.373  14.121  1.4002  0.4992 -0.6126
12454TIP3   OH258776   5.853   2.154  11.502  0.2366  0.2087  0.3384
12454TIP3    H158777   5.909   2.176  11.428  0.1859  0.3370  0.3379
12454TIP3    H258778   5.767   2.190  11.478 -0.0640 -0.7393 -0.0557
12455TIP3   OH258779   6.260   0.198   6.462  0.5607  0.0681  0.3626
12455TIP3    H158780   6.280   0.253   6.537 -1.9454 -1.5389  2.3546
12455TIP3    H258781   6.165   0.204   6.451  0.7078 -0.6961 -1.9268
12456TIP3   OH258782   2.924   2.082   5.853  0.3535 -0.3563  0.7459
12456TIP3    H158783   2.877   2.007   5.817 -0.4066  0.3835  0.1612
12456TIP3    H258784   2.931   2.063   5.947 -1.4400 -0.3340  0.9223
12457TIP3   OH258785   6.315   6.083  15.759  0.1346 -0.4798 -0.0168
12457TIP3    H158786   6.371   6.052  15.687  1.6883 -3.3270  2.1763
12457TIP3    H258787   6.352   6.167  15.784  2.7888 -1.6864  0.5065
12458TIP3   OH258788   4.948   2.539  16.615  0.1198 -0.0121 -0.1843
12458TIP3    H158789   4.931   2.453  16.655 -0.4964 -0.4271 -1.2984
12458TIP3    H258790   5.043   2.542  16.605  0.2777  0.0256  1.1141
12459TIP3   OH258791   3.384   1.983  12.246  0.3963 -0.0712 -0.0256
12459TIP3    H158792   3.401   1.890  12.235 -0.3464 -0.2081 -0.0689
12459TIP3    H258793   3.470   2.022  12.263  0.7117 -0.7554 -0.0463
12460TIP3   OH258794   0.644   1.255   4.472  1.0814 -0.2053 -0.6732
12460TIP3    H158795   0.656   1.178   4.416 -0.8484 -0.5018 -0.7613
12460TIP3    H258796   0.622   1.218   4.558  2.2765  0.2614 -0.1453
12461TIP3   OH258797   1.218   2.102   1.521  0.2441 -0.3909  0.0756
12461TIP3    H158798   1.309   2.086   1.498  0.1019 -1.7805  0.3958
12461TIP3    H258799   1.219   2.185   1.568  1.1596  0.2327 -0.9853
12462TIP3   OH258800   3.372   4.093  14.631 -0.2443 -0.3405  0.6801
12462TIP3    H158801   3.290   4.050  14.655 -0.2814 -0.7403 -0.1315
12462TIP3    H258802   3.434   4.067  14.699 -1.2718  1.6392  2.4877
12463TIP3   OH258803   2.166   4.385   3.251 -0.4737 -0.5363 -0.5015
12463TIP3    H158804   2.248   4.433   3.259 -0.2452 -0.3476 -3.2525
12463TIP3    H258805   2.189   4.294   3.267  0.0526 -0.3615 -0.2406
12464TIP3   OH258806   1.443   5.868   4.381  0.0121 -0.5123 -0.7781
12464TIP3    H158807   1.394   5.842   4.460  0.4430  1.3211  0.1557
12464TIP3    H258808   1.386   5.844   4.308 -0.4639 -2.1274  0.0736
12465TIP3   OH258809   4.260   4.281  13.246 -0.5006  0.1382 -0.2749
12465TIP3    H158810   4.275   4.194  13.210  0.5966  0.3552 -0.3822
12465TIP3    H258811   4.254   4.267  13.340  1.1291  0.0981 -0.1504
12466TIP3   OH258812   0.215   1.659  11.212 -0.3603  0.3149 -0.3386
12466TIP3    H158813   0.263   1.632  11.134 -0.0063  0.0906 -0.0430
12466TIP3    H258814   0.199   1.753  11.199 -0.5089  0.2309 -0.7861
12467TIP3   OH258815   2.958   2.931  10.684 -0.0400 -0.2338  0.2135
12467TIP3    H158816   2.875   2.976  10.698  0.0115 -0.0825  0.0438
12467TIP3    H258817   2.936   2.859  10.625 -0.0817 -0.2920  0.3009
12468TIP3   OH258818   4.686   2.261  15.765 -0.0312 -0.1662  0.4339
12468TIP3    H158819   4.639   2.197  15.818 -1.1298 -0.0684 -0.3726
12468TIP3    H258820   4.675   2.344  15.813 -1.4741  0.0231 -0.1649
12469TIP3   OH258821   3.070   0.960  13.514 -0.2343 -0.2057  0.2581
12469TIP3    H158822   2.993   1.011  13.486 -0.0052 -0.5258 -1.0310
12469TIP3    H258823   3.034   0.892  13.570 -0.9571 -0.5686 -0.6165
12470TIP3   OH258824   4.533   1.637  14.212 -0.3348 -0.1309 -0.1929
12470TIP3    H158825   4.438   1.633  14.195 -0.0715 -1.5310 -1.6736
12470TIP3    H258826   4.544   1.595  14.297 -1.0373  0.0226 -0.0165
12471TIP3   OH258827   6.415   0.662   3.586 -0.2010  0.3575 -0.2660
12471TIP3    H158828   6.327   0.648   3.620 -0.9476  0.2464 -2.1574
12471TIP3    H258829   6.407   0.738   3.528  1.1210  0.8187  0.1168
12472TIP3   OH258830   3.656   4.211   5.996  0.4783 -0.3632  0.6713
12472TIP3    H158831   3.644   4.161   5.915  1.6695 -1.2292  0.9987
12472TIP3    H258832   3.682   4.298   5.966  0.4326 -0.5304  0.1174
12473TIP3   OH258833   2.546   5.314   3.734  0.4003 -0.1662 -0.3402
12473TIP3    H158834   2.525   5.286   3.645  3.3068  2.0381 -1.8930
12473TIP3    H258835   2.584   5.237   3.775 -1.9459 -1.5263 -0.5034
12474TIP3   OH258836   1.234   2.540   1.474  0.5575 -0.0973 -0.3957
12474TIP3    H158837   1.209   2.621   1.519  1.4167 -1.0906  2.0358
12474TIP3    H258838   1.321   2.558   1.438  1.0402 -0.1296  0.7246
12475TIP3   OH258839   1.995   0.268  16.692 -0.7190 -0.0988  0.6648
12475TIP3    H158840   1.920   0.209  16.693 -0.7077 -0.1149  2.0732
12475TIP3    H258841   2.033   0.257  16.605 -3.4219  1.3144 -0.8236
12476TIP3   OH258842   0.483   1.194  12.995 -0.5082 -0.1528  0.1157
12476TIP3    H158843   0.494   1.203  12.900 -0.5963 -2.1270 -0.1256
12476TIP3    H258844   0.571   1.176  13.027 -0.2635  1.7240  0.6184
12477TIP3   OH258845   2.975   1.516  16.922  0.1779  0.1874 -0.7410
12477TIP3    H158846   2.930   1.586  16.874  1.9938  2.5256  0.7496
12477TIP3    H258847   3.020   1.466  16.855 -2.1213 -0.3920 -1.9727
12478TIP3   OH258848   1.303   2.702  14.915  0.1703  0.2186  0.4872
12478TIP3    H158849   1.396   2.686  14.927  0.1322 -0.5785 -0.1245
12478TIP3    H258850   1.291   2.704  14.820 -0.3811  0.6546  0.5593
12479TIP3   OH258851   1.827   1.651   0.308  0.1633 -0.0221  0.2301
12479TIP3    H158852   1.899   1.602   0.346 -0.1079 -0.0593  0.6994
12479TIP3    H258853   1.814   1.725   0.367 -0.4827 -0.2650  0.3969
12480TIP3   OH258854   1.381   2.224   1.295  0.7534 -0.3128  0.1957
12480TIP3    H158855   1.317   2.234   1.225  1.5359 -0.2444 -0.5109
12480TIP3    H258856   1.433   2.148   1.270  1.0149 -0.3163  0.7277
12481TIP3   OH258857   5.448   5.051  17.187  0.0869 -0.1980  0.5670
12481TIP3    H158858   5.515   4.987  17.166 -0.9310 -1.2388  0.3742
12481TIP3    H258859   5.407   5.018  17.267 -1.1584 -0.3964 -0.1212
12482TIP3   OH258860   4.508   2.027   5.617 -0.6371  0.3734 -0.0929
12482TIP3    H158861   4.422   1.989   5.635 -0.3537 -0.1299  0.2205
12482TIP3    H258862   4.521   2.015   5.523  0.5017 -2.6039  0.3299
12483TIP3   OH258863   0.855   2.402   0.872 -0.5950 -0.1653 -0.3276
12483TIP3    H158864   0.806   2.485   0.878  0.1326  0.2602 -0.1412
12483TIP3    H258865   0.836   2.358   0.955 -0.2080  0.2583 -0.0104
12484TIP3   OH258866   4.875   1.195  14.358  0.0765 -0.4445  0.2300
12484TIP3    H158867   4.782   1.177  14.373 -0.0289  0.3063  0.5045
12484TIP3    H258868   4.896   1.149  14.277 -0.7639  0.1323 -0.3285
12485TIP3   OH258869   0.355   1.633   0.491  0.1451 -0.5767  0.1643
12485TIP3    H158870   0.434   1.687   0.500  1.1300 -2.0325  0.7662
12485TIP3    H258871   0.389   1.543   0.482 -1.4409 -1.2383  0.4555
12486TIP3   OH258872   4.740   3.944   1.668  0.1675  0.5027 -0.2063
12486TIP3    H158873   4.757   3.852   1.647 -1.6376 -0.0143  0.4116
12486TIP3    H258874   4.745   3.989   1.583  1.7408 -0.0160 -0.4196
12487TIP3   OH258875   0.366   0.822   2.825 -0.6729  0.6647  0.5751
12487TIP3    H158876   0.373   0.760   2.898 -1.5716  0.8365  0.8263
12487TIP3    H258877   0.376   0.768   2.747 -1.1026  0.2514  0.7983
12488TIP3   OH258878   5.728   2.670   2.209  0.0124 -0.7000  0.0675
12488TIP3    H158879   5.724   2.663   2.113 -1.5316  1.3242 -0.0865
12488TIP3    H258880   5.647   2.630   2.240 -1.6018  2.3833  0.1490
12489TIP3   OH258881   0.940   5.645   5.767 -0.2922 -0.0948 -0.3135
12489TIP3    H158882   0.972   5.687   5.846  0.3246 -0.0179 -0.6026
12489TIP3    H258883   0.845   5.638   5.781 -0.5345  2.0484 -0.5733
12490TIP3   OH258884   1.501   0.271   5.623  0.2953 -0.0417  0.5134
12490TIP3    H158885   1.538   0.359   5.632 -0.0180  0.1866 -0.3428
12490TIP3    H258886   1.511   0.250   5.530 -0.3207 -0.6120  0.5696
12491TIP3   OH258887   3.437   4.092  15.973  0.1783  0.4536 -0.5184
12491TIP3    H158888   3.472   4.033  15.906 -0.3576  2.1010 -2.3519
12491TIP3    H258889   3.354   4.050  15.999  0.5900 -0.4203 -0.5638
12492TIP3   OH258890   4.538   5.837  16.514  0.9436  0.2648 -0.2585
12492TIP3    H158891   4.455   5.805  16.550  0.8650 -0.9689 -1.4572
12492TIP3    H258892   4.543   5.928  16.543 -1.7081  0.9361 -1.5554
12493TIP3   OH258893   5.614   3.631   5.998 -0.0012  0.2698  0.1317
12493TIP3    H158894   5.653   3.621   6.085  1.3284 -0.4500 -0.5156
12493TIP3    H258895   5.604   3.541   5.966  1.7851  0.5383 -1.3820
12494TIP3   OH258896   6.350   6.318  16.613 -0.2761  0.2309  0.7416
12494TIP3    H158897   6.330   6.385  16.548 -2.4180 -0.9778  0.0432
12494TIP3    H258898   6.287   6.335  16.684  0.1067 -0.2107  1.1938
12495TIP3   OH258899   4.917   5.139  14.594 -0.3535  0.1334 -0.1243
12495TIP3    H158900   5.012   5.141  14.604 -0.4723 -0.8924  1.6165
12495TIP3    H258901   4.888   5.224  14.625 -0.1058 -0.1767  0.9942
12496TIP3   OH258902   0.444   0.283   0.144 -0.3781 -0.2787  0.2024
12496TIP3    H158903   0.378   0.338   0.187 -1.3881 -0.7256 -0.7170
12496TIP3    H258904   0.451   0.206   0.201  1.0075  0.7452  1.4653
12497TIP3   OH258905   0.989   2.955   0.396  0.2793 -0.1702  0.1906
12497TIP3    H158906   1.082   2.931   0.398  0.7868  1.6852  1.8335
12497TIP3    H258907   0.945   2.888   0.447  0.0079 -3.2397 -3.6100
12498TIP3   OH258908   4.339   4.979   6.089  0.3695  0.4618 -0.4229
12498TIP3    H158909   4.295   4.908   6.041  1.2279 -0.2611 -0.1541
12498TIP3    H258910   4.272   5.047   6.095 -0.4347 -0.2625 -0.8027
12499TIP3   OH258911   1.512   4.414   6.182  0.1372  0.5069 -0.3451
12499TIP3    H158912   1.549   4.421   6.270  2.3318  0.3127 -1.1978
12499TIP3    H258913   1.520   4.502   6.146 -0.5843  0.5411 -0.4339
12500TIP3   OH258914   4.304   1.150  15.809  0.3006  0.1679 -0.1722
12500TIP3    H158915   4.308   1.190  15.722  1.6831  2.0292  0.6771
12500TIP3    H258916   4.226   1.095  15.806 -2.2221  3.4410 -1.2722
12501TIP3   OH258917   2.895   6.502  14.829  0.1797  0.2873  0.0124
12501TIP3    H158918   2.828   6.516  14.896 -0.6562 -1.8149 -0.2950
12501TIP3    H258919   2.931   6.416  14.849 -0.4957 -0.6785 -2.5076
12502TIP3   OH258920   3.850   4.558  14.636 -0.7212  0.0034 -0.4642
12502TIP3    H158921   3.894   4.591  14.558 -0.7763  1.0005 -0.0826
12502TIP3    H258922   3.917   4.507  14.681 -0.4768  0.0363 -0.7871
12503TIP3   OH258923   3.421   3.752  11.184  0.0516  0.1728 -0.2245
12503TIP3    H158924   3.421   3.819  11.252  1.3300  0.7460 -0.7583
12503TIP3    H258925   3.329   3.743  11.159 -0.3913  0.2398  1.2688
12504TIP3   OH258926   5.405   1.549  13.597  0.2790 -0.3217  0.4573
12504TIP3    H158927   5.327   1.504  13.563  1.6124 -1.6019 -1.0871
12504TIP3    H258928   5.475   1.485  13.588  1.6677  1.0282  1.1816
12505TIP3   OH258929   3.814   2.992  13.319  0.1275  0.3911 -0.6257
12505TIP3    H158930   3.834   2.900  13.334  0.8888  0.1219 -2.8539
12505TIP3    H258931   3.896   3.038  13.332  0.1956  0.4769 -1.2847
12506TIP3   OH258932   4.514   2.090   2.422 -0.2993  0.0514 -0.8073
12506TIP3    H158933   4.528   2.125   2.334  0.3432 -0.5315 -0.9480
12506TIP3    H258934   4.508   2.167   2.478 -1.3528  0.4553 -1.4385
12507TIP3   OH258935   2.597   1.092   4.489  0.2585  0.0058  0.0233
12507TIP3    H158936   2.573   0.999   4.489  1.0466 -0.2167 -0.9964
12507TIP3    H258937   2.690   1.093   4.467 -0.0837  1.0859 -1.6012
12508TIP3   OH258938   0.229   2.168  12.871  0.5065  0.1211  0.2911
12508TIP3    H158939   0.209   2.259  12.893 -1.9991 -0.5167  0.9943
12508TIP3    H258940   0.284   2.174  12.794 -0.9218  2.2521 -0.6744
12509TIP3   OH258941   3.913   1.918  14.941 -0.3156  0.4379  0.4013
12509TIP3    H158942   3.923   1.948  14.851 -0.4192 -1.4719 -0.2724
12509TIP3    H258943   3.997   1.879  14.963 -0.9319 -0.9650  0.3819
12510TIP3   OH258944   0.241   6.620  12.168 -0.1431  0.0542  0.4567
12510TIP3    H158945   0.307   6.630  12.099 -0.4140  1.4435  0.3618
12510TIP3    H258946   0.214   6.710  12.188 -0.1590 -0.3083  2.2939
12511TIP3   OH258947   0.361   2.602   1.697 -0.6919 -0.1465 -0.4108
12511TIP3    H158948   0.449   2.570   1.716 -0.4056  1.0653  0.3987
12511TIP3    H258949   0.306   2.561   1.765 -0.9329 -1.5667 -1.4115
12512TIP3   OH258950   4.572   3.663   1.553 -0.5267  0.1103 -0.2218
12512TIP3    H158951   4.558   3.670   1.647 -1.3018 -2.3375 -0.0649
12512TIP3    H258952   4.534   3.742   1.516 -0.6473  0.8796  1.4816
12513TIP3   OH258953   0.918   4.771   4.123 -0.2270 -0.3198 -0.2626
12513TIP3    H158954   0.984   4.806   4.183  0.7355  1.4429 -2.2443
12513TIP3    H258955   0.879   4.849   4.082 -2.6212 -1.3649 -0.1572
12514TIP3   OH258956   0.081   5.231   2.391  0.1779 -0.2368 -0.1485
12514TIP3    H158957   0.140   5.231   2.466 -0.7508 -0.5763  0.5972
12514TIP3    H258958   0.060   5.324   2.377 -0.1881 -0.2275  0.4498
12515TIP3   OH258959   0.113   3.734   5.960 -0.7608  0.3710  0.0255
12515TIP3    H158960   0.144   3.803   6.020 -2.3615  0.2170  1.0992
12515TIP3    H258961   0.105   3.657   6.016  1.3034 -0.8364 -1.2277
12516TIP3   OH258962   5.580   2.584   0.163 -0.0732 -0.2877 -0.2395
12516TIP3    H158963   5.496   2.626   0.178  0.9976  1.7093  0.5362
12516TIP3    H258964   5.592   2.526   0.239  0.4763  1.6044  1.2042
12517TIP3   OH258965   5.321   1.945   4.710 -0.0636  0.1696 -0.0488
12517TIP3    H158966   5.242   1.993   4.684 -0.5719 -0.4869  0.2492
12517TIP3    H258967   5.377   1.948   4.633 -0.8076 -0.2354 -0.6192
12518TIP3   OH258968   6.109   2.533   4.602  1.0293 -0.1626 -0.1466
12518TIP3    H158969   6.120   2.441   4.626 -1.2145 -0.8921 -1.5920
12518TIP3    H258970   6.198   2.567   4.600  1.7592 -1.1314  4.3704
12519TIP3   OH258971   0.831   0.109  13.053  0.0200 -0.1254  0.0045
12519TIP3    H158972   0.900   0.080  12.993  0.8181 -1.8072  1.6429
12519TIP3    H258973   0.784   0.029  13.077  0.3400  0.3123  2.3291
12520TIP3   OH258974   2.578   5.817   4.806 -0.2477 -0.1373  0.3404
12520TIP3    H158975   2.561   5.795   4.714 -0.6091 -0.8039  0.5639
12520TIP3    H258976   2.588   5.912   4.806 -1.1894 -0.0198 -0.2483
12521TIP3   OH258977   1.299   3.281   2.866  0.3637  0.1237 -0.3459
12521TIP3    H158978   1.265   3.213   2.807 -0.0709  0.5377 -0.5798
12521TIP3    H258979   1.221   3.328   2.895  0.6106  0.1513  0.2803
12522TIP3   OH258980   4.299   1.306  11.974 -0.6366  0.0956  0.2522
12522TIP3    H158981   4.221   1.339  11.931 -0.6452 -0.4183 -0.1249
12522TIP3    H258982   4.329   1.379  12.028 -0.7235  0.6826 -0.4860
12523TIP3   OH258983   3.180   3.601   3.590 -0.6466 -0.0013 -0.3093
12523TIP3    H158984   3.092   3.622   3.622  0.2673  0.9712  1.7272
12523TIP3    H258985   3.192   3.509   3.613  0.3158  0.8592  3.3277
12524TIP3   OH258986   0.985   1.302  16.817 -0.4243  0.4952 -0.7165
12524TIP3    H158987   0.935   1.379  16.842 -1.7940 -0.4451 -0.4838
12524TIP3    H258988   1.072   1.317  16.855 -1.0627  1.2752  0.5097
12525TIP3   OH258989   0.960   1.768   4.865  0.5201  0.3229 -0.6061
12525TIP3    H158990   0.939   1.818   4.944 -1.6280 -1.6570  0.1785
12525TIP3    H258991   0.886   1.708   4.854  2.5629 -2.1510 -1.9100
12526TIP3   OH258992   2.980   1.703  13.403 -0.1845 -0.2124 -0.6363
12526TIP3    H158993   3.024   1.628  13.364 -2.0298 -0.8725 -1.5606
12526TIP3    H258994   2.887   1.683  13.396 -0.7988  2.5668 -1.8311
12527TIP3   OH258995   4.328   0.015   5.885 -0.9678  0.3992 -0.1464
12527TIP3    H158996   4.307  -0.052   5.950 -1.5091  2.5161  2.0297
12527TIP3    H258997   4.394   0.070   5.928 -1.2802  1.8273 -1.4075
12528TIP3   OH258998   2.036   6.747  15.250  0.5249  0.3287  0.0022
12528TIP3    H158999   2.108   6.806  15.229  0.9042  0.3896  1.3938
12528TIP3    H259000   2.031   6.746  15.346 -1.6570  0.7230 -0.0394
12529TIP3   OH259001   1.248   6.472   6.644  0.0224  0.1064  0.1314
12529TIP3    H159002   1.239   6.521   6.725  2.1181 -1.6238  1.5038
12529TIP3    H259003   1.280   6.386   6.671  0.2157 -0.7339 -2.4904
12530TIP3   OH259004   1.505   2.051   5.874  0.0186  0.5519  0.7115
12530TIP3    H159005   1.414   2.070   5.852  0.0949  0.6196  0.4548
12530TIP3    H259006   1.554   2.073   5.795 -0.0863 -2.6670 -0.3932
12531TIP3   OH259007   0.294   4.502  11.309  0.2875  0.1151  0.0078
12531TIP3    H159008   0.252   4.520  11.225 -2.3392  0.9225  1.3606
12531TIP3    H259009   0.326   4.412  11.302  0.4887  0.3109 -1.9755
12532TIP3   OH259010   4.715   3.343  13.397  0.1209 -0.3425  0.3111
12532TIP3    H159011   4.747   3.416  13.450 -0.6603  0.6062 -0.4826
12532TIP3    H259012   4.757   3.355  13.312  1.2874 -1.7953  0.6313
12533TIP3   OH259013   3.198   2.425   3.440 -0.1605  0.3300 -0.3374
12533TIP3    H159014   3.189   2.442   3.346  1.2555 -0.1207 -0.5780
12533TIP3    H259015   3.164   2.336   3.451  0.4319  0.0649 -0.5812
12534TIP3   OH259016   3.236   5.434   2.372 -0.1487 -0.2399  0.2458
12534TIP3    H159017   3.278   5.509   2.416 -0.1405  0.1941 -0.4942
12534TIP3    H259018   3.243   5.454   2.279  1.8452 -2.1893 -0.1024
12535TIP3   OH259019   4.837   0.002   0.498 -0.5685  0.0023 -0.2414
12535TIP3    H159020   4.863   0.074   0.555  3.7295 -1.3081 -0.2631
12535TIP3    H259021   4.805   0.046   0.419 -1.1677  1.8152  0.9257
12536TIP3   OH259022   3.966   5.303  16.497 -0.4422 -0.5506 -0.6152
12536TIP3    H159023   3.936   5.248  16.424 -0.1022 -1.2801 -0.2237
12536TIP3    H259024   3.887   5.350  16.526 -1.0991 -1.9320 -0.0384
12537TIP3   OH259025   3.191   0.035   3.764  0.2655  0.1682 -0.4550
12537TIP3    H159026   3.262   0.003   3.819  0.8569  1.1634 -0.6286
12537TIP3    H259027   3.113   0.026   3.819  0.7174  0.3272  0.2254
12538TIP3   OH259028   0.227   2.761  11.322  0.4755  0.8515  0.3551
12538TIP3    H159029   0.239   2.717  11.406 -0.6989  1.5484  0.9216
12538TIP3    H259030   0.303   2.735  11.270  0.0446 -1.5299  0.7726
12539TIP3   OH259031   3.718   5.782   5.237  0.3653 -0.4449 -0.4177
12539TIP3    H159032   3.785   5.820   5.180 -1.2590  0.5119 -1.7759
12539TIP3    H259033   3.635   5.814   5.202 -0.8975 -2.4217  0.5593
12540TIP3   OH259034   2.065   2.959   2.995 -0.3642 -0.0735 -0.1902
12540TIP3    H159035   1.991   2.981   2.938 -0.3221  0.7221  0.0605
12540TIP3    H259036   2.027   2.949   3.082 -0.3309 -0.6930 -0.2399
12541TIP3   OH259037   2.490   6.135  16.744  0.5096 -0.3255 -0.3714
12541TIP3    H159038   2.413   6.191  16.755  0.2881 -0.6455 -0.2580
12541TIP3    H259039   2.453   6.047  16.732  0.8662 -0.5185 -0.0679
12542TIP3   OH259040   3.609   4.939   5.167 -0.8692 -0.0656  0.0508
12542TIP3    H159041   3.606   4.969   5.258 -1.2276 -0.8702  0.3152
12542TIP3    H259042   3.612   4.843   5.173 -1.2605 -0.1419 -0.7904
12543TIP3   OH259043   0.742   4.144  16.123  0.5519 -0.4457  1.0387
12543TIP3    H159044   0.648   4.133  16.115  0.6460 -0.4330 -0.4284
12543TIP3    H259045   0.755   4.180  16.211 -1.0080  1.5898  0.5086
12544TIP3   OH259046   1.917   6.378   3.777  0.2313 -0.3965 -0.1815
12544TIP3    H159047   1.859   6.390   3.852  3.1751  0.6678  2.1222
12544TIP3    H259048   1.921   6.283   3.765 -3.3264 -0.5060 -1.7407
12545TIP3   OH259049   5.824   1.611   3.654 -0.0891 -0.0436 -0.4020
12545TIP3    H159050   5.854   1.568   3.574  1.4649  1.0439 -0.4637
12545TIP3    H259051   5.905   1.633   3.700 -0.9434 -1.3259  1.8772
12546TIP3   OH259052   4.987   4.986   2.632 -0.6836 -0.0881  0.6330
12546TIP3    H159053   4.936   4.963   2.709  0.6309 -1.6848  1.0995
12546TIP3    H259054   5.073   5.010   2.667 -0.7807  1.5817 -0.1901
12547TIP3   OH259055   3.765   5.828   1.544  0.4609 -0.0103 -0.8177
12547TIP3    H159056   3.692   5.864   1.595  1.1450  1.5182 -0.8966
12547TIP3    H259057   3.797   5.901   1.492  1.6478 -0.8280 -1.2693
12548TIP3   OH259058   0.827   6.558   5.182  0.8549 -0.1663  0.4396
12548TIP3    H159059   0.829   6.487   5.247  0.6289 -0.8051 -0.2309
12548TIP3    H259060   0.743   6.602   5.198  0.1693 -1.1581 -0.2586
12549TIP3   OH259061   6.195   0.461  12.277 -0.1608 -0.3526 -0.0592
12549TIP3    H159062   6.104   0.446  12.304  0.1778  0.4458  1.6596
12549TIP3    H259063   6.196   0.551  12.245  0.0853 -0.2652  0.1977
12550TIP3   OH259064   0.412   5.117  10.803  0.1356  0.0053  0.7270
12550TIP3    H159065   0.431   5.200  10.847  0.7827  0.2707 -0.0301
12550TIP3    H259066   0.324   5.128  10.768  0.6399  0.8294 -0.3593
12551TIP3   OH259067   1.364   6.113   1.202  0.1170 -0.2089  0.4647
12551TIP3    H159068   1.414   6.064   1.137 -0.6232 -0.0481 -0.2390
12551TIP3    H259069   1.297   6.052   1.232 -2.2826  0.9438 -2.0722
12552TIP3   OH259070   2.199   0.292   4.299 -0.2132 -0.0687 -0.4564
12552TIP3    H159071   2.133   0.356   4.324  0.1306  0.1440 -0.0828
12552TIP3    H259072   2.164   0.208   4.329 -1.6963 -0.4050 -2.8755
12553TIP3   OH259073   2.446   6.343  12.826  0.3360  0.1584  0.2518
12553TIP3    H159074   2.376   6.387  12.873 -0.8026  0.6763 -1.7802
12553TIP3    H259075   2.447   6.254  12.861 -0.7961  0.3744  0.8682
12554TIP3   OH259076   1.481   5.731  15.109  0.7531  0.2727  0.0753
12554TIP3    H159077   1.532   5.811  15.116 -0.2888  0.9405  0.3040
12554TIP3    H259078   1.524   5.680  15.040  0.9813  1.3762 -0.6170
12555TIP3   OH259079   3.161   2.178  13.497  0.3579  0.1698  0.1775
12555TIP3    H159080   3.156   2.083  13.492  1.7834  0.0907 -0.1656
12555TIP3    H259081   3.149   2.198  13.590  1.1458 -0.4253  0.4166
12556TIP3   OH259082   4.661   5.482   0.160  0.0847 -0.1198 -0.2827
12556TIP3    H159083   4.634   5.522   0.077 -0.7433  1.1824  0.5695
12556TIP3    H259084   4.578   5.463   0.205  0.5156 -1.2201  0.0816
12557TIP3   OH259085   0.422   5.345  11.599 -0.4489  0.0855  0.1506
12557TIP3    H159086   0.507   5.304  11.617 -0.0283  0.0071 -1.7864
12557TIP3    H259087   0.368   5.322  11.675  0.2865 -2.6487 -0.0473
12558TIP3   OH259088   2.835   2.077  11.151  0.8006  0.6892  0.1345
12558TIP3    H159089   2.897   2.128  11.202  2.7278 -1.6247  0.3362
12558TIP3    H259090   2.887   2.002  11.119 -1.4085 -0.2726 -1.4859
12559TIP3   OH259091   4.493   2.101   4.499  0.0047  0.2866 -0.4820
12559TIP3    H159092   4.420   2.081   4.441 -0.3555  2.7565 -0.9504
12559TIP3    H259093   4.571   2.091   4.444 -0.1455  0.1875 -0.6767
12560TIP3   OH259094   1.529   0.879   2.057  0.1495 -0.0829 -0.0177
12560TIP3    H159095   1.513   0.894   1.964  1.5245  2.3405  0.0542
12560TIP3    H259096   1.576   0.797   2.061  1.1728  0.3959 -1.6155
12561TIP3   OH259097   4.256   6.479   1.874  0.2184  0.3355  0.4091
12561TIP3    H159098   4.170   6.464   1.835  0.1408  2.0746 -0.1943
12561TIP3    H259099   4.310   6.513   1.802  1.0066  0.6052  1.1039
12562TIP3   OH259100   2.125   3.302   2.814  0.4831  0.0014  0.1527
12562TIP3    H159101   2.033   3.301   2.838  0.8897  0.4359  1.8600
12562TIP3    H259102   2.125   3.322   2.721 -1.1613 -0.6485 -0.0192
12563TIP3   OH259103   1.152   3.565   6.061 -0.1889  0.4465 -0.0063
12563TIP3    H159104   1.138   3.498   6.128  1.7565 -1.0452 -0.9782
12563TIP3    H259105   1.131   3.522   5.979  0.7673  1.1129 -0.6258
12564TIP3   OH259106   5.268   6.720   4.374 -0.5399 -0.0250  0.2270
12564TIP3    H159107   5.228   6.676   4.449 -2.6725 -0.0599 -0.8499
12564TIP3    H259108   5.353   6.678   4.363  0.2147  0.5645  3.0968
12565TIP3   OH259109   4.003   3.596   1.843  0.4197  0.0910 -0.2372
12565TIP3    H159110   3.955   3.672   1.809  0.3389  0.1360 -0.0272
12565TIP3    H259111   3.935   3.542   1.884  0.6994  0.7632  1.1773
12566TIP3   OH259112   1.279   0.574   5.257 -0.3539 -0.4904  0.2971
12566TIP3    H159113   1.357   0.579   5.313 -0.2251 -1.3010  0.2113
12566TIP3    H259114   1.307   0.607   5.172 -0.1245 -0.7017  0.2902
12567TIP3   OH259115   4.286   5.381   6.486 -0.2070 -0.5213  0.0841
12567TIP3    H159116   4.350   5.444   6.453  0.0337 -0.8224 -0.0209
12567TIP3    H259117   4.214   5.435   6.518 -1.0397 -0.2320 -2.1203
12568TIP3   OH259118   0.026   3.502   4.458 -0.2697 -0.0567 -0.0761
12568TIP3    H159119  -0.029   3.566   4.412 -0.8097  0.4917  1.2945
12568TIP3    H259120  -0.016   3.418   4.440 -1.4347  0.3240  0.7122
12569TIP3   OH259121   2.484   2.413   0.823  0.0485  0.4663  0.5291
12569TIP3    H159122   2.428   2.342   0.853 -0.0906  0.5549  0.4761
12569TIP3    H259123   2.571   2.374   0.817 -0.1958  0.0487 -0.4351
12570TIP3   OH259124   0.243   5.638  10.743 -0.0428  0.1981  0.2783
12570TIP3    H159125   0.301   5.648  10.667 -1.3196 -0.2121 -0.7961
12570TIP3    H259126   0.159   5.611  10.705 -0.7020 -0.0556  1.8559
12571TIP3   OH259127   0.857   0.552  15.380  0.0583  0.3777 -0.1330
12571TIP3    H159128   0.941   0.591  15.406 -0.3317  1.3258 -0.2551
12571TIP3    H259129   0.835   0.493  15.453 -0.3347  1.9286  1.0541
12572TIP3   OH259130   1.071   6.648  11.811  0.1760 -0.1587 -0.1479
12572TIP3    H159131   1.053   6.709  11.882 -1.2246  2.3582 -2.5198
12572TIP3    H259132   1.167   6.649  11.803  0.1899  1.9886 -0.2923
12573TIP3   OH259133   5.197   6.637  16.777 -0.1263 -0.7633  0.1201
12573TIP3    H159134   5.158   6.609  16.694  0.4735 -1.0832 -0.0588
12573TIP3    H259135   5.181   6.565  16.837 -2.2390  0.2345  0.8437
12574TIP3   OH259136   4.556   2.068  10.422 -0.2991 -0.0725  0.9390
12574TIP3    H159137   4.640   2.042  10.458  0.9989  0.4969 -1.4897
12574TIP3    H259138   4.558   2.164  10.422 -0.2385 -0.0457 -0.5473
12575TIP3   OH259139   3.033   3.464   5.982  0.2298  0.6472  0.0888
12575TIP3    H159140   2.987   3.549   5.979 -1.5040 -0.2562 -2.0283
12575TIP3    H259141   3.126   3.487   5.975 -0.1822  2.3946 -0.1980
12576TIP3   OH259142   1.611   3.453   5.562 -0.1459 -0.3896 -0.2750
12576TIP3    H159143   1.580   3.497   5.642  1.5025 -0.3321  0.3787
12576TIP3    H259144   1.675   3.514   5.525  2.5135 -2.3017  0.8732
12577TIP3   OH259145   2.939   3.256   3.032  0.0006 -0.2968  0.2791
12577TIP3    H159146   2.942   3.342   2.990 -2.8470 -1.0172 -1.6450
12577TIP3    H259147   2.902   3.273   3.118  2.0797  0.6848  1.0466
12578TIP3   OH259148   6.733   4.515  11.805  0.1165  0.2160 -0.3428
12578TIP3    H159149   6.710   4.429  11.772  1.7400  0.8041 -3.3083
12578TIP3    H259150   6.807   4.499  11.863 -0.1853 -0.4411 -0.1218
12579TIP3   OH259151   1.924   3.607  17.240 -0.9779  0.0155  0.1898
12579TIP3    H159152   1.842   3.558  17.244 -0.4662 -0.7666  2.0066
12579TIP3    H259153   1.955   3.610  17.330  1.5701 -0.6974 -0.5784
12580TIP3   OH259154   3.491   3.593   2.372  0.0647 -0.1859 -0.1494
12580TIP3    H159155   3.477   3.632   2.458 -0.0081 -2.0306  0.7341
12580TIP3    H259156   3.409   3.607   2.325  0.2868  1.3001 -0.1526
12581TIP3   OH259157   4.823   0.901   5.199 -0.2506 -0.8133  0.4071
12581TIP3    H159158   4.852   0.944   5.279  0.7362 -0.9460  0.1286
12581TIP3    H259159   4.903   0.876   5.154 -0.7988 -1.5982 -0.1697
12582TIP3   OH259160   3.622   5.781   3.938  0.7125  0.4729  0.6140
12582TIP3    H159161   3.684   5.839   3.893  0.9382  0.5440  1.0122
12582TIP3    H259162   3.660   5.769   4.025  0.0203  0.7463  0.9567
12583TIP3   OH259163   4.751   2.342  17.246  0.5160  0.2592  0.4309
12583TIP3    H159164   4.808   2.302  17.311  1.5197  1.0488  0.0609
12583TIP3    H259165   4.810   2.377  17.180 -0.4597  0.0459 -0.5818
12584TIP3   OH259166   3.086   4.229  16.687 -0.2159  0.1871  0.3126
12584TIP3    H159167   3.084   4.276  16.604  1.0530 -0.6377 -0.2152
12584TIP3    H259168   3.039   4.147  16.670  0.1161 -0.0195  0.3818
12585TIP3   OH259169   5.730   4.605  16.633 -0.2235 -0.6274 -0.8415
12585TIP3    H159170   5.802   4.631  16.690 -0.3194  0.8188 -1.3472
12585TIP3    H259171   5.747   4.512  16.614 -0.6787 -1.4680  2.2299
12586TIP3   OH259172   3.191   2.386  13.911  0.0321  0.5948  0.2943
12586TIP3    H159173   3.235   2.454  13.860  0.4688  0.3388  0.3204
12586TIP3    H259174   3.199   2.307  13.858 -0.6612  0.6074  0.1659
12587TIP3   OH259175   5.502   5.622   6.389  0.2095 -0.0273 -0.4117
12587TIP3    H159176   5.408   5.607   6.393  0.3031 -0.3601  1.8875
12587TIP3    H259177   5.511   5.714   6.364 -0.8230  0.5782  1.2757
12588TIP3   OH259178   1.710   1.916   3.773 -0.3864 -0.2168 -0.3852
12588TIP3    H159179   1.620   1.886   3.761 -0.0090 -0.9509 -1.4828
12588TIP3    H259180   1.763   1.848   3.732  0.5925  0.9844 -1.1282
12589TIP3   OH259181   6.771   6.242  11.042  0.2596  0.5248 -0.3167
12589TIP3    H159182   6.816   6.205  10.965 -0.3896 -0.3247 -0.3038
12589TIP3    H259183   6.684   6.265  11.010 -0.8970 -2.0774  0.6438
12590TIP3   OH259184   3.755   4.765  11.442  0.6398  0.0157 -0.4024
12590TIP3    H159185   3.816   4.691  11.439 -0.7020 -1.3633  2.3861
12590TIP3    H259186   3.811   4.843  11.431  2.8417 -1.2006  1.3230
12591TIP3   OH259187   2.104   2.416   4.646  0.3058  0.4949 -0.2063
12591TIP3    H159188   2.143   2.348   4.700 -0.6579 -0.2949 -0.4908
12591TIP3    H259189   2.174   2.440   4.584  1.1079  0.7682  0.7716
12592TIP3   OH259190   5.987   5.491   2.067 -0.6411 -0.4829  0.0495
12592TIP3    H159191   5.974   5.411   2.117  0.5077 -1.4104 -1.0822
12592TIP3    H259192   5.987   5.463   1.975 -0.6055  0.8563 -0.3817
12593TIP3   OH259193   4.080   5.352   4.836  0.2002 -0.3324  0.1065
12593TIP3    H159194   4.176   5.351   4.841  0.2193 -0.7119 -0.2504
12593TIP3    H259195   4.052   5.293   4.906  0.2622 -0.8761 -0.3138
12594TIP3   OH259196   3.386   2.707  15.935 -0.1795  0.0219 -0.7250
12594TIP3    H159197   3.313   2.664  15.891  0.7970 -0.2968 -2.1337
12594TIP3    H259198   3.462   2.654  15.912  0.5612  0.5413  0.4061
12595TIP3   OH259199   4.741   2.765   4.498 -0.2267  0.0351  0.4384
12595TIP3    H159200   4.734   2.793   4.589 -0.0805 -2.8230  1.4364
12595TIP3    H259201   4.654   2.734   4.475  0.1754 -1.0298  0.2871
12596TIP3   OH259202   6.389   3.316   6.658 -0.1095 -0.4093  0.1884
12596TIP3    H159203   6.365   3.238   6.708 -0.3961 -1.9509 -2.2064
12596TIP3    H259204   6.341   3.308   6.575  1.6354  1.1153 -1.0631
12597TIP3   OH259205   2.200   1.934   3.256 -0.9474  0.3845 -0.5586
12597TIP3    H159206   2.166   2.022   3.271 -1.2810  0.0766  0.6602
12597TIP3    H259207   2.240   1.909   3.340  1.7009  0.4469 -1.7174
12598TIP3   OH259208   4.751   5.714   3.840  0.2137 -0.1594 -0.2329
12598TIP3    H159209   4.724   5.770   3.913  0.7801 -1.1385  0.7790
12598TIP3    H259210   4.847   5.714   3.845  0.3686  1.2841 -2.2013
12599TIP3   OH259211   3.120   0.685   0.630 -0.4042  0.1895  0.2152
12599TIP3    H159212   3.042   0.739   0.646  0.3104  1.5444 -0.7071
12599TIP3    H259213   3.101   0.640   0.548 -0.1353  0.7078 -0.1382
12600TIP3   OH259214   0.103   4.747   2.454 -0.4659 -0.4660  0.6647
12600TIP3    H159215   0.058   4.711   2.530 -1.9567 -1.5931 -0.6737
12600TIP3    H259216   0.038   4.805   2.413  0.3280  0.1620  0.2526
12601TIP3   OH259217   2.363   0.732  15.720 -0.3913 -0.2881  0.0551
12601TIP3    H159218   2.451   0.768  15.706 -0.1957 -0.6057  0.4267
12601TIP3    H259219   2.306   0.809  15.726 -0.3220 -0.1135 -1.3379
12602TIP3   OH259220   4.229   1.365   5.657  0.0107 -0.5903 -0.5236
12602TIP3    H159221   4.261   1.345   5.746  3.2905 -0.4062 -1.5490
12602TIP3    H259222   4.192   1.453   5.664  3.0310  0.7429  0.1360
12603TIP3   OH259223   2.502   4.599  16.831 -0.1979 -0.0819 -0.1162
12603TIP3    H159224   2.465   4.527  16.883 -0.0849  0.9579  1.4777
12603TIP3    H259225   2.471   4.678  16.875 -0.5161  0.8732 -1.9844
12604TIP3   OH259226   3.796   3.374  11.756 -0.1896 -0.3606  0.4047
12604TIP3    H159227   3.853   3.431  11.808 -0.7577  1.0264 -0.4263
12604TIP3    H259228   3.708   3.400  11.780 -0.4640 -0.0618 -0.8240
12605TIP3   OH259229   2.003   0.710   3.971 -0.4483  0.0800  0.5324
12605TIP3    H159230   2.078   0.668   4.012  0.1765  0.9546  0.3052
12605TIP3    H259231   1.980   0.653   3.897 -1.3891 -1.3371  1.8715
12606TIP3   OH259232   3.589   1.205   1.391 -0.2048  0.1399 -0.2486
12606TIP3    H159233   3.554   1.227   1.478  2.8023  0.0607  1.1097
12606TIP3    H259234   3.648   1.278   1.371  1.0232 -1.0435 -1.0561
12607TIP3   OH259235   0.656   0.997   1.016  0.0662 -0.0286  0.4613
12607TIP3    H159236   0.600   0.977   1.091  0.0704  1.4591  0.8840
12607TIP3    H259237   0.615   1.073   0.976  0.3799 -0.4700 -0.7354
12608TIP3   OH259238   4.873   5.762   0.099 -0.0137 -0.7532 -0.0868
12608TIP3    H159239   4.834   5.677   0.077  1.1481 -1.0613 -1.0802
12608TIP3    H259240   4.904   5.796   0.015  0.2920  0.2634  0.4280
12609TIP3   OH259241   2.124   6.147  15.211  0.2478  0.8104 -0.7449
12609TIP3    H159242   2.057   6.179  15.271 -0.3945  0.4038 -1.2372
12609TIP3    H259243   2.206   6.182  15.247 -0.1402  0.7508  0.2460
12610TIP3   OH259244   4.769   4.731  13.185 -0.4687  0.0872  0.2307
12610TIP3    H159245   4.774   4.727  13.280 -0.0113 -0.4885  0.1899
12610TIP3    H259246   4.790   4.822  13.164  3.6096 -0.5789  0.5061
12611TIP3   OH259247   3.665   5.568  11.220 -0.1524 -0.3462 -0.1682
12611TIP3    H159248   3.748   5.584  11.265 -0.0929  0.4014 -0.5349
12611TIP3    H259249   3.689   5.519  11.142  0.0697  0.7340 -0.7884
12612TIP3   OH259250   6.290   1.692   6.578  0.0006 -0.1848  0.4215
12612TIP3    H159251   6.207   1.644   6.586  0.4167 -1.3632 -1.6072
12612TIP3    H259252   6.266   1.784   6.589 -1.7351 -0.4264 -0.8766
12613TIP3   OH259253   0.406   5.100   2.340  0.1390  0.2851 -0.1799
12613TIP3    H159254   0.404   5.083   2.246 -2.9436  1.5833 -0.4691
12613TIP3    H259255   0.381   5.017   2.380  0.0260  0.1035 -0.6233
12614TIP3   OH259256   4.938   5.746  16.763 -0.0462 -0.1292 -0.0924
12614TIP3    H159257   4.846   5.730  16.746  0.0331 -0.5943 -0.0897
12614TIP3    H259258   4.957   5.697  16.843  0.4262 -0.7998 -0.6047
12615TIP3   OH259259   6.553   6.061  11.565  0.0651  0.0646  0.0667
12615TIP3    H159260   6.515   6.145  11.590 -1.2503 -0.5130  0.1039
12615TIP3    H259261   6.556   6.010  11.646 -0.3681 -0.3641 -0.1750
12616TIP3   OH259262   1.749   6.119   0.689  0.3263  0.3724 -0.3551
12616TIP3    H159263   1.822   6.180   0.703 -2.1911  3.5882  0.0419
12616TIP3    H259264   1.751   6.061   0.765  1.9516  0.9373  0.0641
12617TIP3   OH259265   2.269   1.442   3.983 -0.0220  0.1290  0.1262
12617TIP3    H159266   2.313   1.390   3.915  0.4060  0.7349 -0.0732
12617TIP3    H259267   2.219   1.507   3.935 -2.0729 -1.2365  0.3163
12618TIP3   OH259268   4.376   6.261   5.794  0.1782 -0.0830 -0.0567
12618TIP3    H159269   4.426   6.203   5.851  0.8278  0.7662  0.2603
12618TIP3    H259270   4.286   6.255   5.827 -0.1717 -2.3776 -1.2488
12619TIP3   OH259271   3.765   2.453   0.678 -0.4986 -0.2996  0.2700
12619TIP3    H159272   3.742   2.410   0.596  0.9755 -1.1006  0.2492
12619TIP3    H259273   3.783   2.544   0.653  1.3729 -0.8541 -0.5966
12620TIP3   OH259274   2.690   4.097   0.172 -0.0000  0.0484  0.1637
12620TIP3    H159275   2.701   4.027   0.108 -1.0546 -1.0947  1.1777
12620TIP3    H259276   2.669   4.174   0.120  0.4524 -0.5519 -0.9360
12621TIP3   OH259277   0.850   1.164  12.747  0.0012 -0.2212  0.3266
12621TIP3    H159278   0.931   1.187  12.701 -0.8535  1.3289 -0.4673
12621TIP3    H259279   0.865   1.191  12.837 -0.5481  2.5886 -0.3485
12622TIP3   OH259280   3.396   2.285   4.347 -0.2565  0.1740  0.2395
12622TIP3    H159281   3.413   2.235   4.267  0.7229  1.0290 -0.1017
12622TIP3    H259282   3.301   2.294   4.350 -0.2806  0.6505 -1.1548
12623TIP3   OH259283   1.027   6.393   3.752  0.0290  0.4594 -0.5883
12623TIP3    H159284   0.969   6.317   3.743 -0.7236  1.0026 -0.3675
12623TIP3    H259285   1.065   6.404   3.665  0.2652 -0.2619 -0.5845
12624TIP3   OH259286   4.213   6.749  13.520  0.0370 -0.5405  0.1948
12624TIP3    H159287   4.174   6.756  13.607  0.7898 -0.5444  0.5414
12624TIP3    H259288   4.178   6.667  13.485 -2.5435  0.8104 -0.6894
12625TIP3   OH259289   0.962   0.672   3.756  0.1104 -0.0762  0.0371
12625TIP3    H159290   1.028   0.605   3.740 -0.7218 -1.8797  3.1982
12625TIP3    H259291   0.971   0.693   3.849 -3.4633 -0.1937  0.5663
12626TIP3   OH259292   3.720   0.031   4.860  0.0761 -0.4439  0.4916
12626TIP3    H159293   3.754   0.001   4.945 -0.1939 -0.9536  0.4255
12626TIP3    H259294   3.648   0.090   4.883 -0.4087 -1.0715  0.6241
12627TIP3   OH259295   3.949   3.467   3.345  0.3366 -0.6884  0.4728
12627TIP3    H159296   3.887   3.540   3.337  0.9603  0.2160  2.9561
12627TIP3    H259297   4.035   3.508   3.342  0.7189 -1.4293  0.9568
12628TIP3   OH259298   3.751   1.537  16.134 -0.8087  0.3140  0.8191
12628TIP3    H159299   3.842   1.543  16.104  0.1712 -1.2088  3.1758
12628TIP3    H259300   3.699   1.569  16.060  1.5644  0.0936 -1.0718
12629TIP3   OH259301   1.809   1.359  13.807  0.1630 -0.3471 -0.1079
12629TIP3    H159302   1.860   1.408  13.872  0.0581  1.5121 -1.3602
12629TIP3    H259303   1.769   1.288  13.857  1.9113 -0.3472  1.4023
12630TIP3   OH259304   2.679   5.088  14.075 -0.4856 -0.8106  0.1098
12630TIP3    H159305   2.628   5.132  14.007  1.5052  1.7352  0.1028
12630TIP3    H259306   2.770   5.092  14.043  0.0837 -2.7514  1.3281
12631TIP3   OH259307   0.315   4.995   1.563 -0.3932 -0.1875  0.4138
12631TIP3    H159308   0.257   4.956   1.497  1.6244 -0.8755 -1.0388
12631TIP3    H259309   0.367   4.922   1.596  1.2365  0.7276 -0.0210
12632TIP3   OH259310   0.207   3.240  14.698  0.0044 -0.0401  0.3417
12632TIP3    H159311   0.203   3.333  14.719 -1.1037 -0.5700  2.9503
12632TIP3    H259312   0.177   3.234  14.608 -0.7531  2.0745  0.4020
12633TIP3   OH259313   2.647   2.486  12.518  0.1490  0.5989 -0.1048
12633TIP3    H159314   2.675   2.523  12.435 -0.6990  0.8437 -0.2980
12633TIP3    H259315   2.693   2.402  12.524  2.0980  1.6507  0.3533
12634TIP3   OH259316   5.141   2.540  11.899  0.6883  0.1357  0.0266
12634TIP3    H159317   5.231   2.573  11.906  0.5547  1.1601 -2.3314
12634TIP3    H259318   5.139   2.493  11.816 -1.0198  0.2754 -0.0443
12635TIP3   OH259319   4.444   5.797   5.516 -0.0730  0.5021 -0.0801
12635TIP3    H159320   4.396   5.739   5.575  0.0572 -1.3265 -1.6826
12635TIP3    H259321   4.506   5.843   5.573  0.7127 -1.8995  1.1042
12636TIP3   OH259322   1.289   0.136  12.449  0.4794 -0.2713  0.1848
12636TIP3    H159323   1.321   0.211  12.399 -1.0926  0.0267 -0.4126
12636TIP3    H259324   1.317   0.060  12.397 -0.8940  0.0287 -1.0649
12637TIP3   OH259325   6.270   4.897   1.620 -0.2166 -0.1264 -0.1813
12637TIP3    H159326   6.269   4.866   1.711  1.1104 -0.2783 -0.1983
12637TIP3    H259327   6.203   4.844   1.577 -1.0814  0.1576  0.7632
12638TIP3   OH259328   1.397   0.066   0.748 -0.5137 -0.1812 -0.0688
12638TIP3    H159329   1.319   0.057   0.803 -0.1419 -0.3558  0.4275
12638TIP3    H259330   1.445   0.140   0.785  1.4566 -2.3159  1.9908
12639TIP3   OH259331   4.990   6.460  11.427  0.2963  0.5021 -0.6832
12639TIP3    H159332   5.036   6.387  11.386  0.9924  0.5654 -0.0481
12639TIP3    H259333   5.059   6.511  11.470 -0.2513  1.1806 -0.5761
12640TIP3   OH259334   1.282   0.842   5.707 -0.3749 -0.3231 -0.1599
12640TIP3    H159335   1.221   0.824   5.778  0.0350  0.8288  0.5235
12640TIP3    H259336   1.350   0.896   5.747  0.6176 -0.8185 -1.1087
12641TIP3   OH259337   1.216   3.408  16.402  0.6074  0.2202  0.5513
12641TIP3    H159338   1.273   3.342  16.363 -0.2042  0.0355 -0.3550
12641TIP3    H259339   1.128   3.369  16.398 -0.0034  1.6297 -0.6580
12642TIP3   OH259340   6.372   3.406  15.829 -0.6902 -0.0839  0.0553
12642TIP3    H159341   6.312   3.367  15.893 -0.5674  0.2408  0.3750
12642TIP3    H259342   6.458   3.401  15.871 -0.0543 -2.7078 -1.3669
12643TIP3   OH259343   6.552   0.341  16.470  0.9751 -0.0098  0.2877
12643TIP3    H159344   6.501   0.302  16.399 -3.1202  1.1642  2.2566
12643TIP3    H259345   6.521   0.297  16.549  3.1082  0.8354  1.6820
12644TIP3   OH259346   1.966   1.249  15.403 -0.0674 -1.0179 -0.2826
12644TIP3    H159347   1.921   1.329  15.376  0.6913 -0.5167 -0.0576
12644TIP3    H259348   1.935   1.233  15.492  0.0661 -0.7687 -0.1913
12645TIP3   OH259349   1.227   0.673  16.998  0.4115 -0.0247  0.1756
12645TIP3    H159350   1.263   0.758  17.024  0.3785 -0.3751  1.4053
12645TIP3    H259351   1.296   0.610  17.018  2.2654  0.0345 -4.6843
12646TIP3   OH259352   0.876   6.568   1.858  0.4282  0.4483  0.4934
12646TIP3    H159353   0.813   6.603   1.921  0.6707  0.3951  0.7669
12646TIP3    H259354   0.822   6.522   1.794  0.2625 -0.9174  1.5610
12647TIP3   OH259355   2.501   0.964  13.666 -0.7646 -0.0171  0.1628
12647TIP3    H159356   2.442   0.889  13.670 -2.4368  1.2856  2.1823
12647TIP3    H259357   2.488   1.001  13.579  0.0563 -1.9720 -0.8491
12648TIP3   OH259358   0.958   4.788  17.073 -0.6917 -0.0052  0.5635
12648TIP3    H159359   1.048   4.787  17.104 -0.4412 -0.3270 -0.1406
12648TIP3    H259360   0.909   4.740  17.139 -0.3050 -0.0346  0.8330
12649TIP3   OH259361   0.108   4.388  17.288  0.5353  0.0035  0.1695
12649TIP3    H159362   0.071   4.425  17.208  0.3762 -0.2767  0.1106
12649TIP3    H259363   0.067   4.301  17.295  1.2124 -0.3266  0.0791
12650TIP3   OH259364   4.815   1.880  13.672 -0.1237  0.0406  0.6899
12650TIP3    H159365   4.809   1.912  13.582  1.2677  0.7297  0.8189
12650TIP3    H259366   4.732   1.905  13.712 -0.6491 -0.0378 -0.3313
12651TIP3   OH259367   4.615   5.943  16.096  0.4121  0.2495 -0.4615
12651TIP3    H159368   4.696   5.921  16.050  1.6578  0.5240  1.5257
12651TIP3    H259369   4.595   5.865  16.147 -0.2358  0.4305 -0.4322
12652TIP3   OH259370   1.621   4.513   3.282  0.7094 -0.0692 -0.2778
12652TIP3    H159371   1.650   4.601   3.256  1.6276  0.1689  1.4407
12652TIP3    H259372   1.528   4.511   3.257  0.8211  1.1516 -0.8993
12653TIP3   OH259373   5.538   5.455   3.055 -0.4758 -0.0721  0.8463
12653TIP3    H159374   5.502   5.519   3.116  0.2890  1.8971 -0.6583
12653TIP3    H259375   5.512   5.486   2.968  1.2027 -0.9224 -0.0261
12654TIP3   OH259376   4.248   1.335  10.953 -0.2165  0.2914 -0.5775
12654TIP3    H159377   4.284   1.344  10.865  3.3664  1.9206  0.8440
12654TIP3    H259378   4.181   1.404  10.959 -0.4678  0.1916 -1.9710
12655TIP3   OH259379   0.182   5.061   3.626  0.3369  0.6514 -0.2518
12655TIP3    H159380   0.097   5.102   3.612 -0.3789  0.0986  2.0058
12655TIP3    H259381   0.237   5.130   3.662  0.1017  0.4581  0.5064
12656TIP3   OH259382   0.297   3.572   1.806 -0.3124 -0.3326  0.0098
12656TIP3    H159383   0.347   3.653   1.800  0.6030 -0.8274  0.7036
12656TIP3    H259384   0.325   3.532   1.888 -1.5756 -0.8191  0.2393
12657TIP3   OH259385   4.106   4.565   2.832 -0.6685  0.4376  0.2535
12657TIP3    H159386   4.022   4.556   2.876 -1.3411 -0.1984 -1.1054
12657TIP3    H259387   4.170   4.563   2.902 -1.4689 -3.6309  1.0912
12658TIP3   OH259388   6.306   0.207  16.965  0.5572  0.0165  0.7141
12658TIP3    H159389   6.212   0.225  16.974  0.2206 -1.0395 -0.4576
12658TIP3    H259390   6.348   0.289  16.992 -0.6937  0.5621  1.1097
12659TIP3   OH259391   5.005   0.585   3.592 -0.1539  0.8034 -0.3681
12659TIP3    H159392   5.046   0.499   3.595 -0.1620  0.8136  0.5379
12659TIP3    H259393   4.967   0.591   3.505 -1.7734 -0.8750  0.1608
12660TIP3   OH259394   3.455   4.666  12.106  0.1339 -0.1422  0.2012
12660TIP3    H159395   3.392   4.737  12.117 -0.4357 -0.6648  0.3330
12660TIP3    H259396   3.412   4.604  12.048  0.9442 -0.0182 -0.5564
12661TIP3   OH259397   3.497   6.731  11.128  0.0194 -0.1837 -0.8492
12661TIP3    H159398   3.456   6.810  11.093 -1.7023 -0.6112  0.0562
12661TIP3    H259399   3.459   6.660  11.076  1.3671 -0.4509 -1.4920
12662TIP3   OH259400   3.422   0.447  13.494 -0.5281  0.1178  0.5984
12662TIP3    H159401   3.411   0.399  13.412  2.7518 -1.0469  0.7096
12662TIP3    H259402   3.360   0.520  13.487 -1.1536 -0.5589 -2.3924
12663TIP3   OH259403   0.928   0.073  14.252  0.4702 -0.2277  0.5833
12663TIP3    H159404   0.866   0.002  14.273 -0.6663  0.8628  1.0664
12663TIP3    H259405   0.980   0.082  14.331  1.4800 -1.3357  0.0786
12664TIP3   OH259406   0.912   1.960  16.919 -0.3929 -0.6221  0.0395
12664TIP3    H159407   0.817   1.962  16.922 -0.3714 -0.3457  1.0965
12664TIP3    H259408   0.936   2.018  16.848 -0.9773  0.7333  0.9066
12665TIP3   OH259409   3.961   1.303  12.163  0.1420  0.5553 -0.3503
12665TIP3    H159410   3.906   1.328  12.238 -1.7684  2.5281 -2.2539
12665TIP3    H259411   4.050   1.324  12.191 -0.5840  1.8600  1.1419
12666TIP3   OH259412   4.863   1.666  10.438 -0.0146  0.1541  0.3059
12666TIP3    H159413   4.821   1.592  10.483 -0.3225  0.4850  0.5637
12666TIP3    H259414   4.946   1.630  10.408  0.7024  0.1969  2.0805
12667TIP3   OH259415   1.853   2.450  11.182  0.5754  0.2028  0.1486
12667TIP3    H159416   1.908   2.529  11.184  1.0968 -0.0902 -1.4938
12667TIP3    H259417   1.876   2.407  11.101  1.0003 -2.1929  1.4544
12668TIP3   OH259418   2.257   3.187  16.624 -0.0860 -0.3014 -0.6153
12668TIP3    H159419   2.177   3.173  16.674 -0.5178  0.6866 -0.9978
12668TIP3    H259420   2.328   3.170  16.686 -0.5612  3.0016  1.0773
12669TIP3   OH259421   4.952   4.200  15.101 -0.1310  0.1872 -0.0048
12669TIP3    H159422   4.937   4.264  15.171  1.8960  0.2395  0.4212
12669TIP3    H259423   4.983   4.122  15.146  0.2223 -0.1193 -0.7701
12670TIP3   OH259424   2.843   5.665   3.300  0.2588 -0.0322  0.2841
12670TIP3    H159425   2.831   5.596   3.366 -0.9508  0.8821  1.0471
12670TIP3    H259426   2.887   5.736   3.347  3.0814 -0.8351 -0.9025
12671TIP3   OH259427   3.830   5.736   2.901  0.0646  0.1124 -0.0791
12671TIP3    H159428   3.908   5.760   2.851  1.0960 -0.3994  1.2464
12671TIP3    H259429   3.762   5.726   2.835  1.3897 -0.5775 -1.3874
12672TIP3   OH259430   2.322   3.679   6.169  0.3108 -0.6861  0.2313
12672TIP3    H159431   2.301   3.763   6.209  1.8018 -1.5566  3.0976
12672TIP3    H259432   2.241   3.627   6.178 -0.2087 -0.0139 -0.4052
12673TIP3   OH259433   0.380   4.320   5.904 -0.0916 -0.2353  0.2296
12673TIP3    H159434   0.353   4.321   5.812  0.5965  0.5430  0.0237
12673TIP3    H259435   0.474   4.302   5.901 -0.3739 -2.0377  0.8899
12674TIP3   OH259436   3.803   5.186  13.391 -0.3542 -0.8714 -0.2964
12674TIP3    H159437   3.894   5.172  13.419 -0.2368  0.0590 -0.1842
12674TIP3    H259438   3.810   5.211  13.299 -0.4808 -0.6446 -0.2466
12675TIP3   OH259439   3.347   6.463  13.333  0.1820 -0.9002  0.2787
12675TIP3    H159440   3.297   6.383  13.317  0.5228 -1.2645  0.9615
12675TIP3    H259441   3.280   6.530  13.345 -0.1206 -1.1749  0.1611
12676TIP3   OH259442   1.249   0.593   1.677 -0.1276 -0.1698 -0.3306
12676TIP3    H159443   1.192   0.625   1.748 -0.5835  0.4621 -0.9637
12676TIP3    H259444   1.329   0.565   1.721 -0.8425 -0.8903  0.5630
12677TIP3   OH259445   5.818   3.749   0.217  0.2529  0.1742  0.2828
12677TIP3    H159446   5.800   3.655   0.223 -0.8293  0.3948  0.7371
12677TIP3    H259447   5.753   3.790   0.275  0.6602  1.2086  0.0365
12678TIP3   OH259448   6.142   6.191   3.707 -0.6374 -0.4838  0.9117
12678TIP3    H159449   6.138   6.277   3.666 -0.1160 -0.5840  0.6482
12678TIP3    H259450   6.140   6.208   3.801  0.0464 -0.1547  0.8677
12679TIP3   OH259451   1.382   1.713  15.474 -0.1247  0.0328  0.3224
12679TIP3    H159452   1.332   1.786  15.437  0.1224  0.6050  1.0934
12679TIP3    H259453   1.414   1.746  15.558  1.8438 -0.1708 -0.2783
12680TIP3   OH259454   4.630   5.276  11.737 -0.1047  0.4480  0.8237
12680TIP3    H159455   4.634   5.359  11.784  0.6303 -0.3348  2.2233
12680TIP3    H259456   4.683   5.216  11.789  0.8813 -0.4646 -1.1014
12681TIP3   OH259457   6.664   1.136   6.000  0.0387  0.6679 -0.5559
12681TIP3    H159458   6.587   1.189   5.978  0.9056  1.3526 -2.1068
12681TIP3    H259459   6.630   1.047   6.010 -1.0182  1.0296 -0.7616
12682TIP3   OH259460   4.396   1.396   0.077  0.6188  0.2054 -0.1880
12682TIP3    H159461   4.473   1.339   0.074 -0.1524 -0.9323  0.6831
12682TIP3    H259462   4.384   1.425  -0.014  0.9417 -1.1830 -0.6945
12683TIP3   OH259463   4.346   3.874   4.673 -0.7554  0.3252 -0.4415
12683TIP3    H159464   4.388   3.934   4.735  0.4561 -0.3061 -0.6096
12683TIP3    H259465   4.412   3.862   4.605 -1.4833 -0.1991 -1.0604
12684TIP3   OH259466   3.796   1.779   0.570  0.0340  0.1449 -0.4765
12684TIP3    H159467   3.763   1.853   0.519  1.3233 -0.8004 -2.8369
12684TIP3    H259468   3.876   1.814   0.611 -0.4067  0.5988  0.0099
12685TIP3   OH259469   0.823   2.544  14.140 -0.2942 -0.2400 -0.1984
12685TIP3    H159470   0.864   2.492  14.072 -0.1371  0.9655 -1.0649
12685TIP3    H259471   0.761   2.600  14.093 -3.7047 -2.5880  1.1039
12686TIP3   OH259472   0.616   1.917   0.193  0.1677 -0.1063  0.1028
12686TIP3    H159473   0.588   1.933   0.283 -0.2873  2.4475 -0.4194
12686TIP3    H259474   0.700   1.962   0.185  0.8730 -1.4597 -0.4123
12687TIP3   OH259475   5.982   1.529  15.847  0.1008  0.1377 -0.4017
12687TIP3    H159476   5.908   1.494  15.897 -0.2390 -0.1813 -1.1186
12687TIP3    H259477   6.034   1.453  15.823  0.6400  0.3558  0.0386
12688TIP3   OH259478   6.735   2.000  15.245 -0.2627  0.2840  0.2401
12688TIP3    H159479   6.664   2.000  15.309 -0.2269  2.2396  0.3568
12688TIP3    H259480   6.691   1.991  15.160 -0.5917  0.6832  0.3658
12689TIP3   OH259481   4.202   5.570  13.463  0.1783  0.0499 -0.8969
12689TIP3    H159482   4.284   5.586  13.417  0.6823 -0.0075 -0.0439
12689TIP3    H259483   4.155   5.506  13.409 -0.0482  1.3075 -2.2421
12690TIP3   OH259484   3.377   6.007  15.119 -0.2993  0.0766 -0.7371
12690TIP3    H159485   3.414   5.932  15.072 -0.9858 -0.3221 -0.6545
12690TIP3    H259486   3.358   5.974  15.206 -2.0541 -0.1164 -1.1569
12691TIP3   OH259487   4.838   3.554   2.989 -0.6665  0.0301 -0.0945
12691TIP3    H159488   4.777   3.543   2.917 -1.1968  0.7028  0.2403
12691TIP3    H259489   4.909   3.608   2.954 -0.7604  0.0864 -0.1946
12692TIP3   OH259490   4.235   3.216   2.735 -0.1721 -0.3371  0.4470
12692TIP3    H159491   4.274   3.202   2.649 -1.4650  0.6690 -0.3344
12692TIP3    H259492   4.162   3.154   2.739 -0.2160 -0.2694  0.7445
12693TIP3   OH259493   0.110   1.378   2.925 -0.3090  0.0374  0.0842
12693TIP3    H159494   0.045   1.448   2.929 -2.4454 -1.7493 -1.3692
12693TIP3    H259495   0.088   1.320   2.998 -0.0773 -0.3799 -0.1758
12694TIP3   OH259496   4.408   0.002  10.864 -0.0307  0.2120 -0.6363
12694TIP3    H159497   4.384   0.093  10.847 -0.4481  0.1220 -0.5269
12694TIP3    H259498   4.503   0.005  10.877 -0.0264  0.6148 -0.7372
12695TIP3   OH259499   3.800   6.494  12.792 -0.1218 -0.4268  0.2100
12695TIP3    H159500   3.854   6.574  12.795 -1.1507  0.3297 -0.8170
12695TIP3    H259501   3.863   6.424  12.776  0.6454  0.3462 -0.2505
12696TIP3   OH259502   2.039   4.809   4.978 -0.1054  0.2271  0.4340
12696TIP3    H159503   2.052   4.715   4.988  0.5146  0.3378  0.7032
12696TIP3    H259504   2.058   4.826   4.885 -0.3254  0.0752  0.3592
12697TIP3   OH259505   0.799   4.601   0.479  0.3333 -0.4422 -0.3741
12697TIP3    H159506   0.801   4.509   0.453 -0.1714 -0.6707  0.3612
12697TIP3    H259507   0.890   4.630   0.474  1.0150 -1.8240  2.2898
12698TIP3   OH259508   0.249   2.938  13.088 -0.1495 -0.0857 -0.1713
12698TIP3    H159509   0.220   2.896  13.169  1.7004  0.9163  1.0904
12698TIP3    H259510   0.270   2.865  13.029 -0.5484 -0.8472  0.6103
12699TIP3   OH259511   3.374   0.285  13.280 -0.0527 -0.4404  0.7815
12699TIP3    H159512   3.342   0.279  13.190  2.5435  0.8104 -0.3518
12699TIP3    H259513   3.461   0.244  13.277  0.4547  0.4081  2.5002
12700TIP3   OH259514   6.066   5.928   2.977  0.1928  0.1021 -0.1273
12700TIP3    H159515   6.103   5.890   3.057 -1.2911  0.1036  0.5828
12700TIP3    H259516   6.013   5.859   2.939  2.1466 -0.4673 -2.0528
12701TIP3   OH259517   2.765   0.137  14.213  0.1277  0.4746  0.8587
12701TIP3    H159518   2.670   0.126  14.217  0.2560 -1.5180 -0.0495
12701TIP3    H259519   2.798   0.048  14.199  2.0417  1.2819 -0.0614
12702TIP3   OH259520   0.771   2.771   4.642 -0.8248 -0.0691  0.2156
12702TIP3    H159521   0.857   2.733   4.625 -0.4880  0.9160 -0.3894
12702TIP3    H259522   0.789   2.863   4.661 -1.7589  0.1808 -0.0543
12703TIP3   OH259523   5.956   3.368   4.431  0.1628  0.1510  0.3047
12703TIP3    H159524   5.989   3.455   4.454 -0.2427  0.7888 -1.3807
12703TIP3    H259525   6.013   3.339   4.360 -1.2733  0.1904 -0.9184
12704TIP3   OH259526   6.671   0.223   0.895 -0.1121  0.3655  0.7284
12704TIP3    H159527   6.731   0.265   0.833 -0.5736 -1.0740 -0.7667
12704TIP3    H259528   6.699   0.255   0.981  1.4017  1.4019 -0.1027
12705TIP3   OH259529   1.994   3.889   1.909 -0.1805  0.5205 -0.1811
12705TIP3    H159530   1.939   3.932   1.843 -1.9560  1.4021  1.7296
12705TIP3    H259531   1.949   3.906   1.992  0.8406 -2.2430  1.0759
12706TIP3   OH259532   6.696   4.269   5.351 -0.2046 -0.0928  0.0204
12706TIP3    H159533   6.648   4.273   5.433 -0.7021  0.4025 -0.2901
12706TIP3    H259534   6.655   4.198   5.301 -2.6637  2.1844 -1.4812
12707TIP3   OH259535   6.067   0.718  12.855 -0.2527 -0.0217  0.5220
12707TIP3    H159536   6.140   0.660  12.832 -1.3492 -1.6371  0.8801
12707TIP3    H259537   6.096   0.762  12.935  0.8812  0.4894 -0.1431
12708TIP3   OH259538   2.191   5.222   6.062 -0.0423 -0.1399 -0.1639
12708TIP3    H159539   2.129   5.206   6.133 -0.5687  0.2912 -0.5128
12708TIP3    H259540   2.166   5.309   6.028  0.4639 -0.1617 -0.5996
12709TIP3   OH259541   5.435   5.810  16.200  0.0909  0.0904  0.8434
12709TIP3    H159542   5.499   5.880  16.189 -0.0528  0.1758  0.5510
12709TIP3    H259543   5.352   5.855  16.219 -0.1505  0.0322 -0.0402
12710TIP3   OH259544   4.729   1.998  15.267  0.3221  0.1367 -0.7487
12710TIP3    H159545   4.701   2.021  15.355  1.1637  1.7117 -0.8482
12710TIP3    H259546   4.777   2.075  15.236  1.7970 -1.1489 -1.8246
12711TIP3   OH259547   2.262   0.807   3.906 -0.5702 -0.0735 -0.0013
12711TIP3    H159548   2.193   0.873   3.899  0.6438  1.4943  1.8390
12711TIP3    H259549   2.221   0.736   3.955 -1.4552 -0.0597 -0.6960
12712TIP3   OH259550   2.647   2.144   4.312  0.1007  0.3946  0.5541
12712TIP3    H159551   2.739   2.116   4.314  0.4791  1.4038 -1.0548
12712TIP3    H259552   2.644   2.211   4.243 -1.7964  0.5571  0.7567
12713TIP3   OH259553   1.842   6.274  16.581 -0.4584  0.4208 -0.6554
12713TIP3    H159554   1.761   6.232  16.553  0.2889 -0.9712 -0.8325
12713TIP3    H259555   1.841   6.265  16.677 -0.2672 -0.1054 -0.6975
12714TIP3   OH259556   4.839   4.189  13.484  0.0062 -0.3610 -0.4242
12714TIP3    H159557   4.800   4.137  13.414 -1.7971 -0.1881  0.4047
12714TIP3    H259558   4.784   4.172  13.561  0.4261  1.3991  0.3186
12715TIP3   OH259559   1.965   3.331  15.963 -0.2092  0.3132 -0.2717
12715TIP3    H159560   2.058   3.355  15.961  0.0720 -0.7868 -1.0134
12715TIP3    H259561   1.919   3.410  15.933  0.5428  0.6215 -0.6353
12716TIP3   OH259562   1.622   1.089  13.060  0.0330 -0.0858  0.2279
12716TIP3    H159563   1.621   1.176  13.020  0.1105 -0.2338 -0.1021
12716TIP3    H259564   1.597   1.104  13.151  4.2308  0.9431  1.4587
12717TIP3   OH259565   0.281   4.277   3.091  0.3252  0.1130  0.3543
12717TIP3    H159566   0.266   4.289   3.185  0.0775 -2.0041  0.6208
12717TIP3    H259567   0.213   4.217   3.063 -0.4862  1.8000 -1.5314
12718TIP3   OH259568   3.501   0.961   5.833 -0.0975 -0.4036 -0.2605
12718TIP3    H159569   3.437   0.906   5.786 -1.2219  0.3132  0.3878
12718TIP3    H259570   3.488   0.939   5.925 -1.9112  2.2222  0.2243
12719TIP3   OH259571   5.995   4.206   5.589  0.0927  0.3957 -0.2741
12719TIP3    H159572   6.037   4.123   5.609  0.6055  1.2610  2.5668
12719TIP3    H259573   5.902   4.184   5.579 -0.2064 -0.2919  2.9556
12720TIP3   OH259574   4.296   6.284  15.928 -0.0915 -0.2155 -0.6917
12720TIP3    H159575   4.218   6.313  15.974 -1.0622 -1.6134 -1.3640
12720TIP3    H259576   4.367   6.336  15.965 -1.3956  1.4349 -0.3892
12721TIP3   OH259577   5.611   4.059  13.139 -0.3708 -0.7200 -0.4389
12721TIP3    H159578   5.590   4.023  13.225  0.2179  0.9122  0.4310
12721TIP3    H259579   5.656   4.141  13.158  0.1902 -0.5484 -2.3122
12722TIP3   OH259580   3.240   3.379  13.672  0.0503 -0.2186 -0.5623
12722TIP3    H159581   3.289   3.455  13.640 -0.8796  0.6568  0.0334
12722TIP3    H259582   3.153   3.389  13.635 -0.1151 -0.9372 -0.3760
12723TIP3   OH259583   3.897   1.228  13.703  0.3938 -0.1585 -0.1662
12723TIP3    H159584   3.846   1.215  13.623  3.7508  0.7341 -2.6781
12723TIP3    H259585   3.972   1.280  13.675  2.2040 -0.5519  3.4311
12724TIP3   OH259586   2.953   2.929   1.501  0.3951  0.1250  0.6941
12724TIP3    H159587   3.033   2.925   1.448  0.1379  1.6699  0.1395
12724TIP3    H259588   2.888   2.883   1.449  0.4164  0.6789  0.1672
12725TIP3   OH259589   4.248   1.973  15.864  0.1935  0.3497 -0.0160
12725TIP3    H159590   4.295   2.055  15.847  3.3483 -1.0038  1.3172
12725TIP3    H259591   4.242   1.969  15.959 -2.2640  0.1641 -0.1239
12726TIP3   OH259592   5.747   3.429  16.274  0.5946  0.5865  0.3552
12726TIP3    H159593   5.764   3.472  16.358  0.9737 -0.2711  0.7378
12726TIP3    H259594   5.655   3.405  16.277  0.2972  1.6407  0.0029
12727TIP3   OH259595   0.855   3.339   2.519  0.0352 -0.2740  0.3450
12727TIP3    H159596   0.798   3.265   2.541  1.0094 -1.3523 -0.5946
12727TIP3    H259597   0.942   3.300   2.510  0.5343  0.9493 -0.4280
12728TIP3   OH259598   4.458   3.124  11.978 -0.6873  0.0156  0.1834
12728TIP3    H159599   4.483   3.211  11.947 -0.0076 -0.5658 -0.9717
12728TIP3    H259600   4.507   3.064  11.922 -0.5543 -1.1141  1.4599
12729TIP3   OH259601   1.125   2.483  14.905 -0.5798  0.8449 -0.3062
12729TIP3    H159602   1.161   2.447  14.986  1.2467 -0.3925 -1.5948
12729TIP3    H259603   1.166   2.569  14.897 -0.2999  0.7246 -0.1972
12730TIP3   OH259604   0.244   4.083   1.426  0.2364 -0.4401  0.3728
12730TIP3    H159605   0.232   4.100   1.519 -1.9612 -2.5834  0.5879
12730TIP3    H259606   0.251   4.170   1.387 -3.9961  0.9234  2.0246
12731TIP3   OH259607   6.412   2.284  16.301 -0.1010  0.0604 -0.1677
12731TIP3    H159608   6.449   2.287  16.389  0.0061 -2.6140 -0.0405
12731TIP3    H259609   6.319   2.269  16.315 -0.1220 -0.1531 -0.5259
12732TIP3   OH259610   5.469   1.794   5.360 -0.7756 -0.4809 -0.0913
12732TIP3    H159611   5.498   1.756   5.277 -1.0986 -0.8507 -0.0365
12732TIP3    H259612   5.466   1.889   5.343 -1.3233 -0.5939 -0.6516
12733TIP3   OH259613   1.785   2.330  15.255 -0.2739  0.2243 -0.6717
12733TIP3    H159614   1.852   2.386  15.294 -1.2230  1.2999 -0.5463
12733TIP3    H259615   1.833   2.251  15.229  0.9531  0.7711 -0.1748
12734TIP3   OH259616   6.240   0.488  11.404 -0.6919  0.7113  0.2141
12734TIP3    H159617   6.301   0.487  11.477  1.3725 -1.4228 -1.3902
12734TIP3    H259618   6.176   0.420  11.425 -1.5555  1.7521  1.0830
12735TIP3   OH259619   4.643   0.408  10.834 -0.1290  0.0062 -0.2380
12735TIP3    H159620   4.646   0.326  10.883  1.2693  0.4394  0.4668
12735TIP3    H259621   4.603   0.471  10.894 -1.2430 -0.1391 -0.7940
12736TIP3   OH259622   1.983   5.217  15.153  0.5816 -0.0678  0.4299
12736TIP3    H159623   1.969   5.166  15.074 -0.2371  0.1675  0.4161
12736TIP3    H259624   1.912   5.281  15.153  0.5459 -0.0974  1.3796
12737TIP3   OH259625   2.126   4.967   5.809  0.4411  0.7477  0.6930
12737TIP3    H159626   2.056   4.902   5.805 -0.4193  1.6642  0.4986
12737TIP3    H259627   2.157   4.975   5.719  1.5586 -0.4344  0.9391
12738TIP3   OH259628   4.940   2.016   1.534 -0.2501  0.9545  0.0888
12738TIP3    H159629   5.002   1.964   1.481 -0.8954 -1.0535  1.1870
12738TIP3    H259630   4.995   2.083   1.574  0.5395  1.5141 -1.7945
12739TIP3   OH259631   1.676   1.127   1.883  0.3086  0.1360  0.0987
12739TIP3    H159632   1.759   1.080   1.892  0.4305  0.3645  0.1661
12739TIP3    H259633   1.611   1.058   1.868  0.4722 -0.0609  0.2965
12740TIP3   OH259634   1.196   6.302   2.105 -0.1818  0.3836 -0.0066
12740TIP3    H159635   1.148   6.327   2.026 -0.6112  0.1796  0.1846
12740TIP3    H259636   1.185   6.375   2.165 -0.2735  0.3283  0.0446
12741TIP3   OH259637   3.031   6.297   5.772 -0.1113  0.3033 -0.3786
12741TIP3    H159638   2.938   6.275   5.762 -0.0991  0.2067 -0.2719
12741TIP3    H259639   3.073   6.259   5.695 -0.3007  1.1428 -0.9169
12742TIP3   OH259640   1.895   2.378   4.348  0.5101  0.0328  0.1812
12742TIP3    H159641   1.905   2.472   4.334  0.7590 -0.2993 -2.1659
12742TIP3    H259642   1.898   2.339   4.261  2.7322 -2.4048  1.2064
12743TIP3   OH259643   0.825   6.528  13.539  0.1770  0.1038 -0.8220
12743TIP3    H159644   0.851   6.438  13.559  2.8336  0.8586 -0.6099
12743TIP3    H259645   0.856   6.580  13.613  1.6259  1.6081 -2.3903
12744TIP3   OH259646   6.531   3.813   5.921  0.0868 -0.0014 -0.0787
12744TIP3    H159647   6.621   3.844   5.910 -0.1062  0.3415 -0.7635
12744TIP3    H259648   6.532   3.763   6.003  1.3159 -1.5523 -1.0067
12745TIP3   OH259649   5.491   3.673   4.600  0.0315 -0.1598 -0.3124
12745TIP3    H159650   5.569   3.667   4.546  0.9925  1.5378  0.8052
12745TIP3    H259651   5.422   3.631   4.549  1.3408 -0.3514 -1.9645
12746TIP3   OH259652   0.369   2.101  16.102  0.6061 -0.0494 -0.2295
12746TIP3    H159653   0.395   2.043  16.173  0.8277 -1.1145 -1.1661
12746TIP3    H259654   0.417   2.070  16.026  0.0459  0.8080 -0.9575
12747TIP3   OH259655   5.449   3.422  16.384 -0.7081 -0.1320 -0.2082
12747TIP3    H159656   5.398   3.363  16.328 -1.2470  1.2257 -1.2107
12747TIP3    H259657   5.430   3.393  16.473 -0.3313 -1.9471 -0.6882
12748TIP3   OH259658   2.040   3.827  15.596  0.1763  0.5487  0.4225
12748TIP3    H159659   1.959   3.851  15.640 -0.6300 -1.6122  0.2562
12748TIP3    H259660   2.053   3.735  15.619  2.2215  0.6544 -0.1161
12749TIP3   OH259661   6.324   6.044  13.024  0.1802  0.3834 -0.2932
12749TIP3    H159662   6.368   6.010  12.946  0.7951 -2.2715  1.0881
12749TIP3    H259663   6.250   6.094  12.990 -0.7240 -2.2724 -2.6214
12750TIP3   OH259664   3.846   1.273   6.295 -0.2956  0.3601  0.3265
12750TIP3    H159665   3.872   1.247   6.206 -0.0014  0.5408  0.3568
12750TIP3    H259666   3.922   1.252   6.349  0.5667  2.6479  0.1096
12751TIP3   OH259667   5.513   4.381   4.254  0.2235 -0.3274  0.2772
12751TIP3    H159668   5.445   4.402   4.318  0.8745  0.3358  0.7492
12751TIP3    H259669   5.495   4.439   4.180 -0.0334 -0.5234  0.1820
12752TIP3   OH259670   0.283   1.121   0.957  0.2183 -0.2450 -0.3095
12752TIP3    H159671   0.308   1.130   1.049 -0.4126 -1.4176 -0.0067
12752TIP3    H259672   0.367   1.119   0.910  0.5476  0.3099  0.2385
12753TIP3   OH259673   2.023   3.981  15.388 -0.1281 -0.0884  0.0075
12753TIP3    H159674   2.037   3.914  15.456 -1.2612  0.1625  0.5194
12753TIP3    H259675   2.078   4.054  15.415  0.0780 -0.3089  0.1914
12754TIP3   OH259676   2.473   2.337  10.262  0.1003  0.1044  0.3283
12754TIP3    H159677   2.550   2.353  10.316  0.2370  2.2216 -0.3745
12754TIP3    H259678   2.400   2.332  10.324  0.7045 -1.3181  0.9491
12755TIP3   OH259679   2.004   2.489   3.290 -0.0229  0.4936 -0.3900
12755TIP3    H159680   1.982   2.418   3.230 -1.6585  0.5650  0.0840
12755TIP3    H259681   1.969   2.568   3.249 -0.3616  0.6686  0.2178
12756TIP3   OH259682   2.616   3.700  10.805  0.4332 -0.0513  0.3907
12756TIP3    H159683   2.550   3.730  10.868  0.1703  0.1786  0.0101
12756TIP3    H259684   2.609   3.762  10.732  2.3725  1.1621  1.1489
12757TIP3   OH259685   1.687   3.757   1.289  0.2300  0.7308 -1.2630
12757TIP3    H159686   1.680   3.807   1.370 -1.1769  2.3210 -2.3027
12757TIP3    H259687   1.780   3.761   1.266  0.4360  1.3292 -0.3816
12758TIP3   OH259688   3.178   1.203  17.029  0.2651  0.1082 -0.3302
12758TIP3    H159689   3.083   1.212  17.035  0.0439 -1.6653 -0.5516
12758TIP3    H259690   3.211   1.241  17.111 -0.6038  0.8227 -0.2905
12759TIP3   OH259691   4.262   2.667   3.703  0.5339  0.1880  0.1971
12759TIP3    H159692   4.244   2.573   3.700  0.4040 -0.0878  3.9346
12759TIP3    H259693   4.356   2.672   3.723 -0.0075  0.5888  3.1027
12760TIP3   OH259694   0.367   5.607  14.478  0.0797  0.1731 -0.2345
12760TIP3    H159695   0.344   5.680  14.420 -0.8906  0.0040 -0.0803
12760TIP3    H259696   0.403   5.540  14.419  1.8822  1.0995 -0.2722
12761TIP3   OH259697   1.859   4.738  15.286  0.8677  0.2418  0.1695
12761TIP3    H159698   1.819   4.734  15.373  0.6611 -1.8016  0.0121
12761TIP3    H259699   1.790   4.773  15.229  0.4491  0.0038  0.5250
12762TIP3   OH259700   4.537   6.635   2.019  0.2402  0.2756  0.1738
12762TIP3    H159701   4.443   6.629   2.035  0.3203  1.8008  1.5453
12762TIP3    H259702   4.567   6.545   2.014 -1.3408 -0.2383 -0.6301
12763TIP3   OH259703   3.667   3.103  13.553  0.8270 -0.1546  0.6036
12763TIP3    H159704   3.675   3.074  13.463  0.6580  0.9137  0.2276
12763TIP3    H259705   3.756   3.127  13.579  1.2556 -2.3771  1.4359
12764TIP3   OH259706   2.398   6.722   3.887 -0.2224 -0.6194  0.1040
12764TIP3    H159707   2.487   6.729   3.853 -0.3466 -0.2013 -0.1341
12764TIP3    H259708   2.342   6.752   3.815 -0.3730  2.7911  1.4727
12765TIP3   OH259709   5.337   0.932  11.564  0.3045  0.2549  0.1499
12765TIP3    H159710   5.255   0.909  11.521  1.2935 -1.0601 -1.1307
12765TIP3    H259711   5.316   0.934  11.657 -0.7768 -2.0044  0.0125
12766TIP3   OH259712   5.785   5.366  16.639 -0.4148  0.5827 -0.2549
12766TIP3    H159713   5.721   5.306  16.601 -1.3288  0.9107  0.7281
12766TIP3    H259714   5.737   5.413  16.707  0.7306  1.2328  0.1357
12767TIP3   OH259715   2.737   1.163   4.856  0.6956 -0.0295 -0.1563
12767TIP3    H159716   2.656   1.134   4.814  0.2475 -1.1658  1.3847
12767TIP3    H259717   2.806   1.141   4.793  0.0378 -1.5386 -0.4043
12768TIP3   OH259718   0.460   6.220   4.536  0.0983  0.0640  0.1169
12768TIP3    H159719   0.480   6.272   4.458 -2.6858  2.7364  0.9505
12768TIP3    H259720   0.376   6.178   4.515 -0.5738  0.6371  1.5331
12769TIP3   OH259721   1.282   3.400  11.930  0.0481 -0.0986  0.5642
12769TIP3    H159722   1.227   3.327  11.961 -0.1441 -0.2596 -0.1304
12769TIP3    H259723   1.221   3.473  11.921  0.1470  0.0105  0.7910
12770TIP3   OH259724   5.597   3.044  16.322  0.4326  0.2538  0.0593
12770TIP3    H159725   5.638   3.108  16.380 -2.0156  2.0717 -0.0927
12770TIP3    H259726   5.536   2.996  16.378 -0.8941  1.0432 -0.6691
12771TIP3   OH259727   4.534   4.649  10.768 -0.1856  0.0453  0.0817
12771TIP3    H159728   4.540   4.610  10.681 -1.4709 -1.1863  0.5089
12771TIP3    H259729   4.590   4.727  10.764 -0.1537 -0.0456 -1.8035
12772TIP3   OH259730   4.347   6.191  14.309 -0.0947  0.3404  0.2411
12772TIP3    H159731   4.349   6.263  14.246  1.3903  0.2038  0.0925
12772TIP3    H259732   4.425   6.139  14.289 -2.3231 -2.7001 -1.1958
12773TIP3   OH259733   1.943   2.186  16.160 -0.1342  0.0043  0.1803
12773TIP3    H159734   2.034   2.213  16.173  0.9202 -2.8460 -0.4933
12773TIP3    H259735   1.907   2.180  16.249  0.3276  1.0458  0.4577
12774TIP3   OH259736   1.685   3.165   1.438  0.7556 -0.5985  0.2270
12774TIP3    H159737   1.777   3.139   1.445  0.3961 -1.6811  1.3121
12774TIP3    H259738   1.687   3.260   1.437  1.9058 -0.6120  0.0872
12775TIP3   OH259739   3.645   6.255   3.197 -0.5030  0.1979 -0.2361
12775TIP3    H159740   3.696   6.233   3.276 -1.2541  0.0340  0.2115
12775TIP3    H259741   3.707   6.303   3.142 -0.3435  1.5392  1.0426
12776TIP3   OH259742   0.429   0.357  15.177  0.2586 -0.4467  0.2838
12776TIP3    H159743   0.378   0.438  15.182  1.1030  0.3123 -1.9950
12776TIP3    H259744   0.401   0.306  15.253 -2.5469  0.6780  0.1270
12777TIP3   OH259745   6.056   1.383   1.145  0.0413  0.4125  0.2869
12777TIP3    H159746   5.996   1.397   1.219  1.0756  3.7655  0.6627
12777TIP3    H259747   6.136   1.428   1.171  1.1783 -0.1488 -2.0463
12778TIP3   OH259748   5.258   1.786  14.802  0.8755  0.6491  0.5111
12778TIP3    H159749   5.315   1.711  14.818  0.5866  0.0165 -1.2319
12778TIP3    H259750   5.192   1.754  14.741  0.3627  2.1510  0.2254
12779TIP3   OH259751   1.519   1.276  13.316  0.5365 -0.1692  0.2794
12779TIP3    H159752   1.542   1.206  13.377  0.3380  0.2066  0.7952
12779TIP3    H259753   1.424   1.275  13.313  0.5558 -0.4305 -0.3206
12780TIP3   OH259754   0.815   2.355   1.545 -0.0517 -0.2145  0.2380
12780TIP3    H159755   0.854   2.328   1.628  1.6247 -0.8139 -0.7002
12780TIP3    H259756   0.785   2.274   1.505  1.6137 -0.3193 -0.9141
12781TIP3   OH259757   3.542   6.220   2.862  0.7908 -0.2678  0.2977
12781TIP3    H159758   3.507   6.154   2.802  2.5704 -2.1623  1.2220
12781TIP3    H259759   3.549   6.300   2.809  0.1020 -1.2359 -1.3184
12782TIP3   OH259760   6.756   5.905  11.449  0.3202  0.1790  0.4425
12782TIP3    H159761   6.805   5.984  11.427 -0.7647  1.2353  1.6634
12782TIP3    H259762   6.677   5.936  11.493 -0.1011 -1.5872  1.0549
12783TIP3   OH259763   4.961   3.787  15.946  0.7961  0.6422  0.1522
12783TIP3    H159764   5.002   3.701  15.958 -0.9706 -0.4123 -1.0033
12783TIP3    H259765   5.029   3.841  15.907  1.5836 -0.5748 -0.2016
12784TIP3   OH259766   4.837   0.806   2.512 -0.0003  0.5212  0.5447
12784TIP3    H159767   4.887   0.833   2.436 -0.8554  0.2617 -0.1339
12784TIP3    H259768   4.880   0.726   2.542  1.1993  1.3876  1.2247
12785TIP3   OH259769   2.253   0.064   0.933 -0.3407 -0.6806 -0.1746
12785TIP3    H159770   2.327   0.117   0.901  1.3474 -1.7608  1.7377
12785TIP3    H259771   2.226   0.107   1.014 -2.1930 -0.0360 -1.0717
12786TIP3   OH259772   1.770   1.196   4.711 -0.1590 -0.2602 -0.5623
12786TIP3    H159773   1.799   1.287   4.706 -0.8634  0.0015  0.0735
12786TIP3    H259774   1.825   1.151   4.647  0.2868  0.5821 -0.7936
12787TIP3   OH259775   5.981   1.202  16.028  0.0517 -0.4852 -0.0985
12787TIP3    H159776   6.044   1.274  16.030  0.7039 -1.0728  1.0617
12787TIP3    H259777   5.896   1.245  16.019  0.3852  0.4834  1.1077
12788TIP3   OH259778   4.951   0.835   2.979 -0.2913 -0.2248  0.0012
12788TIP3    H159779   4.985   0.873   2.899 -0.8520  0.0132 -0.1304
12788TIP3    H259780   5.012   0.862   3.048 -0.6830  0.9225 -0.0860
12789TIP3   OH259781   1.718   5.220   2.023  0.0608 -0.0169  0.4143
12789TIP3    H159782   1.709   5.174   1.940 -0.9063 -1.8067  1.4432
12789TIP3    H259783   1.684   5.159   2.089 -0.5404  1.8666  1.9785
12790TIP3   OH259784   1.687   0.932  15.014  0.2377 -0.1698  0.2468
12790TIP3    H159785   1.609   0.985  15.000  1.2390  1.1543 -0.5415
12790TIP3    H259786   1.665   0.846  14.977 -1.5311 -0.4833  1.8721
12791TIP3   OH259787   4.548   2.215   5.930  0.0704 -0.0332 -0.3910
12791TIP3    H159788   4.638   2.182   5.931  0.3619  0.6655 -1.3135
12791TIP3    H259789   4.555   2.304   5.964 -0.3203 -0.0729 -0.2077
12792TIP3   OH259790   1.541   4.017  11.818 -0.3467  0.2374  0.2890
12792TIP3    H159791   1.504   3.959  11.885  0.1751  1.1377  1.3991
12792TIP3    H259792   1.607   4.068  11.865  1.0744 -0.1104 -1.2548
12793TIP3   OH259793   0.199   2.786   5.093  0.1277 -0.4409 -0.3786
12793TIP3    H159794   0.163   2.702   5.064 -0.8378 -0.2680  0.2844
12793TIP3    H259795   0.135   2.819   5.156  0.6358  0.6642 -0.4231
12794TIP3   OH259796   2.755   6.347   0.536 -0.0109  0.4495 -0.3604
12794TIP3    H159797   2.795   6.433   0.548 -1.2049  1.4572 -2.9871
12794TIP3    H259798   2.681   6.347   0.596  1.5720  0.0471  1.7352
12795TIP3   OH259799   3.094   0.153  10.491  0.1368 -0.0915  0.3390
12795TIP3    H159800   3.046   0.077  10.524 -1.3948 -0.1695 -1.8869
12795TIP3    H259801   3.176   0.117  10.458  1.5166 -0.0739  3.4155
12796TIP3   OH259802   1.271   5.455   1.029  0.1175  0.3497  0.0606
12796TIP3    H159803   1.325   5.524   1.067  1.4187 -0.8987  0.5736
12796TIP3    H259804   1.301   5.449   0.938 -1.5692  1.9357 -0.6686
12797TIP3   OH259805   3.062   2.144  10.906 -0.2500 -0.0355 -0.4856
12797TIP3    H159806   2.996   2.213  10.906  1.5277  1.7578  0.4456
12797TIP3    H259807   3.134   2.179  10.855  1.4199 -0.4155  1.4705
12798TIP3   OH259808   0.285   6.091  10.315 -0.5465  0.0208  0.6630
12798TIP3    H159809   0.317   6.001  10.325  0.7057  0.5429  1.5950
12798TIP3    H259810   0.218   6.100  10.382 -1.4772 -0.5482 -0.1679
12799TIP3   OH259811   0.194   3.347  12.171  0.2169  0.6421  0.4953
12799TIP3    H159812   0.229   3.263  12.200 -0.9776  0.0617  0.3273
12799TIP3    H259813   0.214   3.407  12.243  0.9277  0.1843  0.6938
12800TIP3   OH259814   3.809   1.519  16.904  0.6015 -0.0027  0.1267
12800TIP3    H159815   3.754   1.588  16.867  2.8330  2.2220  0.6845
12800TIP3    H259816   3.817   1.455  16.834 -1.2790  0.3939 -0.5292
12801TIP3   OH259817   0.452   0.388  14.053 -0.3396  0.0210  0.8493
12801TIP3    H159818   0.536   0.407  14.011 -1.4978 -1.4049 -2.3580
12801TIP3    H259819   0.401   0.468  14.044 -1.2072 -0.7470 -2.3802
12802TIP3   OH259820   5.196   5.077   2.787  0.4320  0.8529 -0.1199
12802TIP3    H159821   5.273   5.085   2.731  0.1939  1.5034 -0.3661
12802TIP3    H259822   5.184   5.164   2.824  1.0173  0.2573  1.5492
12803TIP3   OH259823   0.075   2.383   2.441  0.1912  0.2012  0.0089
12803TIP3    H159824  -0.019   2.374   2.426  0.3071  0.3152 -0.8025
12803TIP3    H259825   0.098   2.305   2.492 -0.2573 -0.0666 -0.1891
12804TIP3   OH259826   0.045   1.138   3.080 -0.7642  0.6391  0.4840
12804TIP3    H159827  -0.035   1.115   3.033 -0.8826  1.0893  0.4598
12804TIP3    H259828   0.104   1.065   3.064 -0.9264  0.6289 -0.0870
12805TIP3   OH259829   2.972   3.794  16.025 -0.5152 -0.8845  0.0484
12805TIP3    H159830   2.948   3.861  16.089 -1.1674  0.6038 -1.7008
12805TIP3    H259831   2.954   3.711  16.071  1.1190  0.0270  2.5715
12806TIP3   OH259832   5.264   5.276  16.816  0.2733  0.3795 -0.2861
12806TIP3    H159833   5.299   5.192  16.843  0.2604  0.4556 -0.0299
12806TIP3    H259834   5.172   5.260  16.797 -0.0122  0.5734  0.8796
12807TIP3   OH259835   0.512   4.230   4.746  0.2766  0.2888 -0.1449
12807TIP3    H159836   0.437   4.196   4.796  1.2656 -1.6321  0.0980
12807TIP3    H259837   0.472   4.265   4.666 -0.8119 -1.9896 -0.6871
12808TIP3   OH259838   6.271   6.295  15.349 -0.0374 -0.3244 -0.1263
12808TIP3    H159839   6.340   6.332  15.294  0.7501 -0.8185  0.5104
12808TIP3    H259840   6.204   6.266  15.287  0.4516 -0.0978 -0.7747
12809TIP3   OH259841   5.383   0.317  13.498 -0.3359 -0.1423 -1.0426
12809TIP3    H159842   5.307   0.272  13.534  0.7905 -0.6043  0.8635
12809TIP3    H259843   5.370   0.409  13.522 -0.6573 -0.0772 -1.4364
12810TIP3   OH259844   2.854   2.274   3.364  0.1358 -0.4881  0.2057
12810TIP3    H159845   2.926   2.241   3.417  1.1043  0.6369 -0.3648
12810TIP3    H259846   2.852   2.216   3.288  0.1650 -0.7740  0.4198
12811TIP3   OH259847   3.112   4.634  12.017 -0.1626  0.1109 -0.6637
12811TIP3    H159848   3.033   4.666  12.062 -1.3375 -0.8305 -1.9730
12811TIP3    H259849   3.162   4.590  12.086 -0.8150  0.6307  0.1720
12812TIP3   OH259850   3.632   6.177  10.725  0.2629 -0.1826 -0.1618
12812TIP3    H159851   3.586   6.228  10.791  0.1384 -1.5463  0.8402
12812TIP3    H259852   3.565   6.156  10.660  0.3413  0.9877 -0.6451
12813TIP3   OH259853   4.174   6.355   4.847  0.0304 -0.7074 -0.1049
12813TIP3    H159854   4.141   6.342   4.936 -1.2824 -2.3155 -0.7842
12813TIP3    H259855   4.238   6.285   4.834 -0.6679 -1.2191 -0.8313
12814TIP3   OH259856   0.533   5.261  16.381  0.0252  0.5175  0.5431
12814TIP3    H159857   0.450   5.220  16.404  0.9522 -0.9103  1.5658
12814TIP3    H259858   0.531   5.346  16.424 -1.4570  1.0952 -0.6078
12815TIP3   OH259859   4.527   2.959   1.571  0.2710 -0.1002 -1.0184
12815TIP3    H159860   4.619   2.984   1.574  0.2205  0.1582 -1.5126
12815TIP3    H259861   4.528   2.863   1.580  0.6145 -0.1365 -1.4302
12816TIP3   OH259862   5.009   1.359   3.097 -0.6490 -0.2937 -0.4275
12816TIP3    H159863   4.977   1.364   3.187  2.7280  0.9200  0.8578
12816TIP3    H259864   4.965   1.432   3.052  0.2199  1.3552  1.2540
12817TIP3   OH259865   3.473   2.314   4.817 -0.2181  0.5456 -0.6717
12817TIP3    H159866   3.479   2.309   4.722 -0.1406 -0.9523 -0.6149
12817TIP3    H259867   3.525   2.391   4.840  1.1084  0.0158 -1.7389
12818TIP3   OH259868   4.168   4.521   1.801  0.3692  0.1913  0.9427
12818TIP3    H159869   4.213   4.589   1.751 -0.5831  0.6987  0.7395
12818TIP3    H259870   4.177   4.442   1.748 -0.9448  0.8027 -0.2705
12819TIP3   OH259871   5.696   3.364   1.494 -0.3239 -0.8611  0.7249
12819TIP3    H159872   5.665   3.401   1.576 -0.7983  0.6094 -0.0763
12819TIP3    H259873   5.727   3.276   1.517 -1.5713 -0.9502  2.2372
12820TIP3   OH259874   5.995   3.351  11.345  0.0282 -0.1096  0.0115
12820TIP3    H159875   5.902   3.344  11.365 -0.2613  2.8656  0.2015
12820TIP3    H259876   5.998   3.367  11.251  0.3532 -0.3469 -0.0180
12821TIP3   OH259877   4.365   5.519   1.040 -0.4680 -0.1473 -0.5827
12821TIP3    H159878   4.359   5.423   1.047  0.9793 -0.2050  0.3516
12821TIP3    H259879   4.340   5.550   1.128 -1.2082  0.3655 -0.9634
12822TIP3   OH259880   2.761   3.153   0.549  0.0882 -0.4347  0.5891
12822TIP3    H159881   2.816   3.113   0.482  0.3036  0.7274  0.0520
12822TIP3    H259882   2.685   3.186   0.501 -0.1059 -0.2436  1.0208
12823TIP3   OH259883   4.570   3.370  15.967 -0.2711 -0.4955 -0.3238
12823TIP3    H159884   4.569   3.427  16.043 -3.7531 -0.0527 -0.5759
12823TIP3    H259885   4.598   3.285  16.002 -0.1263  0.0978  1.0789
12824TIP3   OH259886   6.679   4.672  15.201  0.4688  0.7320 -0.3506
12824TIP3    H159887   6.624   4.631  15.134  1.4241 -0.5130 -0.4119
12824TIP3    H259888   6.666   4.618  15.279 -1.0052  2.4476  0.6748
12825TIP3   OH259889   2.305   0.966  17.197 -0.2899  0.2333  0.1873
12825TIP3    H159890   2.257   1.008  17.126  3.0084  0.5061 -2.1276
12825TIP3    H259891   2.390   1.011  17.198  0.0851 -0.2535  3.9227
12826TIP3   OH259892   5.756   5.892   4.231  0.1766  0.3302 -0.6194
12826TIP3    H159893   5.782   5.867   4.142  2.3193 -0.4546  0.1569
12826TIP3    H259894   5.839   5.910   4.276 -0.9163  1.8969  0.9088
12827TIP3   OH259895   4.407   6.280   0.144  0.0353  0.1328 -0.3621
12827TIP3    H159896   4.484   6.274   0.087  1.3699  0.5502  1.3032
12827TIP3    H259897   4.405   6.371   0.171 -1.1108  0.1328 -0.4358
12828TIP3   OH259898   2.147   2.645   0.590 -0.2935 -0.3467 -0.6878
12828TIP3    H159899   2.100   2.680   0.665  0.7428 -1.6280  0.6238
12828TIP3    H259900   2.239   2.659   0.610  0.0567 -1.8155 -1.0994
12829TIP3   OH259901   0.879   6.128  11.395  0.0256  0.3561  0.2165
12829TIP3    H159902   0.934   6.132  11.473  0.1833  0.4117  0.1023
12829TIP3    H259903   0.840   6.216  11.389  1.7022  1.0929 -0.9884
12830TIP3   OH259904   1.780   1.973   5.396  0.3551 -0.3383 -0.2502
12830TIP3    H159905   1.787   1.879   5.408 -1.0795 -0.3502  0.9066
12830TIP3    H259906   1.759   2.007   5.484  1.2172  1.0996 -0.5674
12831TIP3   OH259907   3.541   5.314  16.416 -0.6179 -0.1782 -0.7758
12831TIP3    H159908   3.478   5.382  16.438 -1.1614 -0.9905  0.2480
12831TIP3    H259909   3.536   5.307  16.320 -2.1316 -0.2505 -0.7223
12832TIP3   OH259910   5.478   6.150  14.021 -0.4513  0.3845  0.1576
12832TIP3    H159911   5.532   6.227  14.002  2.1431 -1.0479  1.0826
12832TIP3    H259912   5.432   6.172  14.102  0.6408  0.8310  0.6817
12833TIP3   OH259913   5.308   6.456  15.188 -0.5804 -0.2923 -0.6492
12833TIP3    H159914   5.349   6.542  15.179 -1.8957  0.3054 -1.2944
12833TIP3    H259915   5.315   6.416  15.102  1.2886 -1.4717 -0.0048
12834TIP3   OH259916   6.546   2.054  13.032  0.5178 -0.0474 -0.6592
12834TIP3    H159917   6.512   2.116  12.968  1.6435 -0.5270 -1.7559
12834TIP3    H259918   6.562   1.974  12.982 -1.2289 -1.3995  0.7682
12835TIP3   OH259919   1.012   6.431   2.533 -0.7406  0.1996  0.2142
12835TIP3    H159920   1.057   6.382   2.601 -1.6697 -1.0820 -0.0463
12835TIP3    H259921   0.960   6.497   2.580 -0.3673  0.1822  0.6511
12836TIP3   OH259922   2.568   4.944   3.210  0.1141 -0.2571  0.3122
12836TIP3    H159923   2.636   4.921   3.274 -0.6226 -2.0142  0.5336
12836TIP3    H259924   2.567   4.871   3.149 -1.1381  0.0449 -0.0603
12837TIP3   OH259925   1.893   0.383   6.713  0.0230 -0.2559 -0.3995
12837TIP3    H159926   1.876   0.336   6.631  0.2357 -0.5748 -0.2614
12837TIP3    H259927   1.836   0.460   6.709 -0.4785 -0.6307 -0.5369
12838TIP3   OH259928   5.471   5.047  11.909  0.0230  1.0067  0.1781
12838TIP3    H159929   5.474   5.054  11.813 -0.3760  2.6710  0.2531
12838TIP3    H259930   5.532   4.976  11.930  1.1772  1.5252 -1.2305
12839TIP3   OH259931   3.982   3.124   0.810  0.3790  0.1459 -0.1238
12839TIP3    H159932   4.026   3.188   0.754  1.3567  0.2410  0.7394
12839TIP3    H259933   3.931   3.176   0.872  0.9595  0.0865  0.4061
12840TIP3   OH259934   3.333   5.083  12.503 -0.5178  0.7968 -0.1853
12840TIP3    H159935   3.292   5.134  12.572 -0.8164 -1.0287  1.0458
12840TIP3    H259936   3.399   5.031  12.548 -1.1212 -0.8739 -1.1663
12841TIP3   OH259937   2.318   2.314   3.106  0.5471  0.0747  0.6292
12841TIP3    H159938   2.256   2.348   3.041 -0.5390  0.5889  1.9001
12841TIP3    H259939   2.264   2.262   3.166  1.7218 -1.4370  0.4540
12842TIP3   OH259940   2.602   6.668   5.246  0.1561 -0.1398  0.2392
12842TIP3    H159941   2.624   6.632   5.332 -0.4233  0.6277  0.7286
12842TIP3    H259942   2.675   6.728   5.227  0.8336 -1.1268 -0.3147
12843TIP3   OH259943   3.978   4.143  16.182  0.2495 -0.2508  0.1301
12843TIP3    H159944   4.007   4.225  16.221 -1.9687  0.5019  0.3872
12843TIP3    H259945   3.996   4.077  16.249  2.8828 -0.2056 -0.4271
12844TIP3   OH259946   2.235   1.920  10.519 -0.2112 -0.3388  0.2774
12844TIP3    H159947   2.330   1.915  10.512 -0.1986 -0.4534  0.5177
12844TIP3    H259948   2.214   2.011  10.495  0.2764  0.7452  3.4352
12845TIP3   OH259949   3.917   1.186   3.002  0.0971 -0.1294 -0.0036
12845TIP3    H159950   3.904   1.250   3.072 -1.1163 -2.1105  1.7008
12845TIP3    H259951   3.969   1.232   2.936 -0.5010  2.4798  1.2493
12846TIP3   OH259952   5.928   0.113  16.095 -0.1992 -0.2915  0.3700
12846TIP3    H159953   5.939   0.073  16.009 -1.6959  0.2595 -0.1161
12846TIP3    H259954   5.839   0.149  16.094  0.2838  1.0693  1.5858
12847TIP3   OH259955   0.867   4.577  12.861 -0.4395  0.2632  0.7675
12847TIP3    H159956   0.897   4.667  12.869 -1.3842  0.6182  0.4431
12847TIP3    H259957   0.901   4.533  12.939  1.7081  0.3871 -0.0226
12848TIP3   OH259958   4.566   0.302  11.740 -0.0747 -0.2322  0.4567
12848TIP3    H159959   4.563   0.253  11.822  1.8543 -1.0771  0.0778
12848TIP3    H259960   4.648   0.351  11.745 -1.4769  2.2923  0.4047
12849TIP3   OH259961   5.802   4.126  16.864 -0.0887 -0.1462 -0.1610
12849TIP3    H159962   5.774   4.087  16.781 -0.2075 -0.3797 -0.0128
12849TIP3    H259963   5.889   4.088  16.878  1.0415  1.8123 -1.4304
12850TIP3   OH259964   5.420   2.936  16.502 -0.6313  0.4417  0.1190
12850TIP3    H159965   5.429   2.852  16.546 -2.5638  0.2068  0.1778
12850TIP3    H259966   5.339   2.927  16.451 -0.2385  1.8654 -0.8035
12851TIP3   OH259967   3.133   1.951   1.655  0.4678  0.2255  0.3625
12851TIP3    H159968   3.168   2.039   1.671 -1.8671  0.9367  2.1563
12851TIP3    H259969   3.155   1.902   1.734 -2.5129  0.7678  1.6631
12852TIP3   OH259970   6.398   2.188   5.448 -0.1303 -0.2127  0.0931
12852TIP3    H159971   6.368   2.113   5.397  0.0618  1.0087 -1.9505
12852TIP3    H259972   6.325   2.251   5.443  0.3870  0.4134  0.2458
12853TIP3   OH259973   0.127   2.583  15.664  0.1189 -0.1822 -0.9724
12853TIP3    H159974   0.222   2.576  15.659  0.3053 -0.7919  1.8600
12853TIP3    H259975   0.100   2.607  15.575  2.9651  0.9668 -1.6313
12854TIP3   OH259976   0.258   0.827   1.392 -0.3442  0.3532  0.0132
12854TIP3    H159977   0.181   0.774   1.412 -0.3745  0.5366  0.3844
12854TIP3    H259978   0.265   0.888   1.465  0.2199  0.2637  0.0376
12855TIP3   OH259979   0.909   5.887  16.833 -0.1812 -0.2927 -0.2624
12855TIP3    H159980   0.902   5.976  16.867 -0.7684 -0.5359  0.2770
12855TIP3    H259981   0.818   5.863  16.812  0.1129 -0.2939 -1.6352
12856TIP3   OH259982   2.235   6.144  14.435 -0.2496 -0.6185  0.5930
12856TIP3    H159983   2.259   6.091  14.510 -1.0198 -0.6687  0.8055
12856TIP3    H259984   2.183   6.216  14.471  1.2008  0.5863  0.3809
12857TIP3   OH259985   3.631   4.325  11.307 -0.1520  0.0611 -0.0310
12857TIP3    H159986   3.558   4.266  11.328 -0.0072 -0.7638 -1.6505
12857TIP3    H259987   3.604   4.367  11.224 -0.0450  1.9620  0.8380
12858TIP3   OH259988   4.690   3.562   2.229  0.7978  0.2465  0.0735
12858TIP3    H159989   4.657   3.651   2.238 -0.4892 -0.2384  0.3910
12858TIP3    H259990   4.654   3.515   2.304  0.5398 -0.8059 -0.6867
12859TIP3   OH259991   6.495   3.617   3.894  0.1732 -0.1423  0.1750
12859TIP3    H159992   6.493   3.538   3.840  0.5297 -0.3723  0.4962
12859TIP3    H259993   6.413   3.616   3.943  0.0970 -0.2173  0.0445
12860TIP3   OH259994   3.065   1.686   1.163  0.5547  0.2003  0.1175
12860TIP3    H159995   3.078   1.694   1.258  0.2826  0.3134  0.1465
12860TIP3    H259996   3.034   1.596   1.151 -0.9138  0.6523  0.3146
12861TIP3   OH259997   4.259   4.274   0.187  0.0480  0.3065 -0.0166
12861TIP3    H159998   4.249   4.179   0.187  0.3835  0.2678 -0.0960
12861TIP3    H259999   4.173   4.308   0.212 -0.1945 -0.0040 -0.4181
12862TIP3   OH260000   1.012   4.261  14.496 -0.7377  0.2955 -0.1624
12862TIP3    H160001   0.919   4.277  14.478 -0.7619  1.3625  0.8433
12862TIP3    H260002   1.021   4.276  14.590  0.6499  1.1899 -0.4196
12863TIP3   OH260003   6.685   3.643  16.774 -0.7709  0.0334  0.3241
12863TIP3    H160004   6.777   3.623  16.789 -1.0485 -1.9003 -0.2627
12863TIP3    H260005   6.683   3.687  16.689 -0.3767  0.1182  0.3595
12864TIP3   OH260006   4.976   2.559  13.140  0.0435  0.3200  0.1984
12864TIP3    H160007   4.997   2.466  13.131  0.2908  0.5144 -1.6231
12864TIP3    H260008   5.038   2.591  13.206  3.1075  0.0726 -2.2939
12865TIP3   OH260009   3.126   6.082  15.362 -0.0979 -0.7236  0.2831
12865TIP3    H160010   3.056   6.019  15.380 -0.1778 -0.4291  1.0728
12865TIP3    H260011   3.205   6.040  15.395  0.2354 -1.3387 -1.2057
12866TIP3   OH260012   5.565   1.417  10.823 -0.4861  0.1693  0.3174
12866TIP3    H160013   5.575   1.389  10.914  0.5057 -0.3731  0.0508
12866TIP3    H260014   5.636   1.480  10.808 -1.0697  0.7999  0.1159
12867TIP3   OH260015   2.930   5.841  15.923 -0.5405 -0.1018  0.2623
12867TIP3    H160016   2.903   5.881  15.840  0.6633 -0.3494 -0.2733
12867TIP3    H260017   2.972   5.913  15.971  0.6658 -0.4433 -0.2517
12868TIP3   OH260018   0.537   3.888   4.355  0.0168  0.2772 -0.2099
12868TIP3    H160019   0.544   3.875   4.450  1.0316 -0.5225 -0.3690
12868TIP3    H260020   0.579   3.972   4.339  0.3527  0.1505 -0.0084
12869TIP3   OH260021   6.214   3.828  17.178 -0.3436  0.2649 -0.6498
12869TIP3    H160022   6.194   3.785  17.095 -0.5971 -0.1594 -0.3722
12869TIP3    H260023   6.300   3.795  17.203 -0.7662 -0.5015 -0.1722
12870TIP3   OH260024   3.473   6.081  11.982  0.0412 -0.4851  0.4100
12870TIP3    H160025   3.402   6.030  12.022 -0.8861  0.3181 -0.1720
12870TIP3    H260026   3.457   6.073  11.888 -0.4930  1.3477  0.3094
12871TIP3   OH260027   4.133   2.392   3.399  0.1213  0.5843 -0.2101
12871TIP3    H160028   4.141   2.356   3.310  0.0745 -0.0863  0.0538
12871TIP3    H260029   4.093   2.478   3.386 -2.2417 -0.4967 -0.6754
12872TIP3   OH260030   3.889   1.825   1.472  0.2312  0.0671  0.1772
12872TIP3    H160031   3.877   1.920   1.472 -0.7128 -0.0418 -0.3206
12872TIP3    H260032   3.983   1.812   1.463  0.2015  0.9422 -1.7385
12873TIP3   OH260033   3.056   4.217  13.471  0.2007  0.2643 -0.2281
12873TIP3    H160034   3.094   4.297  13.435  0.5045  1.1486  1.9086
12873TIP3    H260035   3.069   4.151  13.403  0.4893  1.8736 -1.7945
12874TIP3   OH260036   0.789   3.966  11.421  0.5378 -0.7155  0.4852
12874TIP3    H160037   0.766   4.008  11.504  0.1556 -0.3089  0.1754
12874TIP3    H260038   0.875   3.926  11.437  1.8496  1.8215  0.2189
12875TIP3   OH260039   0.626   4.555  15.251  0.2717  0.4766 -0.1753
12875TIP3    H160040   0.628   4.501  15.171  1.1328 -0.9915  0.7913
12875TIP3    H260041   0.549   4.524  15.298 -1.4950  2.8057 -1.3322
12876TIP3   OH260042   2.316   6.294  11.840 -0.3985 -0.2153 -0.3393
12876TIP3    H160043   2.233   6.261  11.805  0.1355 -1.1548 -0.7346
12876TIP3    H260044   2.352   6.348  11.769 -0.4645 -0.1499 -0.3235
12877TIP3   OH260045   0.642   4.322   0.594  0.0719  0.0616  0.4379
12877TIP3    H160046   0.641   4.281   0.507  0.1431  0.0878  0.4241
12877TIP3    H260047   0.585   4.398   0.585 -0.2658 -0.1818  0.5369
12878TIP3   OH260048   6.596   3.610   5.557 -0.2245  0.1386 -0.2506
12878TIP3    H160049   6.546   3.691   5.553 -1.1312 -0.3401  1.0673
12878TIP3    H260050   6.628   3.605   5.647 -2.0229 -2.0246  0.3510
12879TIP3   OH260051   0.034   0.362  11.266  0.2006  0.1627  0.5548
12879TIP3    H160052   0.073   0.374  11.353  0.4976  0.1081  0.4311
12879TIP3    H260053   0.107   0.333  11.212  0.1869  0.9408  0.1063
12880TIP3   OH260054   3.991   0.649  12.204  0.5617  0.2448  0.3747
12880TIP3    H160055   3.948   0.617  12.125  0.9168  1.3089 -0.2585
12880TIP3    H260056   4.037   0.728  12.177  1.7191 -0.0505  1.3655
12881TIP3   OH260057   3.297   2.306  14.459 -0.2303  0.2232 -0.2858
12881TIP3    H160058   3.230   2.349  14.406 -1.2617 -1.0668 -0.0784
12881TIP3    H260059   3.248   2.269  14.533  0.9721  0.7389  0.8066
12882TIP3   OH260060   4.886   3.718  16.676 -0.6304  0.1526 -0.0706
12882TIP3    H160061   4.976   3.695  16.650 -1.1294  1.3260 -3.4251
12882TIP3    H260062   4.863   3.654  16.743  1.4571 -2.5557 -1.7155
12883TIP3   OH260063   0.908   2.899   3.412  0.1541 -0.2289 -0.6433
12883TIP3    H160064   0.864   2.818   3.386  0.1935 -1.6530  3.0999
12883TIP3    H260065   0.852   2.969   3.378 -1.6972 -1.8734 -1.1508
12884TIP3   OH260066   3.086   5.511  14.881  0.3476  0.0982  0.5054
12884TIP3    H160067   3.116   5.601  14.885  1.1205 -0.1775  1.2463
12884TIP3    H260068   3.166   5.459  14.880 -0.0791 -0.6320  1.7590
12885TIP3   OH260069   3.065   6.566   3.025 -0.2233  0.3958 -0.3469
12885TIP3    H160070   3.145   6.611   2.998 -0.7358  1.9004  0.5329
12885TIP3    H260071   3.079   6.548   3.118 -2.1021  3.6211  0.7327
12886TIP3   OH260072   0.123   1.047  12.890 -0.5354 -0.3419  0.1567
12886TIP3    H160073   0.139   0.960  12.927  0.3763 -0.0526  0.4674
12886TIP3    H260074   0.154   1.108  12.958 -1.8184  0.2504  0.2546
12887TIP3   OH260075   3.946   3.789   4.416 -0.5154  0.2406  0.3472
12887TIP3    H160076   4.013   3.757   4.476 -0.5798 -0.2100  0.1800
12887TIP3    H260077   3.984   3.868   4.377  0.6894 -0.9914 -1.1253
12888TIP3   OH260078   4.025   0.454  14.216  0.6962 -0.0478  0.4732
12888TIP3    H160079   3.992   0.543  14.205  0.8522 -0.1403 -0.9341
12888TIP3    H260080   4.083   0.441  14.141  1.3817 -1.0308  1.1486
12889TIP3   OH260081   2.251   6.056   0.215 -0.4530 -0.0798  0.3197
12889TIP3    H160082   2.319   5.989   0.208 -1.1077 -0.6917 -0.3667
12889TIP3    H260083   2.293   6.128   0.262  0.7221 -0.3699 -0.2453
12890TIP3   OH260084   6.015   1.093   0.775  0.1963  0.2332 -0.1926
12890TIP3    H160085   6.058   1.177   0.790  0.1589  0.0810  0.8010
12890TIP3    H260086   5.965   1.076   0.855 -1.1878  0.0789 -1.0496
12891TIP3   OH260087   5.742   0.720  13.616  0.6895 -0.6619 -0.2881
12891TIP3    H160088   5.827   0.745  13.653  0.3404  0.7716 -0.4116
12891TIP3    H260089   5.724   0.634  13.654  1.1462 -0.0019  1.5488
12892TIP3   OH260090   4.418   3.260   5.934 -1.0186  0.0528  0.2425
12892TIP3    H160091   4.391   3.347   5.963 -0.4950  0.4934 -0.5415
12892TIP3    H260092   4.511   3.270   5.910 -0.9671 -0.6990  0.0826
12893TIP3   OH260093   2.953   3.331   3.916 -0.1608  0.3261 -0.9509
12893TIP3    H160094   2.990   3.243   3.919  0.6287  0.6697 -0.3393
12893TIP3    H260095   2.860   3.317   3.898 -0.4836 -0.7891  1.1948
12894TIP3   OH260096   4.959   4.742  12.573  0.6311 -0.0242  0.8679
12894TIP3    H160097   4.913   4.826  12.581 -1.9043 -1.0752 -1.2420
12894TIP3    H260098   5.023   4.757  12.503  0.1070  0.1485  0.4139
12895TIP3   OH260099   1.917   1.393   2.357 -0.4799  0.0182  0.6575
12895TIP3    H160100   1.989   1.405   2.419 -1.2790  0.0656  1.6070
12895TIP3    H260101   1.890   1.482   2.334  0.1177  0.0021 -0.1342
12896TIP3   OH260102   0.522   6.419   5.833  0.1477 -0.4163  0.1856
12896TIP3    H160103   0.456   6.452   5.773 -1.2193 -0.9236  1.3499
12896TIP3    H260104   0.580   6.366   5.778 -2.2062 -2.5278 -0.4575
12897TIP3   OH260105   5.517   0.055  15.634  0.5986  0.1189 -0.5200
12897TIP3    H160106   5.549   0.143  15.654 -2.9767  1.1910  1.3490
12897TIP3    H260107   5.465   0.031  15.711 -0.1065 -2.8409 -1.7969
12898TIP3   OH260108   4.736   2.338  12.176 -0.4800  0.1141  0.0463
12898TIP3    H160109   4.728   2.430  12.204  0.6178  0.4968 -0.8183
12898TIP3    H260110   4.829   2.318  12.183 -0.4001 -0.2930 -1.6319
12899TIP3   OH260111   2.683   0.485   5.244 -0.1375 -0.2688 -0.1751
12899TIP3    H160112   2.588   0.481   5.253  0.1161 -0.8703  3.2817
12899TIP3    H260113   2.705   0.576   5.265  0.0758 -0.0045 -1.4362
12900TIP3   OH260114   3.767   1.992   5.678 -0.2737  0.2143  0.0110
12900TIP3    H160115   3.698   1.951   5.730  1.6594  0.3826  2.9543
12900TIP3    H260116   3.740   2.083   5.668 -1.4974 -0.2270 -0.8555
12901TIP3   OH260117   3.363   1.438   6.373  0.1599 -0.3188  0.0079
12901TIP3    H160118   3.458   1.439   6.374  0.1814  1.5358  0.2055
12901TIP3    H260119   3.338   1.471   6.460 -0.5864  1.7600 -0.9356
12902TIP3   OH260120   3.233   2.200   1.738  0.2739  0.0299 -0.2866
12902TIP3    H160121   3.278   2.177   1.819  2.8050  2.7083 -0.7817
12902TIP3    H260122   3.235   2.296   1.735  1.3985  0.0695 -4.0497
12903TIP3   OH260123   0.297   3.098  16.913 -0.6322  0.4727  0.5808
12903TIP3    H160124   0.357   3.045  16.966 -0.4663 -0.3382 -0.3789
12903TIP3    H260125   0.210   3.065  16.936 -0.6036  0.5456  0.7969
12904TIP3   OH260126   5.621   0.647   3.277 -0.2872  0.0163 -0.1995
12904TIP3    H160127   5.610   0.732   3.235  2.2832 -0.1152 -1.3167
12904TIP3    H260128   5.595   0.583   3.210  0.0719 -0.1278 -0.2021
12905TIP3   OH260129   5.668   1.883   2.220 -0.7487 -0.5707 -0.2414
12905TIP3    H160130   5.745   1.940   2.213 -2.1472  1.3950 -0.4349
12905TIP3    H260131   5.694   1.815   2.282  1.7100 -1.0106 -1.6154
12906TIP3   OH260132   2.500   3.767   3.715  0.3676  0.5504 -0.0449
12906TIP3    H160133   2.585   3.784   3.673  0.4157 -0.2070 -0.2632
12906TIP3    H260134   2.444   3.839   3.686  1.2465  1.6895  1.0023
12907TIP3   OH260135   3.354   5.253  13.942  0.6261 -0.4665 -0.2721
12907TIP3    H160136   3.282   5.266  13.880  0.9645 -0.8172 -0.7379
12907TIP3    H260137   3.429   5.295  13.902  1.1410 -1.7199 -0.6762
12908TIP3   OH260138   4.892   1.885  12.705 -0.0890 -0.0129 -0.2797
12908TIP3    H160139   4.955   1.845  12.646 -1.4332 -1.5162 -0.7758
12908TIP3    H260140   4.867   1.815  12.765 -0.2255  0.9478  0.8321
12909TIP3   OH260141   0.300   0.304  14.405  0.5120 -0.1127 -0.0660
12909TIP3    H160142   0.229   0.288  14.468  1.1197 -0.7388  0.4794
12909TIP3    H260143   0.309   0.399  14.403  0.3748 -0.0746  0.6881
12910TIP3   OH260144   2.685   2.609   1.990 -0.1488 -0.1138  0.3097
12910TIP3    H160145   2.777   2.590   1.975 -0.5488 -0.3676 -2.1602
12910TIP3    H260146   2.685   2.671   2.063  1.9786  0.2087  0.0983
12911TIP3   OH260147   6.681   3.803   3.466  0.2393  0.7077 -0.3175
12911TIP3    H160148   6.668   3.799   3.561 -2.2882  0.0284 -0.6005
12911TIP3    H260149   6.776   3.799   3.454  0.6379  1.1150  2.1791
12912TIP3   OH260150   2.358   2.006   4.072  0.1664  0.7724  0.5234
12912TIP3    H160151   2.416   1.990   3.997  0.5036 -0.2113  0.9775
12912TIP3    H260152   2.371   2.098   4.092  1.8190  0.5144  0.7912
12913TIP3   OH260153   6.063   5.102  13.715 -0.2229 -0.5999 -0.2949
12913TIP3    H160154   6.153   5.079  13.737 -0.9049 -2.7113  0.5350
12913TIP3    H260155   6.033   5.155  13.789  0.0957 -0.5564 -0.1974
12914TIP3   OH260156   2.567   1.668  12.852 -0.3460 -0.1540 -0.8623
12914TIP3    H160157   2.574   1.576  12.827 -3.2488 -0.8422  0.4326
12914TIP3    H260158   2.506   1.705  12.788 -1.1059  0.2239  0.0640
12915TIP3   OH260159   4.424   4.653   5.260  0.5254  0.1507  0.1887
12915TIP3    H160160   4.468   4.575   5.294 -0.9542 -1.1016 -0.6415
12915TIP3    H260161   4.355   4.671   5.324 -0.5046 -0.5677 -0.6615
12916TIP3   OH260162   5.424   2.357  12.194 -0.0160  0.4261 -0.4583
12916TIP3    H160163   5.377   2.380  12.273 -0.0942 -3.9632  1.0225
12916TIP3    H260164   5.356   2.349  12.127 -0.4836  0.4426  0.0075
12917TIP3   OH260165   5.507   5.183  14.513  0.1986 -0.4315  0.2974
12917TIP3    H160166   5.594   5.195  14.552  0.4051  1.1710 -0.5747
12917TIP3    H260167   5.481   5.271  14.486 -1.2245 -1.0625 -0.4577
12918TIP3   OH260168   0.146   1.359  11.786  0.0371 -0.4847  0.0042
12918TIP3    H160169   0.229   1.406  11.791  0.5864 -1.3129 -0.9815
12918TIP3    H260170   0.098   1.402  11.715 -0.7684  0.5491  1.1306
12919TIP3   OH260171   1.518   5.647  15.575  0.1704 -0.1752 -0.1127
12919TIP3    H160172   1.513   5.592  15.497 -0.4332 -0.3002  0.0084
12919TIP3    H260173   1.598   5.698  15.563  0.0520 -0.1472 -0.8401
12920TIP3   OH260174   1.003   5.410   3.893  0.5436 -0.7340  0.4415
12920TIP3    H160175   0.955   5.406   3.976 -0.5242 -0.8426 -0.1560
12920TIP3    H260176   0.954   5.351   3.835 -1.0826  2.1894 -1.4105
12921TIP3   OH260177   6.011   0.310   5.870  0.9062 -0.0409  0.4536
12921TIP3    H160178   5.963   0.305   5.787  0.1407 -2.1441  0.9733
12921TIP3    H260179   5.960   0.257   5.931  3.0804 -1.1365  1.4432
12922TIP3   OH260180   6.473   1.520   5.751 -0.2162  0.2381  0.2797
12922TIP3    H160181   6.444   1.478   5.670 -2.8240  0.9473  0.7420
12922TIP3    H260182   6.468   1.614   5.733  1.0645  0.4065  0.6924
12923TIP3   OH260183   6.114   3.956   4.107 -0.6663 -0.0254  0.3710
12923TIP3    H160184   6.142   4.047   4.118 -0.6548 -0.0138  0.2430
12923TIP3    H260185   6.165   3.924   4.033 -0.9158 -0.0355  0.2017
12924TIP3   OH260186   3.955   3.651   0.964  0.0033 -0.0955  0.2512
12924TIP3    H160187   3.888   3.715   0.987 -0.1194  0.0005 -0.3741
12924TIP3    H260188   3.906   3.573   0.938  0.1336 -0.0115 -0.2459
12925TIP3   OH260189   0.799   3.927  16.469  0.0475  0.1170  0.0138
12925TIP3    H160190   0.778   3.929  16.375  1.7214  1.0547 -0.3861
12925TIP3    H260191   0.893   3.942  16.472 -0.1294  1.0960  1.9056
12926TIP3   OH260192   1.122   2.896  13.760  0.8557  0.1779 -0.2703
12926TIP3    H160193   1.095   2.883  13.851 -0.9094 -1.7559 -0.9968
12926TIP3    H260194   1.181   2.822  13.742 -0.8450 -0.9686 -1.3884
12927TIP3   OH260195   2.429   5.029   5.063 -0.5191  0.2044  0.1946
12927TIP3    H160196   2.393   5.089   5.128 -0.6772  0.0801  0.2213
12927TIP3    H260197   2.521   5.019   5.088 -0.5077  0.3887  0.2252
12928TIP3   OH260198   2.882   1.648  11.919 -0.8720  0.4431 -0.3971
12928TIP3    H160199   2.956   1.683  11.969 -1.0606  0.1805  0.0650
12928TIP3    H260200   2.813   1.633  11.983 -0.5123 -1.6155 -0.4016
12929TIP3   OH260201   2.214   3.099  14.197  0.6959 -0.4987  0.0227
12929TIP3    H160202   2.269   3.025  14.172  1.9102 -0.1817  1.6021
12929TIP3    H260203   2.174   3.073  14.279 -0.8651 -0.3680 -0.6712
12930TIP3   OH260204   5.146   0.780  14.927  0.0085  0.8526 -0.1490
12930TIP3    H160205   5.090   0.710  14.893 -0.4672  0.4571  1.3971
12930TIP3    H260206   5.128   0.854  14.869 -1.0346  0.3088 -0.5543
12931TIP3   OH260207   5.403   2.715   1.149  0.3569  0.1942  0.0889
12931TIP3    H160208   5.466   2.681   1.213  1.4648  0.2604 -0.9225
12931TIP3    H260209   5.407   2.810   1.160 -0.9712  0.1502  1.2792
12932TIP3   OH260210   4.163   4.885  14.931 -0.6165 -0.0242 -0.1930
12932TIP3    H160211   4.070   4.866  14.914 -0.2453 -1.8510 -0.3998
12932TIP3    H260212   4.201   4.897  14.844 -0.6920  0.9470 -0.0973
12933TIP3   OH260213   0.330   2.978  14.291  0.4670 -0.0252 -0.0223
12933TIP3    H160214   0.339   2.895  14.245 -0.6500  0.0658 -0.4260
12933TIP3    H260215   0.300   3.040  14.224  2.2947  0.9716  0.0231
12934TIP3   OH260216   4.577   5.762   5.288 -0.0328 -0.3118  0.2295
12934TIP3    H160217   4.637   5.688   5.290 -1.5517 -1.6064 -0.1938
12934TIP3    H260218   4.535   5.761   5.374 -1.3041 -1.0427 -0.3744
12935TIP3   OH260219   0.742   4.064   0.385 -0.4932 -0.2019  0.0636
12935TIP3    H160220   0.791   4.075   0.466  0.0958 -2.0293 -0.0009
12935TIP3    H260221   0.662   4.018   0.411  0.0371 -1.4682 -0.4505
12936TIP3   OH260222   1.736   5.734   3.115  0.1085 -0.1582 -0.0799
12936TIP3    H160223   1.709   5.665   3.055 -1.5464 -0.5578  1.0578
12936TIP3    H260224   1.664   5.741   3.178  2.8865 -1.7677  3.6757
12937TIP3   OH260225   4.135   0.939  15.356 -0.5218  0.4007 -0.2414
12937TIP3    H160226   4.215   0.978  15.321 -0.7259 -0.3082 -1.5473
12937TIP3    H260227   4.064   0.993  15.320 -0.6693  0.8579  0.6905
12938TIP3   OH260228   5.034   1.151  13.506 -0.0221 -0.5745 -0.6779
12938TIP3    H160229   5.006   1.151  13.597  0.5535 -0.2909 -0.4968
12938TIP3    H260230   5.129   1.142  13.510 -0.1382 -2.6834 -1.3028
12939TIP3   OH260231   5.354   2.396  12.482 -0.0716 -0.2900  0.5494
12939TIP3    H160232   5.314   2.468  12.529 -0.4951  0.1332 -0.4258
12939TIP3    H260233   5.286   2.330  12.475 -1.1316  0.9283 -2.2048
12940TIP3   OH260234   5.405   1.972   2.270 -0.0560  0.0590  0.4499
12940TIP3    H160235   5.427   2.043   2.330 -1.0378  0.6579  0.1267
12940TIP3    H260236   5.489   1.945   2.233  0.3450  0.9859  0.6516
12941TIP3   OH260237   6.620   6.185   4.042  0.1397  0.7039 -0.3820
12941TIP3    H160238   6.618   6.255   3.977 -2.8805  1.2168  0.1050
12941TIP3    H260239   6.674   6.221   4.113  1.0083  1.3327 -1.3278
12942TIP3   OH260240   1.449   3.567   3.971  0.1178  0.2123 -0.1340
12942TIP3    H160241   1.384   3.580   4.040  1.9234  1.4907  1.4227
12942TIP3    H260242   1.470   3.473   3.975  0.5157  0.3397  1.4103
12943TIP3   OH260243   1.295   1.233   3.865 -0.4160 -0.8620 -0.3864
12943TIP3    H160244   1.351   1.165   3.827  0.5744 -0.3407  0.1066
12943TIP3    H260245   1.356   1.300   3.896 -1.3075 -0.3499  0.3088
12944TIP3   OH260246   4.875   0.181   4.785 -0.2241  0.0804  0.8638
12944TIP3    H160247   4.960   0.144   4.809 -0.2664 -0.2381  0.5212
12944TIP3    H260248   4.818   0.105   4.774 -0.7907  0.3243  1.9493
12945TIP3   OH260249   6.556   6.735  14.328  0.2436 -0.0594 -0.3574
12945TIP3    H160250   6.521   6.693  14.407 -1.6357  1.0888 -0.4943
12945TIP3    H260251   6.640   6.693  14.313  0.6098 -0.3880  2.1926
12946TIP3   OH260252   5.646   1.648   2.914 -0.0366 -0.4342 -0.4986
12946TIP3    H160253   5.687   1.581   2.859  1.9569 -0.2342  0.6630
12946TIP3    H260254   5.579   1.687   2.858 -0.6131 -2.7297 -1.5258
12947TIP3   OH260255   1.609   6.058   6.618 -0.1825 -0.1351 -0.0444
12947TIP3    H160256   1.519   6.040   6.644 -0.0198 -0.4394  0.3083
12947TIP3    H260257   1.602   6.133   6.558 -0.4865  1.1841  1.5576
12948TIP3   OH260258   2.534   1.318  15.755  0.4763  0.4296 -0.0735
12948TIP3    H160259   2.477   1.342  15.828  0.2659 -1.0568  0.2868
12948TIP3    H260260   2.601   1.386  15.754 -0.1145  1.0601  0.8187
12949TIP3   OH260261   4.587   5.708  16.255  0.2054  0.2398 -0.0284
12949TIP3    H160262   4.551   5.733  16.340  0.9553  1.0825  0.0483
12949TIP3    H260263   4.515   5.662  16.211 -0.2497 -0.0410  0.9786
12950TIP3   OH260264   1.950   1.540   3.263  0.7467  0.2975  0.1499
12950TIP3    H160265   2.018   1.531   3.330  1.2399 -1.2387 -0.5249
12950TIP3    H260266   1.986   1.497   3.186 -0.8204 -0.1592 -0.3610
12951TIP3   OH260267   3.521   0.362  12.774  0.0856 -0.3990  0.1776
12951TIP3    H160268   3.525   0.326  12.863  3.1446  1.4507  0.9379
12951TIP3    H260269   3.598   0.327  12.730  1.1168  2.1100 -0.2066
12952TIP3   OH260270   1.021   0.790  15.043 -0.1313 -0.0508 -0.2049
12952TIP3    H160271   0.931   0.760  15.031  0.0815  0.1006 -3.0350
12952TIP3    H260272   1.014   0.872  15.091 -1.4671 -0.2482 -0.0427
12953TIP3   OH260273   5.913   6.176  15.460  0.4863  0.0923 -0.0993
12953TIP3    H160274   5.980   6.127  15.508  0.5448 -0.0217 -0.2959
12953TIP3    H260275   5.937   6.268  15.472  1.4518  0.0236 -1.2668
12954TIP3   OH260276   4.972   0.449   2.192  0.3440  0.3831  0.0337
12954TIP3    H160277   5.022   0.382   2.238  0.3755 -0.0155 -0.5624
12954TIP3    H260278   4.882   0.415   2.190  0.3098  0.4763 -0.0396
12955TIP3   OH260279   0.645   3.763   5.704  0.0057 -0.5295 -0.2952
12955TIP3    H160280   0.683   3.682   5.670  0.7011 -0.3484  0.0182
12955TIP3    H260281   0.577   3.735   5.765  1.6208 -0.9473  1.4170
12956TIP3   OH260282   4.731   5.913  14.313  0.3155 -0.3503  0.5378
12956TIP3    H160283   4.747   5.894  14.405  3.6511  1.2594  0.4583
12956TIP3    H260284   4.789   5.854  14.266  0.5755  0.5839 -0.3562
12957TIP3   OH260285   1.294   4.424   0.822 -0.2825  0.0891 -0.1382
12957TIP3    H160286   1.200   4.431   0.835 -0.1748  0.2130  0.6075
12957TIP3    H260287   1.325   4.369   0.894  0.3337  0.7778  0.1362
12958TIP3   OH260288   4.335   5.550   4.899  0.2255  0.1059  0.0253
12958TIP3    H160289   4.405   5.602   4.939 -0.5658  1.0178  0.2825
12958TIP3    H260290   4.286   5.514   4.973 -0.4065  0.6396 -0.1258
12959TIP3   OH260291   3.676   5.016  11.842 -0.1105 -0.0713  0.0931
12959TIP3    H160292   3.679   4.921  11.825 -1.7794 -0.4051  1.3981
12959TIP3    H260293   3.601   5.047  11.793  1.1956  0.8860 -1.4088
12960TIP3   OH260294   3.223   4.099   3.694 -0.0420 -0.5039 -0.4010
12960TIP3    H160295   3.158   4.077   3.761  0.1048 -1.8773 -0.6894
12960TIP3    H260296   3.307   4.087   3.738  0.0765  1.6779  0.1019
12961TIP3   OH260297   4.794   4.293  13.034 -1.1849 -0.4628 -0.1552
12961TIP3    H160298   4.888   4.274  13.046 -0.0553  3.4996 -1.3296
12961TIP3    H260299   4.782   4.296  12.939 -2.5507 -0.8800 -0.0185
12962TIP3   OH260300   5.199   1.022   5.896  0.0712  0.0878  0.3200
12962TIP3    H160301   5.108   1.051   5.901  0.6135  1.8313  0.8023
12962TIP3    H260302   5.203   0.967   5.818 -1.2649  0.5328 -0.0814
12963TIP3   OH260303   0.175   5.104   4.671  0.0758 -1.1794  0.0075
12963TIP3    H160304   0.107   5.061   4.724  0.6971 -1.3706  0.6533
12963TIP3    H260305   0.251   5.046   4.678  1.6660  0.9867  2.6588
12964TIP3   OH260306   3.035   1.184   5.386  0.0106 -0.6023  0.3214
12964TIP3    H160307   3.106   1.165   5.325 -0.0172  2.5328 -0.8856
12964TIP3    H260308   2.955   1.162   5.338  0.0165  1.2765 -0.6522
12965TIP3   OH260309   2.674   2.012  14.342  0.3412 -0.3026  0.4177
12965TIP3    H160310   2.626   1.939  14.380  1.0770 -0.1656  1.6754
12965TIP3    H260311   2.607   2.078  14.323  0.0274  0.0585  2.5204
12966TIP3   OH260312   4.643   4.088   3.667  0.3559  0.0458  0.2347
12966TIP3    H160313   4.634   4.004   3.711 -1.3720 -0.2653 -0.6270
12966TIP3    H260314   4.561   4.134   3.684  1.1558  1.4678  0.4516
12967TIP3   OH260315   5.444   6.657  14.843  0.5556  0.5055  0.4831
12967TIP3    H160316   5.348   6.660  14.848  0.4134  2.3435 -1.8901
12967TIP3    H260317   5.463   6.572  14.804 -0.0868  0.1305  0.9558
12968TIP3   OH260318   6.310   1.904   5.395  0.3136  0.1880 -0.0213
12968TIP3    H160319   6.278   1.838   5.456 -0.4054 -0.0580 -0.6535
12968TIP3    H260320   6.268   1.883   5.312  1.4363  0.4005 -0.6601
12969TIP3   OH260321   5.745   5.503   5.972  0.3300 -0.4389 -0.1209
12969TIP3    H160322   5.804   5.452   5.916  0.3489  0.0054 -0.5147
12969TIP3    H260323   5.675   5.530   5.913  0.8749  0.9005 -0.1833
12970TIP3   OH260324   2.877   5.009   0.410  0.0073  0.1678  0.2368
12970TIP3    H160325   2.795   5.007   0.360  0.5299  2.7939 -0.8599
12970TIP3    H260326   2.868   5.086   0.467  2.0185  0.9760 -0.4752
12971TIP3   OH260327   3.608   3.481   5.765 -0.0848 -0.2192  0.1697
12971TIP3    H160328   3.660   3.438   5.833 -0.1556 -0.9987 -0.2564
12971TIP3    H260329   3.665   3.482   5.688  0.0163  0.7104  0.2400
12972TIP3   OH260330   5.223   4.608  13.616 -0.2317  0.3710  0.8582
12972TIP3    H160331   5.270   4.650  13.544 -0.0227 -0.4971  0.4732
12972TIP3    H260332   5.155   4.557  13.572  0.0652 -0.3779  1.2585
12973TIP3   OH260333   6.145   2.996   4.504  0.0939 -0.6941 -0.4143
12973TIP3    H160334   6.164   3.052   4.429 -1.0825  2.3780  1.4044
12973TIP3    H260335   6.230   2.981   4.545  0.4780 -0.6542 -1.1812
12974TIP3   OH260336   1.630   6.741   2.662 -0.3987  0.1471  0.7853
12974TIP3    H160337   1.660   6.702   2.580  1.0681  2.0055  0.3464
12974TIP3    H260338   1.567   6.678   2.698  0.5350 -1.7242 -0.6786
12975TIP3   OH260339   5.313   6.430  12.490  0.1681 -0.0584 -0.2322
12975TIP3    H160340   5.270   6.465  12.412 -1.2207  0.5844  0.7674
12975TIP3    H260341   5.395   6.478  12.496 -0.6125  1.3500 -0.2430
12976TIP3   OH260342   6.140   0.713  11.260 -0.7761  0.1171  0.3948
12976TIP3    H160343   6.085   0.751  11.328  0.6104  0.4676  1.3493
12976TIP3    H260344   6.162   0.626  11.293 -0.2818  0.2011  0.2973
12977TIP3   OH260345   2.717   3.864   0.404 -0.5751 -0.4385  0.0965
12977TIP3    H160346   2.670   3.939   0.440  0.6837  0.4994 -0.1218
12977TIP3    H260347   2.776   3.837   0.474  0.6556  0.3019 -0.6152
12978TIP3   OH260348   5.838   3.386   2.259 -0.5124  0.2024  0.5514
12978TIP3    H160349   5.832   3.402   2.353 -1.1570  4.6206 -0.0344
12978TIP3    H260350   5.807   3.295   2.248 -0.7387 -0.3662  4.4908
12979TIP3   OH260351   0.384   3.762   2.558 -0.6639  0.1883 -0.3652
12979TIP3    H160352   0.385   3.716   2.641  0.8255 -0.2584 -0.5968
12979TIP3    H260353   0.347   3.848   2.579 -0.0047  0.2035  0.8336
12980TIP3   OH260354   0.139   0.945  15.010  0.4852  0.6929 -0.5290
12980TIP3    H160355   0.209   0.883  15.031  0.8722  0.9635 -1.0121
12980TIP3    H260356   0.059   0.894  15.020  0.7870  0.1780 -0.6875
12981TIP3   OH260357   3.493   6.278  17.028 -0.9636  0.9549  1.0578
12981TIP3    H160358   3.550   6.355  17.035  1.7355 -0.8080  0.0421
12981TIP3    H260359   3.449   6.288  16.943  2.3599 -0.3539 -0.9859
12982TIP3   OH260360   4.437   2.512   5.746 -0.2135 -0.5726  0.3822
12982TIP3    H160361   4.467   2.512   5.837  2.0560  2.1566 -0.2381
12982TIP3    H260362   4.514   2.488   5.695 -0.7253  0.5163 -0.9638
12983TIP3   OH260363   5.302   0.194   4.624  0.6862  0.2324 -0.0906
12983TIP3    H160364   5.339   0.215   4.538  0.2827 -0.5941 -0.4726
12983TIP3    H260365   5.373   0.149   4.670  0.3645 -0.8758 -0.6313
12984TIP3   OH260366   6.679   2.222  11.920 -0.5762 -0.1072 -0.2208
12984TIP3    H160367   6.588   2.195  11.907 -0.4931  0.1751 -1.4831
12984TIP3    H260368   6.677   2.317  11.907 -0.4055  0.1728  1.5763
12985TIP3   OH260369   6.463   2.314   3.046 -0.3279  0.1740  0.0229
12985TIP3    H160370   6.544   2.264   3.048 -1.2931 -1.4541  0.6468
12985TIP3    H260371   6.485   2.398   3.085  0.7962 -0.6728  1.2813
12986TIP3   OH260372   5.105   1.994   5.144 -0.2853 -0.9847  0.3087
12986TIP3    H160373   5.159   2.040   5.208  3.5836 -2.7179 -1.3743
12986TIP3    H260374   5.088   1.908   5.183  1.2885 -1.7035 -0.4832
12987TIP3   OH260375   4.666   5.171  13.042 -0.5293  0.5189  0.0725
12987TIP3    H160376   4.685   5.227  12.966 -1.4584  0.7266 -0.0109
12987TIP3    H260377   4.708   5.215  13.115 -4.5603  3.6349  0.8267
12988TIP3   OH260378   0.536   4.762   5.956  0.0141 -0.1021 -0.1908
12988TIP3    H160379   0.615   4.771   6.010 -0.5498  0.5053  0.5497
12988TIP3    H260380   0.490   4.687   5.994 -0.1134 -0.0127 -0.1688
12989TIP3   OH260381   0.215   6.366  15.600  0.3110 -0.5848 -0.2080
12989TIP3    H160382   0.136   6.420  15.591 -0.0298 -1.1434 -0.6342
12989TIP3    H260383   0.230   6.331  15.512 -0.6231 -2.7661  0.4404
12990TIP3   OH260384   5.700   0.876  16.685  0.3368 -0.1363 -0.1002
12990TIP3    H160385   5.611   0.855  16.711  0.2055 -0.5203 -0.8244
12990TIP3    H260386   5.748   0.794  16.697  0.0974 -0.5699 -1.7531
12991TIP3   OH260387   0.313   5.197  11.832 -0.4919 -0.2770 -0.4578
12991TIP3    H160388   0.307   5.119  11.776 -0.0645 -1.9192  1.6568
12991TIP3    H260389   0.225   5.210  11.865 -0.1824 -1.1805  0.8055
12992TIP3   OH260390   1.397   1.740  13.400 -0.0186  0.2054 -0.0150
12992TIP3    H160391   1.347   1.658  13.402 -1.4243  1.0309  0.9351
12992TIP3    H260392   1.358   1.790  13.327 -0.0019  0.5179  0.1869
12993TIP3   OH260393   2.228   3.115   3.353  0.8193 -0.1146 -0.1815
12993TIP3    H160394   2.230   3.179   3.424  2.2713 -0.8058  0.4178
12993TIP3    H260395   2.134   3.097   3.340  0.5363 -0.6725  2.1897
12994TIP3   OH260396   4.451   1.350   2.998 -0.2615 -0.3019  0.1111
12994TIP3    H160397   4.526   1.294   3.019 -0.0525 -0.1183 -0.1305
12994TIP3    H260398   4.457   1.423   3.060 -1.0115 -0.9603  0.9812
12995TIP3   OH260399   5.846   1.095   1.463 -0.4322  0.5559  0.0534
12995TIP3    H160400   5.876   1.145   1.539 -0.0858 -1.7652  1.5277
12995TIP3    H260401   5.764   1.055   1.492  0.4832 -1.6081 -0.1713
12996TIP3   OH260402   1.894   4.621   3.073 -0.5986 -1.0794 -0.4138
12996TIP3    H160403   1.986   4.628   3.048 -0.6171  2.5743 -0.0329
12996TIP3    H260404   1.845   4.650   2.996 -1.2060  0.0172  0.3491
12997TIP3   OH260405   1.213   5.235   4.739  0.4204 -0.4030 -0.3128
12997TIP3    H160406   1.183   5.150   4.772  0.5581 -1.3581 -2.4672
12997TIP3    H260407   1.251   5.216   4.653  0.4586  1.8437 -0.8722
12998TIP3   OH260408   6.672   5.072   1.257  0.0367  0.4061  0.1218
12998TIP3    H160409   6.602   5.049   1.195 -0.2505 -0.4759  0.7492
12998TIP3    H260410   6.632   5.139   1.313  0.7073  2.1524 -1.3919
12999TIP3   OH260411   3.213   4.386   0.644  0.1629 -0.0675  0.1730
12999TIP3    H160412   3.278   4.443   0.685  1.5435 -0.9113 -0.7862
12999TIP3    H260413   3.263   4.331   0.585 -1.5350 -0.2340 -1.1732
13000TIP3   OH260414   2.332   3.461   4.622  0.0042 -0.0519 -0.4792
13000TIP3    H160415   2.305   3.470   4.531 -0.0125  0.5770 -0.4168
13000TIP3    H260416   2.327   3.367   4.640  0.7950 -0.2820 -1.3718
13001TIP3   OH260417   5.039   5.251   3.891 -0.3969 -0.3200 -0.3638
13001TIP3    H160418   5.093   5.270   3.968  0.2427  0.1801 -0.9223
13001TIP3    H260419   4.949   5.266   3.920 -0.1620 -0.1607  0.2912
13002TIP3   OH260420   5.009   6.466  12.494 -0.5116  0.5089 -0.1994
13002TIP3    H160421   5.070   6.396  12.520  0.6219  0.9758 -1.4950
13002TIP3    H260422   4.968   6.433  12.413 -0.9618  0.7822 -0.0851
13003TIP3   OH260423   6.320   4.463  16.597  0.0056 -0.4760 -0.8564
13003TIP3    H160424   6.298   4.376  16.564  0.6075 -1.1753  0.4941
13003TIP3    H260425   6.262   4.476  16.672  0.6892 -0.1959 -0.3616
13004TIP3   OH260426   0.313   6.219  14.030  0.0447  0.6597  0.0420
13004TIP3    H160427   0.264   6.148  14.071  0.9483 -1.2256 -1.9125
13004TIP3    H260428   0.296   6.209  13.937 -0.0327  3.2615 -0.2910
13005TIP3   OH260429   3.317   2.516   4.949  0.1368 -0.2262  0.4999
13005TIP3    H160430   3.321   2.421   4.964 -0.7573 -0.2200  0.8465
13005TIP3    H260431   3.284   2.525   4.860 -1.6272 -0.2513  1.1224
13006TIP3   OH260432   4.195   4.881   6.532 -0.2124 -0.0226  0.5157
13006TIP3    H160433   4.245   4.960   6.511 -1.2993  0.4132 -0.6166
13006TIP3    H260434   4.119   4.913   6.580 -0.9617 -0.2834 -0.4583
13007TIP3   OH260435   3.871   3.319  13.790  0.0375  0.1063 -0.3458
13007TIP3    H160436   3.789   3.360  13.818 -0.0706  0.6001 -1.3487
13007TIP3    H260437   3.936   3.388  13.798  0.1255  0.0668 -0.6952
13008TIP3   OH260438   4.008   4.762  11.185  0.6756 -0.7676 -0.3416
13008TIP3    H160439   3.983   4.697  11.119 -1.8749  0.1545 -0.4056
13008TIP3    H260440   4.046   4.834  11.134  1.5924 -1.3097 -0.4581
13009TIP3   OH260441   4.566   3.674  14.967  0.1141  0.3374  0.1719
13009TIP3    H160442   4.636   3.642  15.024  1.3961  0.8356 -1.0683
13009TIP3    H260443   4.549   3.764  14.998 -0.3155  0.0690  0.7494
13010TIP3   OH260444   3.079   1.491  13.758  0.3345 -0.5480 -0.2957
13010TIP3    H160445   3.068   1.413  13.813  1.6288 -1.6820 -1.5564
13010TIP3    H260446   2.994   1.535  13.761  0.2787 -0.6989  2.3377
13011TIP3   OH260447   0.583   3.573   6.284 -0.0398  0.3414  0.3372
13011TIP3    H160448   0.584   3.521   6.365 -0.6963  0.6517  0.5465
13011TIP3    H260449   0.544   3.515   6.219  2.1913 -0.6211 -0.2716
13012TIP3   OH260450   3.869   5.081   0.509  0.0749  0.0433  0.2918
13012TIP3    H160451   3.955   5.059   0.475  0.0450 -0.5564  0.5883
13012TIP3    H260452   3.818   5.106   0.432 -0.2366 -2.0790 -0.2687
13013TIP3   OH260453   1.613   1.578   5.451  0.4115  0.0806 -0.0616
13013TIP3    H160454   1.609   1.571   5.356 -1.6145 -0.5839  0.0157
13013TIP3    H260455   1.574   1.497   5.483  2.0158 -0.1826  1.3867
13014TIP3   OH260456   3.451   2.471   3.151 -0.4794 -0.2143 -0.5080
13014TIP3    H160457   3.472   2.502   3.239 -2.1215 -0.2136 -0.0930
13014TIP3    H260458   3.488   2.538   3.093 -1.2740  0.9519  0.2731
13015TIP3   OH260459   3.676   2.802  14.542 -0.3547 -0.0101 -0.1700
13015TIP3    H160460   3.605   2.866  14.539  0.6017  1.1391  0.6297
13015TIP3    H260461   3.699   2.796  14.635  0.0127 -1.0320 -0.3145
13016TIP3   OH260462   6.314   4.986   4.534  0.0962  0.9451 -0.4650
13016TIP3    H160463   6.244   4.953   4.591  0.7217 -0.2262 -0.3405
13016TIP3    H260464   6.353   4.907   4.497  0.7193  1.6334 -1.2976
13017TIP3   OH260465   5.347   1.580  15.945  0.1383  0.3625 -0.2499
13017TIP3    H160466   5.409   1.652  15.937 -1.1225  1.3867 -1.1085
13017TIP3    H260467   5.309   1.571  15.858 -3.9870  2.5967  1.0488
13018TIP3   OH260468   0.582   2.332  12.983  0.2316  0.0557  0.4204
13018TIP3    H160469   0.626   2.409  13.019 -1.9009  1.1041  0.9020
13018TIP3    H260470   0.622   2.321  12.897  0.3971  1.8696  0.2198
13019TIP3   OH260471   1.867   0.447   4.435  0.2618 -0.0340  0.2609
13019TIP3    H160472   1.863   0.372   4.495  0.6117  0.8850  1.4902
13019TIP3    H260473   1.775   0.465   4.413  0.0398  0.1726  1.2853
13020TIP3   OH260474   5.896   5.939  15.794  0.5058 -0.5211 -0.8457
13020TIP3    H160475   5.847   5.937  15.877 -0.1170 -0.0953 -1.1936
13020TIP3    H260476   5.914   6.032  15.779  1.3451 -0.6635 -0.7801
13021TIP3   OH260477   0.321   4.407   2.697  0.0238 -0.3904 -0.2284
13021TIP3    H160478   0.312   4.442   2.609  1.9607 -2.3977 -1.3243
13021TIP3    H260479   0.376   4.471   2.743  1.5117 -0.7542 -1.4435
13022TIP3   OH260480   2.632   5.188  11.434 -0.0113  0.2459  1.0357
13022TIP3    H160481   2.673   5.103  11.449 -0.2304  0.0268  0.3846
13022TIP3    H260482   2.539   5.169  11.422 -0.2492  0.6978  2.0554
13023TIP3   OH260483   1.103   4.817  11.653 -0.3710  0.1218 -0.5301
13023TIP3    H160484   1.092   4.887  11.717 -1.1744 -0.6997  0.2526
13023TIP3    H260485   1.149   4.748  11.701  0.4692  0.1124 -1.3107
13024TIP3   OH260486   2.419   0.659  11.348  0.3190  0.1797 -0.0306
13024TIP3    H160487   2.326   0.668  11.367  0.4051  2.0692 -0.2921
13024TIP3    H260488   2.426   0.672  11.253  0.9856  1.9964  0.2109
13025TIP3   OH260489   1.425   6.468  17.253 -0.0322  0.7033  0.1031
13025TIP3    H160490   1.510   6.498  17.286  0.3985 -1.3145  0.9690
13025TIP3    H260491   1.415   6.513  17.169  1.4764  1.6436  0.3803
13026TIP3   OH260492   0.796   0.898  16.415  0.1900 -0.2097  0.2151
13026TIP3    H160493   0.879   0.933  16.382 -0.3036  1.3643  0.5496
13026TIP3    H260494   0.811   0.881  16.507  0.1510  0.0912  0.2797
13027TIP3   OH260495   3.419   6.642   3.349  0.1152 -0.1780  0.4512
13027TIP3    H160496   3.424   6.698   3.426 -2.8150 -0.2888  0.8367
13027TIP3    H260497   3.394   6.556   3.383  2.2783 -1.1815 -0.3503
13028TIP3   OH260498   0.085   4.721   1.392  0.3960  0.3807 -0.0997
13028TIP3    H160499   0.012   4.722   1.330 -0.1174  0.3242  0.4949
13028TIP3    H260500   0.154   4.672   1.347 -0.0156  0.2302 -0.5750
13029TIP3   OH260501   1.023   4.929  14.569 -0.2772  0.4872  0.1888
13029TIP3    H160502   1.059   4.846  14.538 -0.1076  0.8405 -0.5739
13029TIP3    H260503   0.997   4.911  14.659  2.1822  0.3220  0.9497
13030TIP3   OH260504   5.116   4.705   1.740  0.0266  0.1544  0.7385
13030TIP3    H160505   5.186   4.654   1.780 -0.3734  0.7255  2.2172
13030TIP3    H260506   5.160   4.762   1.677  1.0423  1.1015  2.2400
13031TIP3   OH260507   4.682   1.435   5.694  0.5947 -0.3681 -0.0808
13031TIP3    H160508   4.602   1.472   5.732 -0.1556 -0.0644 -1.8478
13031TIP3    H260509   4.753   1.484   5.735 -0.2473  1.0116 -0.1977
13032TIP3   OH260510   0.369   0.457  13.217  0.4838  0.2514  0.0046
13032TIP3    H160511   0.432   0.395  13.253  1.4863  0.4401 -1.3664
13032TIP3    H260512   0.421   0.528  13.182 -0.4193  0.0797 -1.7972
13033TIP3   OH260513   4.605   3.140   4.798 -0.0553 -0.0131  0.1736
13033TIP3    H160514   4.672   3.150   4.729  1.8699 -0.1217  1.9290
13033TIP3    H260515   4.531   3.192   4.767  0.2296 -1.0638 -2.5528
13034TIP3   OH260516   6.664   3.262  12.801 -0.5420 -0.7097 -0.0312
13034TIP3    H160517   6.577   3.289  12.831 -0.4793 -0.5010 -0.0314
13034TIP3    H260518   6.697   3.206  12.871  0.6668  1.8330  1.6041
13035TIP3   OH260519   5.744   0.758   1.634 -0.4548 -0.0531 -0.5472
13035TIP3    H160520   5.673   0.762   1.570  0.0044  1.5912 -1.0040
13035TIP3    H260521   5.743   0.843   1.677  0.1064 -0.6523  0.7109
13036TIP3   OH260522   2.110   5.745  14.202  0.1529 -0.5597 -0.2305
13036TIP3    H160523   2.148   5.666  14.163 -0.3976 -1.1748  0.4410
13036TIP3    H260524   2.048   5.712  14.267  0.6517  0.4219  0.7809
13037TIP3   OH260525   3.950   2.335  14.146  0.2449  0.2136  0.0605
13037TIP3    H160526   4.010   2.345  14.220 -0.4475 -0.6287  0.7589
13037TIP3    H260527   3.864   2.358  14.181  0.2134  2.0888 -1.1053
13038TIP3   OH260528   3.731   6.518  15.800 -0.4719  0.0893  0.4509
13038TIP3    H160529   3.806   6.572  15.824  0.4726 -1.0999  0.2618
13038TIP3    H260530   3.666   6.580  15.768 -0.2167  1.3179  2.1822
13039TIP3   OH260531   6.178   5.431   4.914  0.1366 -0.1875  0.1862
13039TIP3    H160532   6.241   5.413   4.844  1.0564 -1.7096  1.3477
13039TIP3    H260533   6.227   5.481   4.979 -0.1000 -0.6391  0.7170
13040TIP3   OH260534   2.858   1.246  15.195  0.3307  0.0646  0.0862
13040TIP3    H160535   2.874   1.316  15.258 -0.2856  0.8457 -0.5968
13040TIP3    H260536   2.841   1.169  15.248 -1.2005  0.9381  0.9270
13041TIP3   OH260537   4.230   6.175   6.348  0.1084  0.3061  0.4467
13041TIP3    H160538   4.214   6.230   6.272  1.5978  0.1524 -0.0044
13041TIP3    H260539   4.218   6.086   6.315  0.7792  0.2389  0.3613
13042TIP3   OH260540   5.957   6.375  11.356  0.2068 -0.8156 -0.0516
13042TIP3    H160541   6.024   6.340  11.299 -1.4032 -1.5656 -1.5804
13042TIP3    H260542   5.943   6.465  11.324 -1.3802 -1.5496 -1.5848
13043TIP3   OH260543   0.419   5.989  13.788 -0.3370 -0.1940 -0.0219
13043TIP3    H160544   0.482   6.051  13.826 -0.5123  0.6792 -1.0881
13043TIP3    H260545   0.410   6.018  13.697 -3.7456  0.9860  0.5393
13044TIP3   OH260546   3.444   2.964  14.511 -0.1466 -0.2656 -0.3353
13044TIP3    H160547   3.508   3.023  14.470 -0.2511  0.3621  0.3778
13044TIP3    H260548   3.362   3.014  14.511 -0.1980 -0.3440  0.4210
13045TIP3   OH260549   5.315   2.693  15.361 -0.8818  0.1468 -0.3885
13045TIP3    H160550   5.380   2.661  15.299  0.2148 -0.1296  0.8719
13045TIP3    H260551   5.322   2.789  15.356  0.4072  0.1164  0.5228
13046TIP3   OH260552   3.804   3.360   1.249 -0.2688  0.0916  0.0424
13046TIP3    H160553   3.737   3.323   1.192 -0.4015  0.6320 -0.1608
13046TIP3    H260554   3.757   3.424   1.303 -0.5636 -1.8207  2.2126
13047TIP3   OH260555   2.176   2.289  14.052  0.2784 -0.3880  0.6434
13047TIP3    H160556   2.097   2.283  13.998 -0.8637 -0.0979  2.1913
13047TIP3    H260557   2.248   2.290  13.990 -0.9202 -0.9204 -0.8207
13048TIP3   OH260558   5.708   6.626  16.054 -0.2806  0.3630 -0.0478
13048TIP3    H160559   5.664   6.541  16.044  0.9448 -0.6002  2.0548
13048TIP3    H260560   5.732   6.629  16.146  0.2716  2.7528 -0.2287
13049TIP3   OH260561   5.109   3.845  13.173 -0.5225  0.0924  0.2099
13049TIP3    H160562   5.131   3.929  13.213 -1.4402  1.1881 -1.4563
13049TIP3    H260563   5.190   3.795  13.175 -0.4031  0.2446  2.9132
13050TIP3   OH260564   6.378   4.506  12.907  0.0660 -1.2396 -0.0770
13050TIP3    H160565   6.341   4.540  12.826 -0.8448 -1.1064  0.3809
13050TIP3    H260566   6.428   4.429  12.880 -0.3708 -1.3014 -0.7414
13051TIP3   OH260567   0.340   6.335   1.814 -0.3339 -0.7220  0.2199
13051TIP3    H160568   0.307   6.245   1.808 -2.1066 -0.3345  2.8459
13051TIP3    H260569   0.297   6.381   1.742 -1.7392 -1.3556  0.6204
13052TIP3   OH260570   1.607   5.951  11.606 -0.1226 -0.4774  0.2993
13052TIP3    H160571   1.515   5.971  11.624 -0.1663  0.0292 -0.4690
13052TIP3    H260572   1.619   5.971  11.513  1.0441  0.5223  0.6491
13053TIP3   OH260573   3.999   4.355   4.101  0.7412 -0.0436  0.0701
13053TIP3    H160574   4.095   4.356   4.104  0.7588  0.4946 -0.4572
13053TIP3    H260575   3.977   4.415   4.030  0.0287 -0.6939 -0.2685
13054TIP3   OH260576   3.834   6.166   4.078 -0.6705  0.5089  0.8872
13054TIP3    H160577   3.861   6.110   4.006 -0.7146  0.2277  1.0883
13054TIP3    H260578   3.780   6.234   4.037 -0.9416  0.1799  0.6996
13055TIP3   OH260579   2.763   2.006  14.096 -0.2963  0.5409  0.6762
13055TIP3    H160580   2.696   1.946  14.063  0.2181  0.2295  0.1869
13055TIP3    H260581   2.757   2.000  14.191 -0.6485  0.1696  0.6314
13056TIP3   OH260582   5.799   1.531  10.766  0.3793  0.2534 -0.7926
13056TIP3    H160583   5.811   1.477  10.687  0.4866 -0.7554 -0.1000
13056TIP3    H260584   5.886   1.567  10.784  0.4045  0.2956 -0.9896
13057TIP3   OH260585   6.137   6.743   0.592 -0.0745 -0.1744 -0.2720
13057TIP3    H160586   6.060   6.698   0.626  0.6902 -1.4592 -0.1699
13057TIP3    H260587   6.210   6.688   0.618  0.8751  0.9615 -0.4740
13058TIP3   OH260588   3.130   3.562   0.196  0.5124  0.1676 -0.0889
13058TIP3    H160589   3.167   3.626   0.136 -0.8103  0.7001 -0.3632
13058TIP3    H260590   3.080   3.613   0.259  0.5123 -0.5071  0.4729
13059TIP3   OH260591   6.064   5.082  14.239 -0.1987 -0.1170  0.1740
13059TIP3    H160592   6.125   5.035  14.183 -0.2555  0.1790 -0.1391
13059TIP3    H260593   5.983   5.031  14.235 -0.3411  0.1450 -0.3719
13060TIP3   OH260594   1.442   6.465   1.520 -0.0805  0.0431  0.1140
13060TIP3    H160595   1.514   6.522   1.547 -1.2782  1.4064  0.5367
13060TIP3    H260596   1.380   6.524   1.478 -0.4248 -1.2979 -1.3530
13061TIP3   OH260597   0.543   1.287  15.751 -0.5491 -0.0026 -0.0002
13061TIP3    H160598   0.482   1.221  15.784 -0.5367  0.2486  0.5360
13061TIP3    H260599   0.564   1.341  15.828 -0.1357  0.2895 -0.3142
13062TIP3   OH260600   6.553   5.205  16.514  0.0164  0.6305  0.0026
13062TIP3    H160601   6.471   5.167  16.547  0.7838  0.1295  1.4240
13062TIP3    H260602   6.529   5.245  16.431 -1.3021 -1.0850 -0.5092
13063TIP3   OH260603   0.842   0.942   1.470 -0.3671 -0.4141  0.0913
13063TIP3    H160604   0.929   0.948   1.431 -0.7685 -1.1151 -0.9589
13063TIP3    H260605   0.817   0.850   1.458 -0.8490 -0.4512  1.2783
13064TIP3   OH260606   5.587   0.706   5.259  0.0000 -0.4367  0.2275
13064TIP3    H160607   5.582   0.788   5.308 -0.4634  0.2181 -0.8840
13064TIP3    H260608   5.571   0.730   5.168  2.6857 -1.3468 -0.5979
13065TIP3   OH260609   4.680   0.827  12.531 -0.3261  0.5912 -0.0399
13065TIP3    H160610   4.626   0.872  12.466  1.0122  1.7836 -0.3797
13065TIP3    H260611   4.618   0.775  12.582 -1.4467 -0.3047 -2.1796
13066TIP3   OH260612   4.002   4.328  16.448 -0.2178  0.1487 -0.2232
13066TIP3    H160613   3.965   4.262  16.507  0.7547  0.6875  1.0228
13066TIP3    H260614   3.962   4.410  16.476 -1.3392  0.1597 -1.7000
13067TIP3   OH260615   3.307   2.331  15.981  0.2941 -0.4027 -0.4121
13067TIP3    H160616   3.282   2.409  15.933 -0.4216 -1.4318 -1.7848
13067TIP3    H260617   3.281   2.348  16.072 -0.0784  0.8256 -0.7393
13068TIP3   OH260618   3.797   6.082  15.394 -0.1024  0.7180  0.1946
13068TIP3    H160619   3.881   6.038  15.383  0.9071  2.6663 -0.3534
13068TIP3    H260620   3.752   6.032  15.462  1.5630 -0.2614  0.6326
13069TIP3   OH260621   3.196   4.198  15.671 -0.9660 -0.5627 -0.5816
13069TIP3    H160622   3.286   4.222  15.649 -1.3760  0.9642 -0.6657
13069TIP3    H260623   3.163   4.154  15.593  0.0837 -2.3485 -0.0991
13070TIP3   OH260624   1.911   4.462  13.526 -0.1702  0.4723  0.0396
13070TIP3    H160625   1.869   4.462  13.440 -0.5499 -0.3214  0.2184
13070TIP3    H260626   2.003   4.482  13.507 -0.0186 -0.8204 -0.6791
13071TIP3   OH260627   3.748   0.587   3.602 -0.1390 -0.4427  0.3156
13071TIP3    H160628   3.762   0.601   3.696 -0.7098 -0.0805  0.3531
13071TIP3    H260629   3.788   0.663   3.560  0.3001 -0.7092  0.2505
13072TIP3   OH260630   4.309   4.910   4.579  0.3118  0.3969  0.2354
13072TIP3    H160631   4.307   4.828   4.628  1.1845  0.9429  1.2417
13072TIP3    H260632   4.292   4.978   4.645  1.6124  1.1589 -0.1639
13073TIP3   OH260633   0.564   6.145  16.829  0.0795 -0.2487  0.1397
13073TIP3    H160634   0.638   6.193  16.864 -1.4215  2.2475  0.0804
13073TIP3    H260635   0.579   6.144  16.734  0.7538 -1.1017  0.2376
13074TIP3   OH260636   1.263   5.453   3.721  0.0719  0.1438 -0.2092
13074TIP3    H160637   1.294   5.544   3.723 -1.1103  0.7391 -2.9235
13074TIP3    H260638   1.177   5.456   3.763 -1.1824  0.9636 -2.6373
13075TIP3   OH260639   2.753   2.417  16.713 -0.4280 -0.0218  0.1629
13075TIP3    H160640   2.838   2.421  16.670 -0.4331 -2.8263 -0.2724
13075TIP3    H260641   2.690   2.431  16.643 -0.3933  1.6767  0.4223
13076TIP3   OH260642   0.549   4.788   4.227  0.3152  0.1079 -0.7491
13076TIP3    H160643   0.480   4.824   4.283 -0.5102 -1.4927 -0.6844
13076TIP3    H260644   0.544   4.840   4.146 -1.5570 -0.5069 -1.0729
13077TIP3   OH260645   2.397   1.161   5.848  0.3136  0.1900 -0.0285
13077TIP3    H160646   2.346   1.109   5.787  2.1027 -0.7669 -0.7894
13077TIP3    H260647   2.359   1.142   5.934 -0.8103 -0.1845 -0.5965
13078TIP3   OH260648   4.905   4.751   3.110 -0.4335 -0.4828 -0.1815
13078TIP3    H160649   4.848   4.827   3.120  0.3285 -0.2202  3.3972
13078TIP3    H260650   4.987   4.787   3.075 -0.0254  0.4457  1.6154
13079TIP3   OH260651   3.985   6.573  14.376 -0.0228  0.1496 -0.5719
13079TIP3    H160652   3.929   6.535  14.309 -0.8490 -0.7839  0.5977
13079TIP3    H260653   4.074   6.566  14.341 -0.2713 -1.8194 -0.9005
13080TIP3   OH260654   0.639   2.917   3.026  0.7831 -1.0638  0.3198
13080TIP3    H160655   0.731   2.926   3.002  0.4900 -2.5224 -1.5151
13080TIP3    H260656   0.629   2.826   3.051 -0.5975 -1.5471 -1.7264
13081TIP3   OH260657   1.126   1.601   2.358 -0.5419  0.2864  0.0075
13081TIP3    H160658   1.074   1.520   2.353 -3.2674  1.8442  0.9446
13081TIP3    H260659   1.159   1.602   2.448  0.6561 -0.4004 -0.4051
13082TIP3   OH260660   2.628   1.412   3.744 -0.2789  0.2092 -0.4398
13082TIP3    H160661   2.654   1.504   3.744 -2.2701  0.8358 -1.5050
13082TIP3    H260662   2.601   1.395   3.834 -1.1827  1.1126 -0.5078
13083TIP3   OH260663   0.175   0.227   4.092  0.1836  0.0423  0.2746
13083TIP3    H160664   0.116   0.215   4.166 -0.3808 -0.3174 -0.2314
13083TIP3    H260665   0.215   0.141   4.079  1.1500  0.3853  0.8853
13084TIP3   OH260666   0.562   6.195   2.684  0.0271  0.2111  0.3649
13084TIP3    H160667   0.502   6.154   2.746  0.0412  0.0754  0.2880
13084TIP3    H260668   0.649   6.180   2.721 -0.0549  1.6185  1.2146
13085TIP3   OH260669   5.063   0.969  12.465 -0.1009 -0.1730 -0.0247
13085TIP3    H160670   5.155   0.946  12.451 -0.5032 -3.3534  1.3994
13085TIP3    H260671   5.023   0.965  12.379  0.9179  0.2478 -0.5247
13086TIP3   OH260672   2.153   1.441  12.417  0.5149 -0.1701  0.1280
13086TIP3    H160673   2.105   1.370  12.460  0.5402  0.1580  0.7084
13086TIP3    H260674   2.226   1.460  12.476  0.2146  0.6849  0.2484
13087TIP3   OH260675   5.977   4.215   3.246  0.3790 -0.2534 -0.2455
13087TIP3    H160676   5.997   4.309   3.251  0.8238 -0.3695  0.1372
13087TIP3    H260677   5.904   4.210   3.184  0.4752  0.3280 -0.4130
13088TIP3   OH260678   5.298   3.587  16.021 -0.0318 -0.1046  0.0789
13088TIP3    H160679   5.223   3.605  16.077 -0.5906 -0.7836 -0.4286
13088TIP3    H260680   5.308   3.491  16.025  0.0077 -0.1483 -0.8602
13089TIP3   OH260681   6.223   5.959   4.512  0.6541  0.5893  0.6081
13089TIP3    H160682   6.147   6.014   4.490  0.9315  0.4232 -0.8715
13089TIP3    H260683   6.271   6.009   4.578 -0.3707  1.0036  1.0670
13090TIP3   OH260684   3.310   5.922  13.121  0.1742 -0.3007 -0.0318
13090TIP3    H160685   3.278   5.994  13.175  0.9195 -0.9025  1.2547
13090TIP3    H260686   3.261   5.845  13.151 -1.0810 -0.2782 -1.8264
13091TIP3   OH260687   3.665   3.884  13.401 -0.1429  0.0981 -0.4416
13091TIP3    H160688   3.729   3.833  13.451 -0.3987  0.8089  0.6370
13091TIP3    H260689   3.636   3.952  13.462  0.4971  1.7934 -1.9596
13092TIP3   OH260690   4.157   4.556   6.135  0.4782  0.1007 -0.9214
13092TIP3    H160691   4.199   4.474   6.108 -1.2555 -1.2718  0.3273
13092TIP3    H260692   4.211   4.588   6.207  2.2636  1.1725 -2.6000
13093TIP3   OH260693   3.765   0.381   3.854 -0.9353 -0.1660 -0.1199
13093TIP3    H160694   3.696   0.446   3.843 -1.7468 -0.7252  1.4306
13093TIP3    H260695   3.719   0.299   3.869  0.0509 -0.5435  0.9908
13094TIP3   OH260696   6.345   3.040  13.300 -0.3569 -0.4678  0.1213
13094TIP3    H160697   6.294   3.109  13.343  0.8939 -0.0924  1.0754
13094TIP3    H260698   6.349   3.067  13.208  0.0242  0.6941  0.4587
13095TIP3   OH260699   3.776   5.335  14.863 -0.2607  0.6177  0.1329
13095TIP3    H160700   3.822   5.410  14.901  0.9550  1.1849 -2.3015
13095TIP3    H260701   3.695   5.372  14.829 -0.0357  0.6732 -0.3455
13096TIP3   OH260702   5.784   6.577   5.160  0.1256  0.3976  0.2037
13096TIP3    H160703   5.703   6.618   5.130 -0.3990  0.3939  1.5381
13096TIP3    H260704   5.835   6.649   5.197  1.0838  0.5263 -1.2927
13097TIP3   OH260705   1.359   1.014   3.278 -0.0728  0.0446 -0.2679
13097TIP3    H160706   1.410   1.012   3.198 -0.1834 -1.6029 -0.3276
13097TIP3    H260707   1.277   1.058   3.254 -0.0468 -0.3170 -1.0293
13098TIP3   OH260708   3.158   2.109   1.325  0.0783 -0.2837 -0.0303
13098TIP3    H160709   3.226   2.066   1.377  1.2718  1.0837 -0.4025
13098TIP3    H260710   3.109   2.162   1.388 -0.8062 -1.4143  0.2705
13099TIP3   OH260711   1.323   5.387   1.336  0.0028 -0.5940 -0.0375
13099TIP3    H160712   1.389   5.438   1.382 -1.7197  1.8891 -0.0898
13099TIP3    H260713   1.365   5.361   1.254  0.6863  1.7258 -0.4963
13100TIP3   OH260714   3.420   5.706  15.056 -0.4894  0.4577 -0.1742
13100TIP3    H160715   3.423   5.645  15.130 -1.5837 -0.7274 -1.0606
13100TIP3    H260716   3.494   5.681  15.001 -2.6694 -2.3502 -2.1537
13101TIP3   OH260717   5.888   1.981  11.941 -0.3152 -0.2782  0.4373
13101TIP3    H160718   5.811   1.937  11.975 -0.4176  0.5739  1.3492
13101TIP3    H260719   5.892   1.955  11.849 -1.8081 -0.1760  0.3178
13102TIP3   OH260720   0.013   4.294   5.938  0.1478 -0.1468  0.0098
13102TIP3    H160721   0.086   4.307   5.998  0.6304 -0.9590 -0.3792
13102TIP3    H260722  -0.052   4.358   5.965 -0.9549 -2.4444  3.4165
13103TIP3   OH260723   3.048   3.699  15.123  0.0071  0.1212 -0.0856
13103TIP3    H160724   2.959   3.733  15.113  0.3096  0.4754 -2.0690
13103TIP3    H260725   3.036   3.614  15.165 -1.3439 -0.0682 -0.7823
13104TIP3   OH260726   6.368   5.275   5.570  0.0290 -0.1931 -0.4740
13104TIP3    H160727   6.397   5.366   5.565 -1.8111  0.4063 -1.4339
13104TIP3    H260728   6.404   5.242   5.652  1.4814  1.1184 -0.5490
13105TIP3   OH260729   0.915   0.976  15.193 -0.0481  0.2173  0.3903
13105TIP3    H160730   0.940   1.033  15.266 -0.3255 -1.1795  1.6060
13105TIP3    H260731   0.848   0.918  15.229 -0.1802 -0.5176 -0.9722
13106TIP3   OH260732   2.880   1.485  12.568 -0.0720 -0.2978 -0.3512
13106TIP3    H160733   2.932   1.524  12.638 -1.7013  0.4595  0.5057
13106TIP3    H260734   2.911   1.527  12.488  1.7657 -1.1188 -0.1204
13107TIP3   OH260735   1.950   1.167  11.610  0.0700  0.1993  0.1762
13107TIP3    H160736   1.869   1.209  11.585 -0.2065 -0.2445  0.3065
13107TIP3    H260737   1.946   1.163  11.706 -0.4328 -1.1271  0.1175
13108TIP3   OH260738   5.090   6.061  12.228 -0.0428  0.1501 -0.1805
13108TIP3    H160739   5.062   5.970  12.224  1.1502 -0.2935  0.7716
13108TIP3    H260740   5.043   6.097  12.303  1.2355 -0.3691  0.9132
13109TIP3   OH260741   6.126   5.210   1.629  0.2083 -0.2712 -0.1546
13109TIP3    H160742   6.191   5.140   1.620 -0.3185 -0.6003 -1.5822
13109TIP3    H260743   6.152   5.275   1.564  0.7220  0.9165  1.1911
13110TIP3   OH260744   3.062   0.463   4.736  0.2230  0.1022 -0.6198
13110TIP3    H160745   3.015   0.405   4.676  2.6054 -1.0509 -1.4967
13110TIP3    H260746   3.034   0.436   4.823 -1.0054 -0.2808 -1.1229
13111TIP3   OH260747   6.737   3.288  14.170 -0.3829  0.2365  0.5159
13111TIP3    H160748   6.653   3.305  14.212 -0.7782 -1.8494  0.6401
13111TIP3    H260749   6.755   3.196  14.187  1.3002  0.2969 -0.6565
13112TIP3   OH260750   4.405   1.477   3.332  0.2066 -0.4703  0.7364
13112TIP3    H160751   4.383   1.407   3.393 -1.2233  0.0855  0.9159
13112TIP3    H260752   4.375   1.557   3.375 -0.6385 -0.0410 -0.5551
13113TIP3   OH260753   5.245   3.588   3.071 -0.1751 -0.1781  0.1442
13113TIP3    H160754   5.250   3.647   2.996  1.1984  0.0933  0.4108
13113TIP3    H260755   5.166   3.614   3.118  0.1990  1.2096  0.0388
13114TIP3   OH260756   2.317   2.498  11.483 -0.2796  0.2545 -0.2096
13114TIP3    H160757   2.266   2.430  11.528 -0.9454  1.8665  1.6460
13114TIP3    H260758   2.260   2.575  11.484  0.1530  0.7074 -2.9214
13115TIP3   OH260759   6.321   2.624  17.141  0.2207 -0.0525 -0.1602
13115TIP3    H160760   6.227   2.639  17.149  0.4590  2.0331 -0.6036
13115TIP3    H260761   6.341   2.648  17.050  1.0703 -1.2230 -0.3007
13116TIP3   OH260762   2.880   4.896  17.195  0.2497 -0.6550  0.2276
13116TIP3    H160763   2.841   4.810  17.177  2.4094 -1.6068 -0.1736
13116TIP3    H260764   2.917   4.888  17.283 -0.4894  0.2713  0.6472
13117TIP3   OH260765   5.132   1.087   2.524 -0.1925 -0.1784 -0.3424
13117TIP3    H160766   5.200   1.102   2.459  0.8168 -0.7839  0.5338
13117TIP3    H260767   5.054   1.128   2.487  0.9057  1.5673 -0.8634
13118TIP3   OH260768   5.535   1.926  17.197 -0.3611 -0.5416  0.4263
13118TIP3    H160769   5.518   1.967  17.112 -0.4884 -0.2803  0.5749
13118TIP3    H260770   5.544   2.000  17.258 -2.5970 -0.7205  1.0963
13119TIP3   OH260771   2.709   1.626  11.461  0.4586 -0.9580  0.7096
13119TIP3    H160772   2.733   1.719  11.463  1.0594 -1.0954  0.2369
13119TIP3    H260773   2.693   1.604  11.553  1.4165 -0.6523  0.9716
13120TIP3   OH260774   0.645   4.038   4.032  0.3179  0.8959  0.2596
13120TIP3    H160775   0.663   4.119   3.984 -2.1790  2.9213  2.4352
13120TIP3    H260776   0.710   4.037   4.102  0.6218  0.7363 -0.0175
13121TIP3   OH260777   5.781   5.773   5.794 -0.1164 -0.5406 -0.6439
13121TIP3    H160778   5.807   5.865   5.794  1.5942 -0.9692  0.7944
13121TIP3    H260779   5.849   5.729   5.743 -0.0667 -1.2026 -0.0132
13122TIP3   OH260780   6.135   2.098  15.210  0.1943 -0.2206  0.0607
13122TIP3    H160781   6.144   2.003  15.212  0.3856 -0.1920  0.9643
13122TIP3    H260782   6.079   2.116  15.134 -0.5335 -1.1035  0.3795
13123TIP3   OH260783   1.037   4.758  15.480  0.4646 -0.1301 -0.3679
13123TIP3    H160784   1.096   4.733  15.409  1.6903  0.3553  0.4481
13123TIP3    H260785   0.958   4.787  15.436  0.7492 -0.9853 -1.4900
13124TIP3   OH260786   4.214   3.125  14.936 -0.2171  0.7323 -0.4297
13124TIP3    H160787   4.166   3.096  14.858  0.9337 -0.9340 -0.5640
13124TIP3    H260788   4.202   3.055  15.000  0.3497  1.2422  0.2599
13125TIP3   OH260789   2.949   0.934   4.994 -0.6957 -0.1576 -0.1345
13125TIP3    H160790   2.925   0.907   4.906  0.6407 -3.5063  0.3685
13125TIP3    H260791   3.031   0.982   4.983 -1.3425  0.8514 -0.7805
13126TIP3   OH260792   5.975   6.418  11.842 -0.0323 -0.0758 -0.6979
13126TIP3    H160793   5.917   6.392  11.770  0.4988 -2.4835 -0.3512
13126TIP3    H260794   5.997   6.336  11.885  0.4705  1.2013  1.6306
13127TIP3   OH260795   3.363   0.218  15.283 -0.2148 -0.1793 -0.4011
13127TIP3    H160796   3.439   0.164  15.260 -0.7052  0.0856 -2.9546
13127TIP3    H260797   3.397   0.308  15.281 -0.4158 -0.1099 -0.8048
13128TIP3   OH260798   2.142   4.700   5.375  0.6079  0.2426 -0.0925
13128TIP3    H160799   2.237   4.703   5.387  0.4268  1.2347  1.3275
13128TIP3    H260800   2.130   4.685   5.281  2.1735  1.1417 -0.4689
13129TIP3   OH260801   6.587   3.879  11.674  0.0194  0.5520  0.2024
13129TIP3    H160802   6.636   3.835  11.604  1.8656  0.0652  1.7054
13129TIP3    H260803   6.637   3.859  11.754 -1.8900  1.2482  1.6443
13130TIP3   OH260804   0.527   5.345   2.025 -0.1602  0.5992 -0.0014
13130TIP3    H160805   0.586   5.344   2.100 -0.2647 -1.3855  0.1155
13130TIP3    H260806   0.440   5.333   2.062 -0.5111  1.9863 -0.2963
13131TIP3   OH260807   1.601   6.067   0.450 -0.3212  0.3811 -0.4311
13131TIP3    H160808   1.594   6.131   0.380 -1.2491 -0.0789 -0.7838
13131TIP3    H260809   1.644   6.113   0.522  1.0336  0.7363 -1.4367
13132TIP3   OH260810   1.778   1.584  15.221 -0.1342  0.6298  0.0197
13132TIP3    H160811   1.782   1.564  15.314  0.2102 -0.1194 -0.1488
13132TIP3    H260812   1.700   1.638  15.211  1.1671  2.8840  1.1275
13133TIP3   OH260813   4.265   1.929   5.475  0.2089 -0.6483  0.4690
13133TIP3    H160814   4.275   1.925   5.380  1.5757  1.2738  0.4785
13133TIP3    H260815   4.179   1.970   5.489  1.3993  2.2867 -0.0788
13134TIP3   OH260816   2.067   0.644   5.222  0.4830  0.3354  0.2544
13134TIP3    H160817   2.102   0.639   5.311 -2.2280  0.5708  1.4457
13134TIP3    H260818   2.017   0.726   5.221 -2.0053 -1.0901 -0.4212
13135TIP3   OH260819   4.131   1.723  16.819 -0.3964 -0.3198 -0.4237
13135TIP3    H160820   4.207   1.778  16.840 -1.3183  1.0210 -0.4811
13135TIP3    H260821   4.164   1.660  16.754  0.6273  0.3393 -0.5598
13136TIP3   OH260822   4.962   1.471   0.764  0.1755 -0.6535  0.1352
13136TIP3    H160823   4.975   1.564   0.745 -1.4280 -0.4226  0.0759
13136TIP3    H260824   4.981   1.463   0.857  0.2727 -0.2560  0.1522
13137TIP3   OH260825   4.922   2.727  13.749  0.3937 -0.1429 -0.3189
13137TIP3    H160826   4.857   2.766  13.807  0.3934  0.2677 -0.5945
13137TIP3    H260827   4.928   2.787  13.675  0.4001 -0.6565 -0.7418
13138TIP3   OH260828   3.039   4.208  11.735 -0.3004 -0.1257 -0.1809
13138TIP3    H160829   2.972   4.224  11.668  0.1343 -0.0536 -0.6042
13138TIP3    H260830   3.054   4.294  11.774 -0.8083 -0.2304  0.2600
13139TIP3   OH260831   1.610   3.582   2.357 -0.4005 -0.0387 -0.2113
13139TIP3    H160832   1.539   3.613   2.300 -2.4245 -0.9187  1.6856
13139TIP3    H260833   1.632   3.657   2.411 -0.5130 -0.0141 -0.1991
13140TIP3   OH260834   5.791   2.175   4.302 -0.1844  0.1869  0.7462
13140TIP3    H160835   5.828   2.262   4.319  1.1504  0.2872 -2.1927
13140TIP3    H260836   5.736   2.188   4.225  0.0475 -1.5864  0.2576
13141TIP3   OH260837   2.809   0.999  13.997  0.2914  0.1260 -0.4268
13141TIP3    H160838   2.718   0.984  14.025  0.6308  2.2769  2.3181
13141TIP3    H260839   2.803   1.013  13.902 -2.1777 -0.2085 -0.3873
13142TIP3   OH260840   6.065   3.742  16.357  0.1587 -0.5804 -0.5519
13142TIP3    H160841   6.024   3.694  16.285 -1.2720  0.0985 -0.2395
13142TIP3    H260842   6.028   3.830  16.350 -0.4370 -0.6428  1.3296
13143TIP3   OH260843   2.618   0.525   3.467  0.1971  0.3889 -0.5149
13143TIP3    H160844   2.642   0.612   3.498 -0.4410  0.6322 -0.6806
13143TIP3    H260845   2.630   0.530   3.372  2.0777 -0.3287 -0.3693
13144TIP3   OH260846   6.074   4.445   0.007  0.6000  0.1528  0.4400
13144TIP3    H160847   5.992   4.407  -0.025  1.4209 -0.6049 -0.8369
13144TIP3    H260848   6.080   4.415   0.098 -1.1133  1.2343  0.9631
13145TIP3   OH260849   3.679   4.150   5.717 -0.5604 -0.0585 -0.3092
13145TIP3    H160850   3.670   4.174   5.625 -1.1789 -0.5813 -0.3859
13145TIP3    H260851   3.693   4.055   5.716  1.5729  0.1975  0.0093
13146TIP3   OH260852   5.563   3.636   1.452  0.2256  0.3319  0.6162
13146TIP3    H160853   5.483   3.589   1.475 -0.0063  0.4964  0.1675
13146TIP3    H260854   5.537   3.728   1.453  0.5441  0.4187  0.9748
13147TIP3   OH260855   4.037   0.767   0.034 -0.3334 -0.8539 -0.5812
13147TIP3    H160856   4.045   0.856   0.000 -1.5966 -1.1830 -1.8140
13147TIP3    H260857   4.030   0.712  -0.044 -0.9629 -1.8949  0.1870
13148TIP3   OH260858   5.784   5.408   0.296 -0.0978 -0.2721  0.0855
13148TIP3    H160859   5.712   5.367   0.248  1.0290 -0.7463 -1.2610
13148TIP3    H260860   5.813   5.481   0.241 -1.4191  1.8172  1.9932
13149TIP3   OH260861   1.384   3.154   3.492  0.0360  0.2026  0.3900
13149TIP3    H160862   1.451   3.088   3.512  1.1975  0.5514 -2.0610
13149TIP3    H260863   1.314   3.104   3.448  1.3431  0.6183 -2.3598
13150TIP3   OH260864   1.902   0.696  14.750  0.1977  0.0723  0.3487
13150TIP3    H160865   1.928   0.784  14.723  0.2131 -0.9310 -3.6313
13150TIP3    H260866   1.806   0.698  14.749  0.1935  0.2432  1.0577
13151TIP3   OH260867   1.423   3.866   4.049  1.1126 -0.4949 -0.3961
13151TIP3    H160868   1.410   3.960   4.050  0.5134 -0.5058  2.7453
13151TIP3    H260869   1.517   3.854   4.061  0.8268 -0.1579  3.0527
13152TIP3   OH260870   0.942   0.545  12.850 -0.0760 -0.4181 -0.1269
13152TIP3    H160871   0.983   0.459  12.857  1.9963  0.5501  0.1963
13152TIP3    H260872   0.867   0.540  12.909  0.2597 -1.8609  0.2188
13153TIP3   OH260873   6.669   2.110  14.146  0.6558 -0.1745  0.3177
13153TIP3    H160874   6.711   2.095  14.062 -0.2872 -0.0494 -0.1881
13153TIP3    H260875   6.701   2.195  14.175 -0.7115  0.8381 -0.9935
13154TIP3   OH260876   2.866   0.518  16.751  0.5721 -0.1831 -0.0482
13154TIP3    H160877   2.805   0.579  16.711 -0.4455 -0.8082  0.5133
13154TIP3    H260878   2.814   0.440  16.769  0.8062  0.2567  3.0159
13155TIP3   OH260879   0.650   5.091  15.987 -0.4345 -0.5577 -0.1251
13155TIP3    H160880   0.651   5.015  16.045 -0.7365 -0.0491  0.5536
13155TIP3    H260881   0.600   5.157  16.034  1.4816  0.7654  0.1635
13156TIP3   OH260882   5.858   1.189   3.604 -0.1671  0.3840  0.6765
13156TIP3    H160883   5.766   1.187   3.630 -0.2389  0.5078  0.4364
13156TIP3    H260884   5.856   1.179   3.508  0.1005 -0.3138  0.7325
13157TIP3   OH260885   6.346   5.297  12.563  0.0044 -0.4866 -0.3478
13157TIP3    H160886   6.318   5.256  12.481  1.2938 -0.8322 -0.6403
13157TIP3    H260887   6.346   5.391  12.545 -1.6100 -0.4124 -0.1114
13158TIP3   OH260888   3.695   3.040  15.240  0.1955 -0.2042  0.0584
13158TIP3    H160889   3.680   3.101  15.168  2.7561  1.1007  0.5043
13158TIP3    H260890   3.676   3.090  15.319 -0.0367 -0.7636  0.3619
13159TIP3   OH260891   5.044   4.736   0.574  0.0009  0.0278  0.7533
13159TIP3    H160892   5.127   4.699   0.545 -0.4033  0.3693 -0.9622
13159TIP3    H260893   4.985   4.661   0.578 -0.2899  0.1421 -0.7352
13160TIP3   OH260894   2.496   4.563   3.021  0.7263 -0.0442  0.8708
13160TIP3    H160895   2.458   4.562   3.109  0.8502 -0.9811  0.9204
13160TIP3    H260896   2.446   4.498   2.972 -0.2862  1.4582 -0.1722
13161TIP3   OH260897   2.006   1.535  11.457  0.0023 -0.1621  0.2868
13161TIP3    H160898   1.965   1.569  11.378 -0.6412 -1.1778  0.1738
13161TIP3    H260899   2.064   1.465  11.426  0.6629  0.2319  0.6029
13162TIP3   OH260900   4.706   3.591   1.290  0.2307 -0.1658  0.0896
13162TIP3    H160901   4.778   3.653   1.304 -0.8075  1.1948 -0.3196
13162TIP3    H260902   4.640   3.618   1.354 -0.6653 -0.1423 -0.8204
13163TIP3   OH260903   2.963   5.185  11.176  0.1855 -0.0784 -0.4372
13163TIP3    H160904   2.921   5.101  11.159  1.3581 -0.6083 -0.8269
13163TIP3    H260905   2.957   5.232  11.093 -0.0737  0.0380 -0.3515
13164TIP3   OH260906   5.553   4.493   0.167 -0.1959  0.1525 -0.3616
13164TIP3    H160907   5.531   4.488   0.074  1.3216  0.5621 -0.7776
13164TIP3    H260908   5.649   4.485   0.169 -0.3390 -1.8645  1.3199
13165TIP3   OH260909   4.401   1.912  16.569  0.1235 -0.1859  0.3816
13165TIP3    H160910   4.493   1.920  16.594  0.6457  0.7211 -1.6033
13165TIP3    H260911   4.396   1.827  16.525 -0.4598 -1.1143  2.1658
13166TIP3   OH260912   1.571   2.557  16.671 -0.2084  0.4292  0.1228
13166TIP3    H160913   1.592   2.465  16.688  0.7573  0.5504 -0.3506
13166TIP3    H260914   1.656   2.602  16.671 -0.4697  0.9895 -1.5499
13167TIP3   OH260915   3.565   2.303   1.089 -0.3704  0.3221  0.2600
13167TIP3    H160916   3.572   2.365   1.162  0.7795  0.1946  0.2790
13167TIP3    H260917   3.562   2.217   1.130  1.7053  0.1498  0.1694
13168TIP3   OH260918   6.287   6.721   4.871  0.1630  0.3722  0.0742
13168TIP3    H160919   6.316   6.688   4.956 -1.6389 -1.9824 -0.1155
13168TIP3    H260920   6.193   6.738   4.882  0.0517  0.7449 -1.2473
13169TIP3   OH260921   6.256   2.295  13.404  0.1199 -0.0080  0.2163
13169TIP3    H160922   6.316   2.307  13.479  2.2425  0.2290 -1.4040
13169TIP3    H260923   6.290   2.219  13.358 -1.4631 -0.4619 -0.2573
13170TIP3   OH260924   0.659   3.994  13.206  0.5836  0.4670 -0.3780
13170TIP3    H160925   0.709   4.059  13.254 -0.5922  1.5599 -0.5789
13170TIP3    H260926   0.570   4.029  13.203  0.0914 -0.7624 -1.1976
13171TIP3   OH260927   2.439   5.457  14.276  0.2683 -0.2221  0.8899
13171TIP3    H160928   2.528   5.480  14.248 -0.3284  1.4008  0.2237
13171TIP3    H260929   2.438   5.476  14.370 -0.0074  2.0538  0.4877
13172TIP3   OH260930   1.246   2.688   1.739  0.5636  0.0231  0.5256
13172TIP3    H160931   1.192   2.628   1.790  0.7442  0.2837  1.0221
13172TIP3    H260932   1.336   2.667   1.764  0.8876 -1.7709 -1.7228
13173TIP3   OH260933   0.204   5.947   5.880  0.3720 -0.5337  0.5124
13173TIP3    H160934   0.178   5.898   5.958  0.8168 -1.0594  0.3320
13173TIP3    H260935   0.131   6.007   5.865 -0.5250 -1.6426  0.3089
13174TIP3   OH260936   0.857   6.689  16.374  0.4311  0.4795  0.2149
13174TIP3    H160937   0.828   6.667  16.462 -0.4275 -0.3607 -0.2668
13174TIP3    H260938   0.880   6.782  16.379  1.9205  0.0820  1.7094
13175TIP3   OH260939   3.358   4.357  16.020 -0.3546 -0.0976 -0.6468
13175TIP3    H160940   3.313   4.384  15.939  1.1128 -0.9171 -1.7930
13175TIP3    H260941   3.321   4.272  16.041 -2.1133  0.9137  0.7069
13176TIP3   OH260942   2.254   6.431   1.163 -1.0068  0.0234 -0.6919
13176TIP3    H160943   2.248   6.343   1.127 -0.9350 -0.3591  0.2001
13176TIP3    H260944   2.220   6.488   1.094  2.0068 -0.3079 -2.6106
13177TIP3   OH260945   4.200   2.240   0.794 -0.5341  0.1474  0.3355
13177TIP3    H160946   4.181   2.186   0.718  0.9641  0.8463 -0.5744
13177TIP3    H260947   4.113   2.268   0.825 -1.2850 -1.9813  0.2931
13178TIP3   OH260948   5.877   0.931  14.629  0.5274  0.5915 -0.1954
13178TIP3    H160949   5.892   0.995  14.560 -0.2339  0.1217 -0.8156
13178TIP3    H260950   5.961   0.886  14.639  0.5823  0.5065 -0.9868
13179TIP3   OH260951   6.108   4.204  15.473 -0.1651  0.0892 -0.5020
13179TIP3    H160952   6.139   4.183  15.385 -1.5796  0.5566 -1.1306
13179TIP3    H260953   6.065   4.289  15.464 -0.9754 -0.1936  0.4960
13180TIP3   OH260954   3.643   1.365   2.780 -0.1539  0.4605 -0.3509
13180TIP3    H160955   3.615   1.394   2.867  1.2633 -1.5164  0.8382
13180TIP3    H260956   3.562   1.349   2.733 -0.9681  0.5673  0.9595
13181TIP3   OH260957   1.035   3.401   6.235 -0.7445  0.5497 -0.1595
13181TIP3    H160958   0.973   3.472   6.219 -0.0275  1.9437  2.7076
13181TIP3    H260959   1.052   3.404   6.329  2.1028 -1.1093 -0.5092
13182TIP3   OH260960   3.465   2.695   3.855 -0.0439 -0.6436  0.1005
13182TIP3    H160961   3.456   2.660   3.766  0.0938  1.6475 -0.8697
13182TIP3    H260962   3.390   2.753   3.866  2.5980  3.3218 -0.6740
13183TIP3   OH260963   4.129   0.845  11.974 -0.5575  0.5904 -0.1251
13183TIP3    H160964   4.190   0.916  11.995 -0.4622  0.8076 -1.0906
13183TIP3    H260965   4.113   0.855  11.880 -1.4804  0.0584 -0.0259
13184TIP3   OH260966   5.612   6.660   5.431 -0.1407  0.5756 -0.5114
13184TIP3    H160967   5.676   6.601   5.392 -0.6220 -1.3704  1.4229
13184TIP3    H260968   5.662   6.738   5.453  1.1475 -0.1558 -0.7537
13185TIP3   OH260969   4.737   2.753  13.450  0.0336  0.7051 -0.1553
13185TIP3    H160970   4.715   2.741  13.357  0.0577  0.1032 -0.0917
13185TIP3    H260971   4.762   2.845  13.458  0.3305  0.6829 -0.8064
13186TIP3   OH260972   5.493   3.257   2.008  0.4589 -0.6383 -0.1503
13186TIP3    H160973   5.471   3.203   2.084  2.4887 -0.8840  0.3239
13186TIP3    H260974   5.499   3.346   2.042  1.1128 -0.7118 -0.0622
13187TIP3   OH260975   1.775   2.787  15.678 -0.2785 -0.1185  0.1342
13187TIP3    H160976   1.718   2.846  15.727  0.0172  0.3891 -0.1255
13187TIP3    H260977   1.752   2.803  15.586 -1.7476 -1.9748  0.1140
13188TIP3   OH260978   2.399   6.364   2.304  0.0078  0.2266  0.1116
13188TIP3    H160979   2.428   6.366   2.212 -0.7476 -0.2703 -0.1402
13188TIP3    H260980   2.393   6.271   2.325  0.5457  0.3427  0.7890
13189TIP3   OH260981   2.578   2.527   1.402 -0.4967 -0.2410  0.1870
13189TIP3    H160982   2.671   2.510   1.392  0.1108  2.2228  0.9461
13189TIP3    H260983   2.563   2.527   1.496 -0.0859  4.1284  0.4666
13190TIP3   OH260984   2.484   0.385   6.375 -0.9753 -0.0083 -0.1661
13190TIP3    H160985   2.507   0.315   6.436  1.1290 -1.7492 -2.7679
13190TIP3    H260986   2.399   0.360   6.339 -0.6079 -0.8248 -0.4849
13191TIP3   OH260987   6.009   0.676  16.489 -0.8194 -0.2556  0.2041
13191TIP3    H160988   6.050   0.759  16.465  0.4031 -0.4817  1.3546
13191TIP3    H260989   5.990   0.633  16.406  1.9998 -0.4458 -0.4594
13192TIP3   OH260990   1.798   4.173  12.321 -0.4616 -0.2904  0.0619
13192TIP3    H160991   1.759   4.160  12.408  0.7821 -0.6787  0.5782
13192TIP3    H260992   1.892   4.166  12.335 -0.1603  0.8739 -1.1143
13193TIP3   OH260993   4.064   0.374   3.824  0.3413  0.2281  0.0224
13193TIP3    H160994   4.048   0.283   3.849  1.2149 -0.3059 -1.2873
13193TIP3    H260995   3.979   0.406   3.793  0.0885 -0.2117  0.2542
13194TIP3   OH260996   1.227   5.266  13.884  0.1761  0.3865  0.2812
13194TIP3    H160997   1.292   5.278  13.815  0.2666  0.9346  0.4628
13194TIP3    H260998   1.254   5.325  13.954  0.7890 -1.0510  1.3002
13195TIP3   OH260999   0.957   3.903   3.925 -0.2821 -0.8426  0.8724
13195TIP3    H161000   0.924   3.901   4.015  1.2242  0.3588  1.4898
13195TIP3    H261001   0.961   3.996   3.904 -1.1263 -1.1226 -0.6673
13196TIP3   OH261002   0.630   2.055   1.080 -0.3782 -0.0986 -0.0835
13196TIP3    H161003   0.566   2.095   1.021  0.9981  1.1576 -0.7548
13196TIP3    H261004   0.675   1.990   1.026  0.2159  0.3662 -0.1513
13197TIP3   OH261005   0.158   5.037   4.248 -0.3415  0.7707  0.1637
13197TIP3    H161006   0.125   5.112   4.297 -1.2914  0.4931 -0.0311
13197TIP3    H261007   0.219   4.994   4.308  0.9416  2.2065 -0.0555
13198TIP3   OH261008   3.234   3.998   5.920  0.0160  0.4348 -0.1352
13198TIP3    H161009   3.270   3.912   5.943 -1.2399  0.0959  0.6736
13198TIP3    H261010   3.291   4.060   5.966  0.9838  0.0552 -0.7931
13199TIP3   OH261011   2.667   1.549  12.216  0.2945  0.1275 -0.4460
13199TIP3    H161012   2.645   1.474  12.270  0.8025  0.3446  0.0752
13199TIP3    H261013   2.583   1.582  12.184 -0.1375  0.7682  1.2421
13200TIP3   OH261014   2.804   5.017  15.042  0.1881  0.6191 -0.2474
13200TIP3    H161015   2.836   5.062  14.964 -0.8063 -0.1646 -1.1317
13200TIP3    H261016   2.712   5.044  15.050 -0.0887 -0.3165 -0.1196
13201TIP3   OH261017   0.138   1.131  14.477 -0.1047 -0.0883 -0.1349
13201TIP3    H161018   0.146   1.071  14.551 -0.7945 -1.2511 -0.9632
13201TIP3    H261019   0.046   1.156  14.475 -0.0815 -0.0211 -0.5475
13202TIP3   OH261020   6.159   2.115  12.997 -0.0765 -0.4060  0.4079
13202TIP3    H161021   6.071   2.126  12.961  0.3822 -2.0830 -1.4156
13202TIP3    H261022   6.211   2.086  12.923  1.7501 -0.6695  1.7337
13203TIP3   OH261023   4.375   4.184  16.021  0.0194  0.2580 -0.4751
13203TIP3    H161024   4.312   4.189  15.950 -0.1242  0.5812 -0.3261
13203TIP3    H261025   4.379   4.091  16.043 -1.2607  0.3677  0.2759
13204TIP3   OH261026   5.119   3.751  11.602 -0.1599 -0.5045  0.0335
13204TIP3    H161027   5.087   3.699  11.676  0.1572  0.2153  0.7019
13204TIP3    H261028   5.046   3.753  11.540 -0.5088 -0.9442  0.4276
13205TIP3   OH261029   4.160   3.694   4.577  0.4304 -0.1705 -0.4850
13205TIP3    H161030   4.157   3.639   4.655 -1.0507 -0.3904 -0.6731
13205TIP3    H261031   4.216   3.768   4.602  0.0448 -0.2823  0.7650
13206TIP3   OH261032   1.756   2.286   2.798 -0.0100  0.0145  0.3632
13206TIP3    H161033   1.689   2.242   2.850 -0.1506 -0.3579 -0.1280
13206TIP3    H261034   1.714   2.367   2.769  0.4412  0.7706  1.7452
13207TIP3   OH261035   5.815   1.967  14.898  0.1646 -0.6968  0.1805
13207TIP3    H161036   5.855   1.945  14.814  1.0197 -0.3229  0.4752
13207TIP3    H261037   5.724   1.986  14.878  0.6517  0.6882 -0.8711
13208TIP3   OH261038   6.712   2.087   3.217 -0.4905 -0.8420  0.8301
13208TIP3    H161039   6.664   2.027   3.274  1.3299 -1.9357  1.2942
13208TIP3    H261040   6.698   2.052   3.129 -0.1981 -1.4305  1.0098
13209TIP3   OH261041   3.893   1.063  13.458  0.2265  0.2507  0.4596
13209TIP3    H161042   3.882   0.972  13.431  0.7805  0.2544  0.2160
13209TIP3    H261043   3.806   1.102  13.445  0.3953  0.1761 -1.0243
13210TIP3   OH261044   4.870   1.761  17.147  0.2764 -0.6817 -0.8599
13210TIP3    H161045   4.939   1.797  17.203  0.2968  0.2513 -1.4573
13210TIP3    H261046   4.828   1.693  17.200  0.3868  0.0835  0.2399
13211TIP3   OH261047   3.562   1.817  11.245 -0.5656 -0.0698 -0.5484
13211TIP3    H161048   3.559   1.804  11.340 -1.6867 -0.5527 -0.6321
13211TIP3    H261049   3.480   1.860  11.224 -0.5578 -0.4307 -1.3657
13212TIP3   OH261050   1.903   0.473   2.984  0.0786 -0.2427  0.6023
13212TIP3    H161051   1.922   0.503   2.896  0.0755  1.3709  1.1231
13212TIP3    H261052   1.911   0.551   3.039 -1.2580 -0.9072  1.8369
13213TIP3   OH261053   3.158   4.982   4.696 -0.4998  0.0182  0.4144
13213TIP3    H161054   3.069   5.017   4.706 -0.3193  0.9919 -1.0010
13213TIP3    H261055   3.207   5.019   4.769 -0.9422  0.6117  0.4167
13214TIP3   OH261056   0.471   2.981  11.478  0.7081 -0.0049 -0.7673
13214TIP3    H161057   0.522   2.904  11.502  1.0490  0.0819 -1.1950
13214TIP3    H261058   0.514   3.015  11.400  0.0743  0.1475 -1.0630
13215TIP3   OH261059   1.399   2.792  12.608 -0.0934 -0.3038 -0.1540
13215TIP3    H161060   1.396   2.812  12.514  2.1760  0.1266 -0.1901
13215TIP3    H261061   1.419   2.876  12.649 -0.2767 -0.6510  0.6508
13216TIP3   OH261062   4.320   0.300   5.490 -0.0842 -0.2589  0.3213
13216TIP3    H161063   4.230   0.269   5.499 -0.1779  0.3439  1.8718
13216TIP3    H261064   4.311   0.395   5.483  0.4749 -0.0616  1.9400
13217TIP3   OH261065   0.149   4.736  15.357  0.6261 -0.0596  0.3684
13217TIP3    H161066   0.074   4.685  15.327  1.0906 -0.3106 -0.4006
13217TIP3    H261067   0.175   4.789  15.282  2.2894 -1.2700  0.0117
13218TIP3   OH261068   6.358   2.347   3.543 -0.2040  0.7462  0.0392
13218TIP3    H161069   6.321   2.332   3.456 -0.9748  2.3145  0.0543
13218TIP3    H261070   6.396   2.435   3.538 -0.8105  1.1240  1.4545
13219TIP3   OH261071   0.664   5.994   5.741 -0.2858  0.4246 -0.7433
13219TIP3    H161072   0.751   5.961   5.719 -0.2619 -0.8155  1.0186
13219TIP3    H261073   0.664   5.999   5.836 -2.1466  0.3912 -0.7165
13220TIP3   OH261074   4.719   2.946  11.690  0.2780 -0.3522  0.2716
13220TIP3    H161075   4.674   2.981  11.614 -1.1035  1.7046  1.9146
13220TIP3    H261076   4.805   2.988  11.688  0.0848  0.0409  0.0724
13221TIP3   OH261077   3.445   5.397  15.185 -0.1149  0.5588  0.5699
13221TIP3    H161078   3.499   5.374  15.110 -2.3896 -1.0612 -0.6924
13221TIP3    H261079   3.506   5.395  15.259  1.4882 -1.8027 -0.6628
13222TIP3   OH261080   2.281   1.637  12.747  0.2584 -0.0404 -0.3707
13222TIP3    H161081   2.215   1.569  12.760  0.2658  0.4335  3.0431
13222TIP3    H261082   2.338   1.602  12.678 -1.5884 -1.9760 -1.0243
13223TIP3   OH261083   6.098   4.918   4.216  0.4104 -0.0006 -0.3731
13223TIP3    H161084   6.185   4.954   4.205 -0.4382  1.3705 -3.8263
13223TIP3    H261085   6.108   4.824   4.201  1.4384 -0.0779  0.6652
13224TIP3   OH261086   3.300   1.612  15.578  0.1625 -0.4647 -0.4591
13224TIP3    H161087   3.344   1.608  15.663  2.0371 -1.5061 -1.4309
13224TIP3    H261088   3.342   1.544  15.525 -0.7276  0.3793 -2.3490
13225TIP3   OH261089   2.884   3.591  10.460 -0.5624  0.3624 -0.2435
13225TIP3    H161090   2.967   3.637  10.447  0.0844 -0.6502  0.1456
13225TIP3    H261091   2.879   3.578  10.555 -0.1841 -1.2844 -0.4100
13226TIP3   OH261092   1.000   5.869  15.381  0.2018  0.0120 -0.3309
13226TIP3    H161093   1.095   5.868  15.397  0.2187  0.5853 -0.3492
13226TIP3    H261094   0.973   5.778  15.387  0.0840  0.0957  3.8561
13227TIP3   OH261095   1.768   4.789   2.014 -0.2496 -0.4899 -0.1526
13227TIP3    H161096   1.818   4.741   2.081 -3.6214 -2.0494  1.5321
13227TIP3    H261097   1.740   4.869   2.058  1.4674  0.8669 -1.4128
13228TIP3   OH261098   0.757   4.857  14.971 -0.0538  0.2199 -0.3530
13228TIP3    H161099   0.677   4.805  14.977  0.4924 -0.6596 -0.3526
13228TIP3    H261100   0.818   4.813  15.031 -0.2896  2.2684  1.5289
13229TIP3   OH261101   0.419   3.346  16.847 -0.5401  0.2064 -0.7218
13229TIP3    H161102   0.436   3.253  16.860 -1.8619  0.1452  0.9055
13229TIP3    H261103   0.483   3.391  16.902 -0.7846  0.2069 -0.4344
13230TIP3   OH261104   3.117   6.575   4.525 -0.6257 -0.3145 -0.0224
13230TIP3    H161105   3.188   6.624   4.565 -2.7389  0.8246  2.6433
13230TIP3    H261106   3.081   6.522   4.596 -2.7348 -0.4546 -1.1092
13231TIP3   OH261107   4.351   0.847   3.012  0.3650  0.7042 -0.1473
13231TIP3    H161108   4.305   0.877   2.934  0.5657  1.0890 -0.1187
13231TIP3    H261109   4.440   0.881   3.002  0.7026 -0.1980 -0.2963
13232TIP3   OH261110   2.807   0.770   0.263 -0.9650  0.4299  0.0570
13232TIP3    H161111   2.750   0.711   0.214  0.9548 -1.5623  0.0632
13232TIP3    H261112   2.820   0.845   0.205 -1.2609 -0.4446 -1.1831
13233TIP3   OH261113   1.820   4.408   4.234  0.0916 -0.3075 -0.0937
13233TIP3    H161114   1.888   4.446   4.178 -0.9311 -0.9330 -1.8245
13233TIP3    H261115   1.868   4.377   4.311  1.4150  1.3679 -0.1828
13234TIP3   OH261116   4.204   4.167   6.243 -0.1332  0.9422  0.5437
13234TIP3    H161117   4.193   4.206   6.330  1.0096  0.5541  0.8746
13234TIP3    H261118   4.224   4.075   6.261  0.5412  0.9557 -0.1049
13235TIP3   OH261119   5.862   0.767   4.603  0.8114 -0.1111  0.6355
13235TIP3    H161120   5.864   0.854   4.565 -0.1708 -0.3062  0.1080
13235TIP3    H261121   5.930   0.719   4.555  1.5035  0.4163  1.0795
13236TIP3   OH261122   3.319   3.184   2.170 -0.4639  0.4289 -0.1035
13236TIP3    H161123   3.403   3.141   2.156 -0.4473  0.5806 -0.4604
13236TIP3    H261124   3.263   3.151   2.100  0.1330  2.5705 -1.6943
13237TIP3   OH261125   3.315   2.560  14.295 -0.2192  0.2258  0.4429
13237TIP3    H161126   3.404   2.582  14.325 -0.1492 -1.4427  1.6045
13237TIP3    H261127   3.325   2.478  14.248 -1.0660  0.3846 -0.0417
13238TIP3   OH261128   5.327   3.359   2.954 -0.0610  0.3718 -0.2929
13238TIP3    H161129   5.360   3.398   2.872 -0.0020  1.8955  0.4162
13238TIP3    H261130   5.300   3.434   3.007  1.8733 -0.4000  1.9516
13239TIP3   OH261131   1.423   6.051  12.228 -0.7604  0.4183 -1.0730
13239TIP3    H161132   1.354   5.999  12.270 -0.5729 -0.1334 -1.4520
13239TIP3    H261133   1.444   6.004  12.148  0.5475  0.2113 -0.6282
13240TIP3   OH261134   1.022   1.959   2.614  0.0700  0.1481 -0.4802
13240TIP3    H161135   1.079   1.994   2.682 -0.8618 -0.3940  0.6336
13240TIP3    H261136   1.068   1.976   2.532  1.0285  1.2149  0.2482
13241TIP3   OH261137   2.073   0.202   4.710  0.1177 -0.6867 -0.0947
13241TIP3    H161138   1.994   0.255   4.704 -0.1947 -1.2205 -0.8991
13241TIP3    H261139   2.076   0.173   4.801 -1.3033 -1.6917 -0.3414
13242TIP3   OH261140   0.894   3.722  10.755  0.7532 -0.4411 -0.5839
13242TIP3    H161141   0.889   3.766  10.670 -0.1451  1.0542  0.2067
13242TIP3    H261142   0.988   3.708  10.769  1.0745  1.1748 -0.9088
13243TIP3   OH261143   5.038   0.117  11.976  0.4828  0.1832  0.1582
13243TIP3    H161144   5.076   0.133  12.063  0.3910  0.3497  0.1680
13243TIP3    H261145   5.031   0.022  11.970  0.5272  0.1694  0.3172
13244TIP3   OH261146   5.966   5.497   5.056  0.7183  0.3101 -0.1698
13244TIP3    H161147   5.984   5.587   5.084  0.9454  0.0429  0.5792
13244TIP3    H261148   6.030   5.480   4.988  1.1788  0.4605  0.2224
13245TIP3   OH261149   1.897   3.594  12.512 -0.5146  0.5321 -0.4448
13245TIP3    H161150   1.840   3.664  12.545 -3.7865 -1.6430 -1.0176
13245TIP3    H261151   1.894   3.527  12.580  2.0940  0.5908 -0.1644
13246TIP3   OH261152   0.254   0.249  11.089 -0.4806  0.0849  0.0893
13246TIP3    H161153   0.273   0.218  11.001 -0.2183  0.7102 -0.0747
13246TIP3    H261154   0.331   0.224  11.140  0.4254  1.8261 -0.3824
13247TIP3   OH261155   4.573   5.934  16.891 -0.0479  0.7132  0.0105
13247TIP3    H161156   4.619   5.965  16.969 -0.6414 -0.4559  0.8645
13247TIP3    H261157   4.557   6.012  16.839  2.1464  1.2506  0.0856
13248TIP3   OH261158   6.550   2.874   5.957  0.1352 -0.4878  0.3124
13248TIP3    H161159   6.593   2.836   5.880 -1.3320 -2.0822  0.2046
13248TIP3    H261160   6.503   2.950   5.923  0.5167 -0.4392 -0.1225
13249TIP3   OH261161   2.221   2.951   4.103 -0.3580  0.0961  0.0525
13249TIP3    H161162   2.202   2.952   4.009  0.2193 -0.8226 -0.0813
13249TIP3    H261163   2.154   2.893   4.140 -0.3970  0.2113  0.1610
13250TIP3   OH261164   6.601   4.662   1.659 -0.1289 -0.3972  0.1848
13250TIP3    H161165   6.545   4.615   1.720 -0.8758  1.8140  1.2796
13250TIP3    H261166   6.544   4.684   1.585 -0.1206 -0.0890  0.2690
13251TIP3   OH261167   2.727   3.997   0.717  0.2310  0.0019  0.3023
13251TIP3    H161168   2.769   4.027   0.798 -0.3434  1.0497  0.2184
13251TIP3    H261169   2.636   3.983   0.741  0.0309  0.4287 -0.1905
13252TIP3   OH261170   2.126   4.008   3.059 -0.5424  0.1264  0.1475
13252TIP3    H161171   2.102   4.100   3.051 -2.2237 -0.3414 -0.5307
13252TIP3    H261172   2.147   3.980   2.970 -2.8759 -0.8263 -0.1922
13253TIP3   OH261173   4.178   5.427   5.454  0.1345  0.3888 -0.2429
13253TIP3    H161174   4.173   5.356   5.390 -0.7508  1.8200 -1.8631
13253TIP3    H261175   4.272   5.441   5.467  0.3909  0.7953 -2.1622
13254TIP3   OH261176   5.125   5.986  16.827  0.3881  1.0105 -0.2369
13254TIP3    H161177   5.053   5.923  16.827  1.5718 -0.4007 -0.5108
13254TIP3    H261178   5.106   6.044  16.901 -0.8691  0.4925 -0.1341
13255TIP3   OH261179   1.896   2.177  15.804  0.3412  0.9811 -0.3556
13255TIP3    H161180   1.847   2.184  15.886 -0.3265 -0.9283 -0.5441
13255TIP3    H261181   1.971   2.121  15.827  1.8691  2.9147 -0.3538
13256TIP3   OH261182   4.601   5.203   4.724  0.3610  0.2087 -0.5604
13256TIP3    H161183   4.640   5.241   4.803 -0.1744 -1.6885  0.6782
13256TIP3    H261184   4.676   5.178   4.670  0.7421  1.1228 -0.4769
13257TIP3   OH261185   6.633   4.005   2.952  0.0729 -0.2149 -0.5018
13257TIP3    H161186   6.666   3.924   2.914 -0.4532  0.1907 -1.8939
13257TIP3    H261187   6.572   4.039   2.887 -2.4453 -0.4893  1.5553
13258TIP3   OH261188   0.041   1.853   5.757  0.1545 -0.0543 -0.0704
13258TIP3    H161189   0.061   1.778   5.702 -1.6761 -0.9528  0.4229
13258TIP3    H261190  -0.023   1.821   5.820 -0.4535  1.8408  0.3478
13259TIP3   OH261191   3.434   0.253  15.818 -0.5148  0.2113  0.4818
13259TIP3    H161192   3.468   0.342  15.829 -1.1939  0.6036 -0.4629
13259TIP3    H261193   3.357   0.249  15.876  0.2138 -0.1715  1.4448
13260TIP3   OH261194   5.684   2.496  12.719 -0.6115 -0.2110  0.0825
13260TIP3    H161195   5.621   2.431  12.687 -1.2627 -0.3536  1.6038
13260TIP3    H261196   5.632   2.574  12.735 -0.3898 -0.2740  1.1864
13261TIP3   OH261197   4.654   0.611   2.227 -0.0540  0.6306  0.1310
13261TIP3    H161198   4.692   0.551   2.291  1.4482  2.8623  1.4519
13261TIP3    H261199   4.574   0.567   2.198  1.4171 -2.4416  0.2405
13262TIP3   OH261200   2.410   6.568  14.199  0.2524  0.9432 -0.0471
13262TIP3    H161201   2.389   6.656  14.165  2.1362  1.6483  0.4955
13262TIP3    H261202   2.502   6.555  14.175  0.2037 -0.6030  0.5209
13263TIP3   OH261203   4.218   6.057  11.522 -0.4140 -0.5169 -0.1847
13263TIP3    H161204   4.216   6.148  11.491  4.9568 -0.0452 -0.0393
13263TIP3    H261205   4.217   6.004  11.442 -1.2349 -0.2428 -0.3670
13264TIP3   OH261206   0.550   0.254  15.483 -0.0878  0.4818 -0.3217
13264TIP3    H161207   0.578   0.178  15.432 -0.0496  1.4893 -1.8686
13264TIP3    H261208   0.632   0.296  15.510 -0.1129  0.3222  0.0114
13265TIP3   OH261209   6.130   1.351   0.865  0.4563 -0.2443  0.2375
13265TIP3    H161210   6.143   1.366   0.959  0.9869  0.9560 -0.0062
13265TIP3    H261211   6.219   1.349   0.829  0.2387 -0.2852 -0.3071
13266TIP3   OH261212   5.206   5.802  15.010  0.7967 -0.0349  0.2274
13266TIP3    H161213   5.193   5.801  15.105  1.3093  1.4253  0.3404
13266TIP3    H261214   5.168   5.885  14.981  0.8805 -0.3410 -0.8086
13267TIP3   OH261215   5.495   3.497  13.711  0.3338 -0.3337 -0.3479
13267TIP3    H161216   5.584   3.531  13.714 -0.0789  0.9473 -1.5725
13267TIP3    H261217   5.449   3.542  13.782 -0.0344  1.2769 -1.5343
13268TIP3   OH261218   3.739   3.093  14.259 -0.1828  0.4982  0.1852
13268TIP3    H161219   3.702   3.007  14.243  0.5523  0.3144 -0.6154
13268TIP3    H261220   3.784   3.115  14.178  0.9803  0.9399  0.9240
13269TIP3   OH261221   4.952   2.647   0.855 -0.2339  0.5719  0.3533
13269TIP3    H161222   4.970   2.735   0.824 -1.3103  0.4608 -0.6463
13269TIP3    H261223   4.858   2.648   0.876 -0.3939 -0.4848 -0.2350
13270TIP3   OH261224   3.683   2.751  15.627 -0.4719 -0.0080  0.3068
13270TIP3    H161225   3.732   2.674  15.598 -0.2165  0.0075  0.6916
13270TIP3    H261226   3.594   2.718  15.643 -0.3261 -0.2577  0.6131
13271TIP3   OH261227   3.623   6.659   0.725  0.1946  0.5741  0.4292
13271TIP3    H161228   3.621   6.705   0.641 -0.3015 -1.5344 -0.7789
13271TIP3    H261229   3.533   6.633   0.740  0.6305 -0.9329  0.5179
13272TIP3   OH261230   4.686   6.373   6.057 -0.1444 -0.3241  0.0285
13272TIP3    H161231   4.762   6.330   6.096 -1.8140 -1.6124  2.0364
13272TIP3    H261232   4.624   6.303   6.042 -0.8869  0.6627 -1.8576
13273TIP3   OH261233   3.688   3.307   5.506 -0.1412 -0.1664 -0.2999
13273TIP3    H161234   3.736   3.240   5.554  1.0078  1.0424  0.2894
13273TIP3    H261235   3.653   3.260   5.430 -1.2086 -1.9119  1.1708
13274TIP3   OH261236   2.992   5.387   3.023  0.3631 -0.0695 -0.0906
13274TIP3    H161237   2.974   5.340   3.105 -0.6174 -2.3560 -1.5126
13274TIP3    H261238   2.911   5.434   3.004  0.8215  1.0065  0.5650
13275TIP3   OH261239   0.939   0.256   2.454  0.0221  0.3526  0.3973
13275TIP3    H161240   0.985   0.320   2.508  0.4043 -0.1751  0.6992
13275TIP3    H261241   0.856   0.242   2.499 -0.9811  2.1840 -0.7563
13276TIP3   OH261242   4.375   5.711  11.877 -0.5480  0.0286 -0.7378
13276TIP3    H161243   4.356   5.766  11.952  0.4670  0.7518 -0.9818
13276TIP3    H261244   4.290   5.696  11.836 -0.9001  1.1368 -0.4614
13277TIP3   OH261245   1.452   0.193   4.908  0.3340 -0.1714 -0.0954
13277TIP3    H161246   1.479   0.261   4.846  3.0246 -1.0774 -0.0523
13277TIP3    H261247   1.409   0.126   4.854  1.4085 -0.3075 -0.8107
13278TIP3   OH261248   0.465   5.774   4.098 -0.4371 -0.5111  0.1893
13278TIP3    H161249   0.538   5.835   4.110 -0.7132 -0.3879  1.2793
13278TIP3    H261250   0.411   5.814   4.030  0.2227 -0.3448 -0.2497
13279TIP3   OH261251   5.869   4.940  13.840 -0.0160 -0.2095 -0.3696
13279TIP3    H161252   5.879   4.863  13.783 -1.1443  0.7638 -1.9673
13279TIP3    H261253   5.943   4.996  13.818  1.2173 -1.0840  1.3148
13280TIP3   OH261254   0.789   2.763  16.782 -0.4872  0.1812  0.4844
13280TIP3    H161255   0.739   2.842  16.763 -1.6740 -0.5423  0.5490
13280TIP3    H261256   0.724   2.699  16.812  0.7838  0.1090  3.4651
13281TIP3   OH261257   1.281   0.716  15.120  0.7473  0.1813 -0.1193
13281TIP3    H161258   1.286   0.701  15.214  2.0180  2.1547  0.2153
13281TIP3    H261259   1.190   0.740  15.103  0.2918 -1.1179  0.4146
13282TIP3   OH261260   2.192   5.678  12.066  0.0009  0.0317  0.1247
13282TIP3    H161261   2.241   5.739  12.122  0.8394 -0.2901 -0.2380
13282TIP3    H261262   2.161   5.733  11.993  1.1135 -0.0410 -0.4203
13283TIP3   OH261263   3.342   1.719   0.739 -0.2253 -0.0537  0.4624
13283TIP3    H161264   3.280   1.761   0.799  0.2126 -0.4250  1.1799
13283TIP3    H261265   3.423   1.769   0.748  0.0877 -0.6077  0.7966
13284TIP3   OH261266   1.008   5.694   6.375  0.4407  0.5875  1.1088
13284TIP3    H161267   1.033   5.785   6.393 -0.8528  1.1069  0.3964
13284TIP3    H261268   0.956   5.668   6.452  0.2535  0.6740  1.0115
13285TIP3   OH261269   1.163   4.215  17.272  0.3370  0.4917  0.3454
13285TIP3    H161270   1.249   4.176  17.286  1.5160  2.7133 -0.2888
13285TIP3    H261271   1.129   4.230  17.360  0.6528 -0.2548  0.6037
13286TIP3   OH261272   5.234   6.637   0.873 -0.0098  0.4658  0.3325
13286TIP3    H161273   5.185   6.624   0.955 -1.0058 -1.2719 -0.4768
13286TIP3    H261274   5.296   6.707   0.893 -0.8820  0.7542  2.2796
13287TIP3   OH261275   1.936   4.237   1.414  0.1710  0.2091  0.1151
13287TIP3    H161276   1.952   4.175   1.343 -4.1884 -2.9668  1.4846
13287TIP3    H261277   1.998   4.211   1.482 -0.9613 -2.2201  0.3164
13288TIP3   OH261278   3.687   6.173   5.635  0.0953 -0.1468 -0.0510
13288TIP3    H161279   3.636   6.140   5.561 -0.4831  1.8883 -0.6450
13288TIP3    H261280   3.669   6.112   5.706  0.6349 -2.1376 -1.5393
13289TIP3   OH261281   1.401   5.334   0.417 -0.0779 -0.3531 -0.0714
13289TIP3    H161282   1.368   5.328   0.507  1.1898  0.5842  0.4761
13289TIP3    H261283   1.323   5.322   0.363 -0.8225 -1.1807  1.1437
13290TIP3   OH261284   4.275   1.545   0.292 -0.4651 -0.2044  0.6788
13290TIP3    H161285   4.268   1.503   0.206  0.0238 -0.0435  0.5573
13290TIP3    H261286   4.233   1.483   0.352 -2.5922  0.5363  0.0678
13291TIP3   OH261287   4.984   2.778  15.554  0.2695  0.2548 -0.0447
13291TIP3    H161288   5.017   2.735  15.633  0.2353 -1.7811 -1.0755
13291TIP3    H261289   5.062   2.816  15.513  0.5728 -0.1967  0.0967
13292TIP3   OH261290   6.352   1.149  12.000  0.4303 -0.1244  0.0276
13292TIP3    H161291   6.286   1.180  11.938 -1.2151 -1.7617  0.8841
13292TIP3    H261292   6.365   1.057  11.978  0.1309 -0.6259  1.7651
13293TIP3   OH261293   0.383   6.003   1.860 -0.1302  0.4480  0.9636
13293TIP3    H161294   0.454   6.045   1.812  0.6869 -0.0500  1.7164
13293TIP3    H261295   0.303   6.040   1.822  0.4102 -1.0332 -1.8762
13294TIP3   OH261296   0.044   4.500   5.362 -0.2925 -0.2941  0.4330
13294TIP3    H161297  -0.019   4.561   5.401  0.8858  0.3558  1.4065
13294TIP3    H261298  -0.000   4.416   5.363 -1.9060  0.4805 -0.8049
13295TIP3   OH261299   4.128   4.678  11.632 -0.4033 -0.3198 -0.1250
13295TIP3    H161300   4.097   4.632  11.554  1.2114  0.1276 -1.0672
13295TIP3    H261301   4.219   4.650  11.642 -0.0862  0.9038  0.6342
13296TIP3   OH261302   2.557   6.562   3.720 -0.0201 -0.0054 -0.2787
13296TIP3    H161303   2.487   6.528   3.776  0.4197  0.4084  0.5437
13296TIP3    H261304   2.634   6.511   3.745  0.1609  0.1279 -0.5704
13297TIP3   OH261305   6.030   1.539  16.897 -0.2046 -0.1446 -0.0219
13297TIP3    H161306   5.954   1.544  16.956 -1.4121  0.8773 -1.5938
13297TIP3    H261307   6.025   1.618  16.844  2.7583  0.6538  0.6921
13298TIP3   OH261308   4.120   6.718  11.490  0.3139  0.2292  0.6730
13298TIP3    H161309   4.116   6.624  11.470  1.2798 -0.0098  1.5384
13298TIP3    H261310   4.208   6.744  11.465 -0.0318  0.9759  0.1959
13299TIP3   OH261311   0.257   4.692   0.135  0.1314  0.8389  0.3091
13299TIP3    H161312   0.312   4.641   0.075 -0.2387  2.1102 -1.1848
13299TIP3    H261313   0.313   4.708   0.210  0.6236 -0.7920  0.3417
13300TIP3   OH261314   0.316   2.411  15.021  0.3186 -0.8800 -0.3197
13300TIP3    H161315   0.328   2.317  15.012  0.5255 -0.7684 -1.2937
13300TIP3    H261316   0.289   2.441  14.934  0.4695 -0.0078 -0.0811
13301TIP3   OH261317   6.380   2.997   4.660  0.2578  0.0811 -0.4796
13301TIP3    H161318   6.428   3.076   4.634 -0.0644  0.8689  1.1931
13301TIP3    H261319   6.411   2.979   4.749 -0.9541 -0.6690 -0.1971
13302TIP3   OH261320   1.780   0.098  11.724  0.4391 -0.2723  0.0207
13302TIP3    H161321   1.687   0.097  11.702  0.0169 -0.0096  1.6780
13302TIP3    H261322   1.819   0.155  11.657 -0.5535 -0.5172 -0.7899
13303TIP3   OH261323   6.598   2.660   2.503  0.3265 -0.2433 -0.5431
13303TIP3    H161324   6.590   2.570   2.536  0.7463 -0.0461  0.1263
13303TIP3    H261325   6.520   2.704   2.535  0.0473 -0.4023 -0.9961
13304TIP3   OH261326   2.023   3.114  16.754 -0.6906  0.3258 -0.6398
13304TIP3    H161327   2.023   3.154  16.841 -0.9377 -0.3533 -0.3214
13304TIP3    H261328   1.942   3.144  16.714  0.2333  2.0521 -1.3152
13305TIP3   OH261329   2.677   4.864  12.606 -0.1005  0.2361  0.3422
13305TIP3    H161330   2.604   4.925  12.600 -0.0014  0.2334 -1.5779
13305TIP3    H261331   2.711   4.859  12.516  0.2099 -2.2682  0.5322
13306TIP3   OH261332   3.921   6.014   2.080  0.1054  0.9047 -0.0431
13306TIP3    H161333   3.827   5.993   2.087 -0.7559  2.8689 -3.2381
13306TIP3    H261334   3.961   5.934   2.047 -0.4261  0.0763  1.2534
13307TIP3   OH261335   1.577   0.625   4.602 -0.4827  0.1069 -0.5862
13307TIP3    H161336   1.589   0.717   4.578 -0.1737  0.7330  1.6760
13307TIP3    H261337   1.483   0.618   4.621 -0.5372 -0.1074 -0.9229
13308TIP3   OH261338   3.594   1.878   2.041  0.0080  0.2769  0.1324
13308TIP3    H161339   3.638   1.958   2.068 -1.6103  1.4349 -0.4955
13308TIP3    H261340   3.664   1.813   2.033  1.6524  2.0962 -1.1069
13309TIP3   OH261341   0.241   0.282  12.896  0.4860 -0.6295  0.3963
13309TIP3    H161342   0.218   0.285  12.989  1.5926 -0.3981  0.6781
13309TIP3    H261343   0.234   0.190  12.873 -1.4267 -0.4914  0.2571
13310TIP3   OH261344   3.979   0.989   6.146  0.0840 -0.0548  0.1739
13310TIP3    H161345   3.908   0.924   6.150  0.9685 -1.1256 -0.8765
13310TIP3    H261346   4.042   0.959   6.212 -1.0674  1.7582  2.2261
13311TIP3   OH261347   5.314   1.457  13.964  0.6014  0.1951 -0.3465
13311TIP3    H161348   5.323   1.552  13.952 -0.1150  0.1978 -0.8956
13311TIP3    H261349   5.229   1.436  13.927  0.0948 -0.4428  1.0973
13312TIP3   OH261350   2.930   1.453   1.208 -0.4753  0.1532 -0.0744
13312TIP3    H161351   2.888   1.372   1.183  0.6021  0.1631 -2.1392
13312TIP3    H261352   3.018   1.427   1.235 -0.6802  0.4753  0.9459
13313TIP3   OH261353   0.008   1.591   2.744 -0.3730 -0.1888  0.2261
13313TIP3    H161354  -0.063   1.603   2.806  0.1536 -0.3884  0.8726
13313TIP3    H261355  -0.012   1.653   2.673 -0.7092  0.4133  0.8324
13314TIP3   OH261356   3.965   4.678  16.389 -0.2346  0.0955 -0.0412
13314TIP3    H161357   3.982   4.676  16.483 -0.3568  3.4161  0.1544
13314TIP3    H261358   4.050   4.700  16.350 -0.5489  0.4915 -0.5218
13315TIP3   OH261359   5.575   2.006  12.270  0.1191  0.1772 -0.0638
13315TIP3    H161360   5.577   1.929  12.328  1.9576  0.8390  0.8300
13315TIP3    H261361   5.506   2.062  12.307 -0.1620 -0.3426  0.2154
13316TIP3   OH261362   2.858   0.192  11.931  0.3018 -0.4521 -0.0930
13316TIP3    H161363   2.777   0.174  11.884  0.7773 -0.7615 -0.8286
13316TIP3    H261364   2.906   0.108  11.928  0.2385 -0.5426  1.1611
13317TIP3   OH261365   4.555   5.224  16.811  0.3121  0.0589  0.8537
13317TIP3    H161366   4.610   5.283  16.758  1.0662 -1.1511  0.2466
13317TIP3    H261367   4.492   5.189  16.749 -0.9059  1.0961  1.4579
13318TIP3   OH261368   0.351   2.311   4.978 -0.0441 -0.7740  0.2626
13318TIP3    H161369   0.362   2.374   5.049  1.9889  0.6540 -1.2145
13318TIP3    H261370   0.439   2.276   4.963 -0.2234 -0.3592 -2.0939
13319TIP3   OH261371   4.166   4.256   1.154 -0.3037  0.1399  0.3296
13319TIP3    H161372   4.204   4.179   1.112 -0.9251 -0.1607  0.3022
13319TIP3    H261373   4.187   4.329   1.096  0.6350  0.0586  0.5596
13320TIP3   OH261374   0.562   5.169  15.659  0.1163 -0.0482 -0.0483
13320TIP3    H161375   0.519   5.247  15.624 -0.4685 -0.6055 -0.5857
13320TIP3    H261376   0.534   5.166  15.751  1.3317  1.1871  0.3945
13321TIP3   OH261377   1.574   0.602  11.621 -0.4139  0.2040 -0.0881
13321TIP3    H161378   1.479   0.607  11.614 -0.3760  0.5080 -0.3939
13321TIP3    H261379   1.602   0.691  11.644  0.0217  0.8504 -2.7807
13322TIP3   OH261380   2.108   1.315  11.330  0.4983  0.4952  0.3295
13322TIP3    H161381   2.135   1.282  11.244 -0.7065 -1.2701  0.5663
13322TIP3    H261382   2.159   1.264  11.393 -1.3196 -0.9813  0.7030
13323TIP3   OH261383   1.829   0.086  17.031 -0.5700 -0.1814 -0.2159
13323TIP3    H161384   1.871   0.170  17.052  0.4066 -0.1264 -2.1715
13323TIP3    H261385   1.901   0.026  17.013 -1.2834 -1.0500 -0.2594
13324TIP3   OH261386   6.562   0.947  12.235 -0.0951 -0.6625 -0.0748
13324TIP3    H161387   6.631   0.897  12.279 -0.1123 -1.0510 -0.4819
13324TIP3    H261388   6.604   0.983  12.156 -0.3494 -0.8834 -0.3138
13325TIP3   OH261389   5.058   4.486  12.523  0.3876 -0.0956  0.1536
13325TIP3    H161390   5.054   4.574  12.559 -1.1443 -0.0752 -0.0274
13325TIP3    H261391   5.114   4.495  12.445 -1.8295  1.3190 -1.4033
13326TIP3   OH261392   2.553   5.566  17.271  0.0158 -0.5214 -0.1935
13326TIP3    H161393   2.482   5.560  17.335  1.4947  0.1853  1.5781
13326TIP3    H261394   2.623   5.613  17.316  2.1169 -2.2790 -1.4354
13327TIP3   OH261395   3.179   3.413   1.956  0.6441  0.0062 -0.4621
13327TIP3    H161396   3.193   3.502   1.924  2.4802 -0.3630 -0.7985
13327TIP3    H261397   3.192   3.358   1.878 -1.9731 -0.5265 -0.6262
13328TIP3   OH261398   4.808   3.350  12.016  0.0657 -0.0458 -0.0114
13328TIP3    H161399   4.796   3.444  12.029  1.7106  0.1571  0.3526
13328TIP3    H261400   4.885   3.343  11.959 -1.5569 -1.1608 -2.2139
13329TIP3   OH261401   4.257   1.069   4.221 -0.2633  0.1614  1.0196
13329TIP3    H161402   4.239   1.157   4.186 -1.7685 -0.0367  1.2022
13329TIP3    H261403   4.235   1.076   4.314  0.8793 -0.0765  1.3139
13330TIP3   OH261404   5.752   2.881   1.831  0.3699 -0.4181  0.3107
13330TIP3    H161405   5.792   2.967   1.816 -0.0512 -0.5024 -1.6342
13330TIP3    H261406   5.800   2.822   1.773  1.0868 -1.6724  2.0955
13331TIP3   OH261407   0.670   3.481  12.840  0.1222 -0.3420  0.4714
13331TIP3    H161408   0.719   3.406  12.876  0.6867 -0.5310 -0.6374
13331TIP3    H261409   0.682   3.550  12.904  2.1316 -0.2887  0.1156
13332TIP3   OH261410   6.455   6.491   4.136  0.3635  0.8193 -0.1532
13332TIP3    H161411   6.492   6.489   4.048  0.7309  1.0604 -0.0047
13332TIP3    H261412   6.445   6.399   4.159  0.4053  0.7542 -0.3867
13333TIP3   OH261413   6.430   5.058   4.781  0.0821 -0.4375 -0.0079
13333TIP3    H161414   6.390   5.042   4.696  0.7926 -1.4537 -0.1685
13333TIP3    H261415   6.493   4.987   4.792  0.4431  0.0257  1.0958
13334TIP3   OH261416   3.113   3.015   5.730  0.0994  0.1422  0.0538
13334TIP3    H161417   3.157   3.100   5.736  0.0341  0.0650  2.3910
13334TIP3    H261418   3.154   2.961   5.798 -0.0407 -1.6439 -1.1958
13335TIP3   OH261419   2.678   3.444   4.864  0.1387  0.1835  0.1188
13335TIP3    H161420   2.651   3.530   4.833 -0.4045 -0.1716 -0.4021
13335TIP3    H261421   2.691   3.392   4.785 -1.1908 -0.7093  0.4427
13336TIP3   OH261422   5.342   2.688  17.025 -0.4552  0.3346 -0.2140
13336TIP3    H161423   5.426   2.671  17.069 -0.8826  0.1876  0.5793
13336TIP3    H261424   5.325   2.781  17.042 -0.2383  0.4781 -0.7664
13337TIP3   OH261425   5.392   0.870   4.949 -0.3421 -0.3783 -0.5219
13337TIP3    H161426   5.325   0.867   4.881  0.0144 -2.3439 -0.8404
13337TIP3    H261427   5.474   0.888   4.902 -0.3863  0.2747 -0.3538
13338TIP3   OH261428   1.048   2.850   5.148 -0.4855  0.0453  0.2711
13338TIP3    H161429   1.014   2.917   5.090 -0.4503 -0.9011 -0.8698
13338TIP3    H261430   1.080   2.898   5.225  2.4248  1.7114 -1.7975
13339TIP3   OH261431   5.128   2.444   5.577 -0.0971 -0.0568  0.1828
13339TIP3    H161432   5.119   2.349   5.582  1.5660 -0.1851  1.9112
13339TIP3    H261433   5.181   2.467   5.653  0.2702  2.1642 -0.6688
13340TIP3   OH261434   4.009   5.386  13.337 -0.4469  0.3416 -0.1436
13340TIP3    H161435   4.081   5.337  13.299  0.0732  1.0761 -0.1195
13340TIP3    H261436   3.981   5.446  13.267  0.1085  1.2630  0.4098
13341TIP3   OH261437   0.387   5.643   0.456 -0.5152 -0.3194 -0.0442
13341TIP3    H161438   0.350   5.616   0.540 -1.9337 -2.0605 -1.1447
13341TIP3    H261439   0.444   5.716   0.477  0.1479 -1.4751  2.5945
13342TIP3   OH261440   2.962   0.555  15.727 -0.1589  0.2774  0.4372
13342TIP3    H161441   3.036   0.497  15.743 -0.3363  0.1425  0.7791
13342TIP3    H261442   2.926   0.573  15.814 -0.8379 -0.0706  0.2421
13343TIP3   OH261443   1.884   2.845   5.718 -0.0051 -0.1149 -0.3177
13343TIP3    H161444   1.917   2.766   5.761 -0.1405  0.9541  1.8912
13343TIP3    H261445   1.949   2.912   5.738 -1.8098  1.2535  1.2979
13344TIP3   OH261446   3.656   0.779  16.394 -0.3428  0.4072  0.5463
13344TIP3    H161447   3.611   0.695  16.401 -0.2553  0.1860 -1.0294
13344TIP3    H261448   3.708   0.786  16.474 -1.3244 -0.4322  1.2845
13345TIP3   OH261449   4.153   3.020  13.488  0.1510 -0.0337 -0.7581
13345TIP3    H161450   4.196   3.058  13.411  1.6414  1.6416  0.7730
13345TIP3    H261451   4.079   3.079  13.505  3.0911  3.3116  2.2662
13346TIP3   OH261452   5.291   5.217  15.698  0.7650  0.2435 -0.7594
13346TIP3    H161453   5.380   5.209  15.732  1.1972  1.0572 -1.6351
13346TIP3    H261454   5.287   5.153  15.627  1.2229  1.3241 -1.8002
13347TIP3   OH261455   5.423   6.763  14.424  0.0591 -0.3775 -0.2012
13347TIP3    H161456   5.502   6.784  14.474 -1.1229  2.2885  0.7290
13347TIP3    H261457   5.451   6.768  14.332  0.8498  1.1700  0.0911
13348TIP3   OH261458   3.776   3.435   0.879  0.1538 -0.1764  0.1708
13348TIP3    H161459   3.719   3.480   0.818  1.1996 -0.2655 -0.9016
13348TIP3    H261460   3.753   3.342   0.868  0.9030 -0.2685 -0.7035
13349TIP3   OH261461   2.504   6.476   1.299 -0.2924  0.0599  0.3262
13349TIP3    H161462   2.430   6.494   1.242  0.9888  0.5957 -1.2503
13349TIP3    H261463   2.532   6.388   1.275  0.2993  0.3154  0.0476
13350TIP3   OH261464   3.930   5.103   4.791 -0.5803  0.0369  0.1013
13350TIP3    H161465   3.883   5.084   4.872  0.3824 -2.6499  0.1313
13350TIP3    H261466   3.866   5.149   4.736 -1.7655  0.4310  1.7341
13351TIP3   OH261467   3.201   3.072   1.942 -0.2201  0.3330 -0.2889
13351TIP3    H161468   3.208   3.129   1.866 -2.5750  0.5675 -0.4020
13351TIP3    H261469   3.137   3.006   1.917  1.2358 -1.4580  0.4238
13352TIP3   OH261470   4.348   3.041   5.114 -0.4541  0.2494 -0.1975
13352TIP3    H161471   4.347   3.021   5.207 -0.2040 -2.5519 -0.7051
13352TIP3    H261472   4.420   3.103   5.103  1.2692 -1.3898  1.1686
13353TIP3   OH261473   5.949   3.926   5.401  0.3534  0.1433 -0.0515
13353TIP3    H161474   5.910   3.901   5.485 -2.9539  0.7498 -1.2424
13353TIP3    H261475   6.040   3.946   5.421  0.4270 -2.4270  2.8362
13354TIP3   OH261476   2.546   5.849  12.488  0.1810 -0.2187 -0.1863
13354TIP3    H161477   2.535   5.794  12.566  0.2995 -0.0367 -0.0418
13354TIP3    H261478   2.579   5.932  12.521 -0.6255  0.1703 -0.3338
13355TIP3   OH261479   1.645   2.573   3.418  0.1959 -0.3402  0.0291
13355TIP3    H161480   1.603   2.500   3.464 -1.1234  1.1073  1.2387
13355TIP3    H261481   1.732   2.579   3.458  0.6376 -1.7203 -0.6541
13356TIP3   OH261482   0.636   3.728  12.374  0.3677 -0.3886 -0.1665
13356TIP3    H161483   0.636   3.694  12.285  1.0459  2.3159 -1.2880
13356TIP3    H261484   0.557   3.782  12.380 -0.1244 -1.2063  1.1891
13357TIP3   OH261485   5.183   0.245   6.028  0.6347 -0.1825 -0.3372
13357TIP3    H161486   5.224   0.312   6.084 -0.2318  0.6924 -0.7181
13357TIP3    H261487   5.255   0.185   6.006  1.5603  0.9077 -0.3903
13358TIP3   OH261488   2.917   1.362   3.699  0.6095  0.4038  0.1213
13358TIP3    H161489   2.830   1.349   3.661  1.3193 -0.9552 -1.1551
13358TIP3    H261490   2.977   1.332   3.631  1.9779 -1.5875  2.0583
13359TIP3   OH261491   1.879   0.885  12.174 -0.4238 -0.2922  0.7874
13359TIP3    H161492   1.902   0.810  12.229  0.9976 -1.4331 -1.2253
13359TIP3    H261493   1.840   0.846  12.096 -0.4709  1.1338  0.0778
13360TIP3   OH261494   4.072   4.648   1.439  0.0745 -0.2594  0.4929
13360TIP3    H161495   3.996   4.703   1.418  0.1944 -0.0301  0.6546
13360TIP3    H261496   4.111   4.690   1.516  1.6297  0.8763 -0.8438
13361TIP3   OH261497   4.647   6.354   4.294  0.2313  0.4783 -0.3640
13361TIP3    H161498   4.669   6.426   4.353  1.1145 -0.2676  0.2463
13361TIP3    H261499   4.692   6.375   4.213  0.5005  0.6143 -0.1825
13362TIP3   OH261500   0.198   2.726   4.026 -0.4648 -0.3614 -0.3500
13362TIP3    H161501   0.171   2.817   4.008 -1.2704 -0.0238  2.1527
13362TIP3    H261502   0.122   2.687   4.069 -0.1584 -2.3019 -1.4740
13363TIP3   OH261503   0.738   2.462  12.357  0.2772  0.2126  0.3734
13363TIP3    H161504   0.828   2.468  12.325  0.7806 -0.6887  1.5284
13363TIP3    H261505   0.685   2.451  12.279  1.4333 -1.7713 -0.2031
13364TIP3   OH261506   6.230   1.671   5.507  0.1258 -0.2895  0.0326
13364TIP3    H161507   6.284   1.595   5.528 -1.2024 -1.0936  0.7158
13364TIP3    H261508   6.170   1.641   5.439  0.6511  0.6516 -0.8823
13365TIP3   OH261509   4.465   3.546  17.033  0.4248 -0.3977  0.1131
13365TIP3    H161510   4.384   3.509  16.997 -0.5005  0.0274  1.6584
13365TIP3    H261511   4.447   3.557  17.127  1.8741  0.7642  0.2976
13366TIP3   OH261512   2.068   3.063  11.663 -0.2976  0.5256  0.0751
13366TIP3    H161513   2.088   3.132  11.600  1.1813 -0.1996 -0.2998
13366TIP3    H261514   1.973   3.055  11.661 -0.4400  2.0937 -0.3586
13367TIP3   OH261515   4.929   2.540  14.257  0.4536  0.2607  0.1438
13367TIP3    H161516   4.917   2.471  14.193  1.1810 -2.2047  2.4979
13367TIP3    H261517   4.839   2.566  14.280  0.1783  1.2327 -1.7921
13368TIP3   OH261518   2.693   4.352   4.736  0.0034 -0.1857  0.6985
13368TIP3    H161519   2.639   4.413   4.686  1.4084  2.0904  1.7837
13368TIP3    H261520   2.737   4.298   4.670 -0.6878  0.5019 -0.3512
13369TIP3   OH261521   0.894   4.149  15.380 -0.1325 -0.4859 -0.7241
13369TIP3    H161522   0.816   4.202  15.397 -0.0894 -0.7947  0.4760
13369TIP3    H261523   0.861   4.070  15.338 -0.2807  0.0909 -1.7427
13370TIP3   OH261524   5.119   3.356  17.102  0.2535  0.7712 -0.4020
13370TIP3    H161525   5.092   3.447  17.090  1.2159  1.0338 -0.7055
13370TIP3    H261526   5.140   3.349  17.195 -0.0055  0.8054 -0.3414
13371TIP3   OH261527   0.302   4.528   2.439 -0.3807 -0.2466  0.0145
13371TIP3    H161528   0.279   4.464   2.372 -1.1264 -1.1056  1.0581
13371TIP3    H261529   0.242   4.601   2.425 -0.4364 -0.3563 -0.3301
13372TIP3   OH261530   3.972   2.105   0.059 -0.5515  0.2372  0.1466
13372TIP3    H161531   3.951   2.188   0.014 -0.7350  1.2016  1.9305
13372TIP3    H261532   3.990   2.044  -0.012  1.1649  2.2081 -1.2432
13373TIP3   OH261533   3.600   5.300   3.531  0.2658  0.4882  0.3146
13373TIP3    H161534   3.576   5.235   3.465  2.4642 -0.1185  0.0118
13373TIP3    H261535   3.579   5.259   3.615 -1.1045  0.6359  0.0668
13374TIP3   OH261536   2.546   6.017  10.765 -0.3312  0.3384  0.2054
13374TIP3    H161537   2.569   6.002  10.673  1.0718 -3.1583  0.9547
13374TIP3    H261538   2.541   6.112  10.773  1.2672  0.8508 -3.0767
13375TIP3   OH261539   1.053   3.153  14.902  0.1743 -0.0200 -0.3402
13375TIP3    H161540   1.070   3.132  14.811  0.4467 -1.0237 -0.0785
13375TIP3    H261541   1.071   3.071  14.949  0.1025  0.4949  0.6166
13376TIP3   OH261542   4.849   0.723   5.924 -0.0361 -0.3967  0.1237
13376TIP3    H161543   4.814   0.796   5.975 -1.2299 -0.5349 -0.4535
13376TIP3    H261544   4.886   0.764   5.846 -0.2415 -0.3677  0.0419
13377TIP3   OH261545   6.149   4.075   0.201  0.2849 -0.1377 -0.0197
13377TIP3    H161546   6.130   3.982   0.189 -2.3507  0.4112 -0.8772
13377TIP3    H261547   6.176   4.106   0.115 -0.4631  0.1802 -0.1527
13378TIP3   OH261548   3.080   0.459   1.706 -0.5683  0.4857 -0.0282
13378TIP3    H161549   3.128   0.400   1.763 -0.3896 -0.3903 -1.0458
13378TIP3    H261550   3.128   0.542   1.709 -1.1158  0.7732  1.8248
13379TIP3   OH261551   2.567   2.188   2.570  0.3359 -0.1318  0.0816
13379TIP3    H161552   2.543   2.212   2.660 -0.0274  0.2750 -0.1154
13379TIP3    H261553   2.495   2.224   2.517  0.5305 -0.4027 -0.3643
13380TIP3   OH261554   3.491   2.089   1.258  0.2505 -0.2754  0.5637
13380TIP3    H161555   3.500   2.025   1.187  0.0756 -0.2535  0.5225
13380TIP3    H261556   3.417   2.058   1.310  0.1462 -0.0915  0.5274
13381TIP3   OH261557   2.353   4.036   3.925 -0.1144  0.0182  0.1100
13381TIP3    H161558   2.288   3.971   3.897 -1.5407  0.8733  1.2636
13381TIP3    H261559   2.322   4.066   4.011 -0.1465  2.9897 -0.8075
13382TIP3   OH261560   1.424   2.422   3.286 -0.2261 -0.2370  0.2279
13382TIP3    H161561   1.363   2.489   3.257 -0.5396 -0.4689  0.3465
13382TIP3    H261562   1.510   2.464   3.283 -0.2956 -0.1493 -0.6837
13383TIP3   OH261563   5.787   2.849  10.939 -0.7852  0.1832  0.4054
13383TIP3    H161564   5.724   2.916  10.966 -1.0131 -0.0221  0.3898
13383TIP3    H261565   5.792   2.858  10.844 -2.3070 -1.0945  0.1518
13384TIP3   OH261566   6.767   3.585  14.621 -0.5195 -0.6580  0.1643
13384TIP3    H161567   6.682   3.547  14.598 -1.6658  1.4831  0.5415
13384TIP3    H261568   6.755   3.679  14.607  1.4278 -0.1789  1.3848
13385TIP3   OH261569   2.631   1.143  11.688 -0.1373  0.2067 -0.0559
13385TIP3    H161570   2.673   1.229  11.680 -1.4829  0.8602 -0.4697
13385TIP3    H261571   2.538   1.161  11.675 -0.5400 -1.2070  0.6508
13386TIP3   OH261572   0.771   5.927   5.265  0.3655 -0.0869 -0.0515
13386TIP3    H161573   0.707   5.859   5.283  0.7783 -0.4879 -0.0781
13386TIP3    H261574   0.855   5.880   5.261  0.5164  0.2681 -1.1669
13387TIP3   OH261575   4.166   2.751   4.388  0.0040 -0.1925 -0.5802
13387TIP3    H161576   4.175   2.667   4.433  0.7834  0.0988 -0.1602
13387TIP3    H261577   4.102   2.800   4.440  1.3002  0.3509  0.5960
13388TIP3   OH261578   6.370   1.804  16.695 -0.5493 -0.2995 -0.0595
13388TIP3    H161579   6.383   1.821  16.789  2.6047  0.1386 -0.4591
13388TIP3    H261580   6.328   1.718  16.693  0.1954 -0.7754  1.7839
13389TIP3   OH261581   3.341   3.940   3.949  0.6542 -0.7586 -0.0437
13389TIP3    H161582   3.381   3.893   4.022  2.1542 -1.8960 -1.5196
13389TIP3    H261583   3.321   3.872   3.884 -0.0084  0.2827 -0.9744
13390TIP3   OH261584   4.152   4.474  11.951  0.0172 -0.3485  0.0384
13390TIP3    H161585   4.079   4.536  11.945 -0.7747 -1.2470  0.0939
13390TIP3    H261586   4.225   4.526  11.984 -0.8041  0.4116  0.7128
13391TIP3   OH261587   4.368   4.214  13.536 -0.1633  0.0911 -0.1327
13391TIP3    H161588   4.330   4.170  13.612  0.2045  2.6816  1.7179
13391TIP3    H261589   4.439   4.156  13.507 -0.9984 -1.4693  0.8094
13392TIP3   OH261590   5.180   2.908  10.872 -0.2557 -0.4315  0.7347
13392TIP3    H161591   5.215   2.839  10.928  0.8051 -1.4177 -1.0474
13392TIP3    H261592   5.153   2.862  10.792  0.7617  1.2152 -0.6268
13393TIP3   OH261593   6.458   1.348  13.045  0.1024 -0.3339  0.0959
13393TIP3    H161594   6.465   1.354  12.950 -0.8333 -0.1377  0.0270
13393TIP3    H261595   6.421   1.432  13.072  0.7267 -0.2341  0.6797
13394TIP3   OH261596   4.790   3.220  13.922  0.2092  0.2058  0.0715
13394TIP3    H161597   4.837   3.296  13.955  2.0843  0.1496 -2.1873
13394TIP3    H261598   4.751   3.250  13.839 -1.2770 -0.5911  0.4426
13395TIP3   OH261599   2.758   5.001  13.626 -0.2708  0.0641 -0.5280
13395TIP3    H161600   2.770   5.093  13.600 -0.2042  0.5044  0.9826
13395TIP3    H261601   2.713   5.006  13.711  0.8341 -1.2610  0.1683
13396TIP3   OH261602   4.135   2.808  12.821  0.4284  0.8028  0.2462
13396TIP3    H161603   4.047   2.771  12.833  0.1740  1.3813  0.1636
13396TIP3    H261604   4.143   2.821  12.726  0.3189  1.4512  0.3253
13397TIP3   OH261605   5.235   0.784   1.637 -0.5659 -0.1084  0.1572
13397TIP3    H161606   5.300   0.762   1.571 -1.2394 -3.5527  0.4476
13397TIP3    H261607   5.210   0.699   1.675 -2.0089  1.4898  3.1090
13398TIP3   OH261608   0.333   5.780   3.742  0.2101  0.1879  0.3518
13398TIP3    H161609   0.392   5.852   3.764 -0.5121  0.4744  1.4647
13398TIP3    H261610   0.273   5.817   3.677  0.9338  0.0412 -0.4137
13399TIP3   OH261611   0.074   1.545   1.346 -0.3170 -0.0459  0.5108
13399TIP3    H161612   0.002   1.608   1.341  0.0284  0.3387  0.3046
13399TIP3    H261613   0.143   1.593   1.392  0.1148 -0.1136 -0.0570
13400TIP3   OH261614   3.722   0.716  17.191 -0.2771  0.2770  0.1001
13400TIP3    H161615   3.661   0.744  17.123 -0.2588 -0.5027 -0.2546
13400TIP3    H261616   3.756   0.797  17.229 -0.0578  0.7316 -1.0299
13401TIP3   OH261617   1.555   5.559   2.959  0.0698  0.5201 -0.1339
13401TIP3    H161618   1.603   5.530   2.882  1.5387  1.2267  0.4687
13401TIP3    H261619   1.533   5.478   3.006 -1.3934  0.0356 -1.5550
13402TIP3   OH261620   3.090   5.032  10.410 -0.7577  0.5639 -0.2060
13402TIP3    H161621   3.079   4.993  10.497 -1.4345  1.4054  0.0931
13402TIP3    H261622   3.147   5.108  10.424 -2.7633  2.1074 -0.0636
13403TIP3   OH261623   2.151   3.022  17.161 -0.0925 -0.1959  0.0614
13403TIP3    H161624   2.147   3.061  17.248  0.9777 -0.0362  0.0515
13403TIP3    H261625   2.214   2.951  17.169  1.5094  1.0055 -0.9981
13404TIP3   OH261626   1.452   3.459   2.694 -0.2908  0.1806  0.2201
13404TIP3    H161627   1.425   3.394   2.758 -0.3290  1.0233  1.0828
13404TIP3    H261628   1.372   3.509   2.674  0.1775  1.4391  1.3289
13405TIP3   OH261629   1.774   6.094  13.235 -0.1677  0.0634 -0.4748
13405TIP3    H161630   1.696   6.040  13.224 -0.8727  1.1670 -1.0539
13405TIP3    H261631   1.824   6.080  13.155  0.9459 -1.7061  0.4665
13406TIP3   OH261632   1.661   5.195   2.880  0.5639  0.6916  0.3047
13406TIP3    H161633   1.663   5.106   2.915  0.0947  0.0161 -1.3205
13406TIP3    H261634   1.656   5.184   2.785 -1.4512  2.4183  0.1302
13407TIP3   OH261635   2.863   0.997   2.664  0.0916 -0.4660 -0.1769
13407TIP3    H161636   2.906   1.059   2.723  1.6940  0.6152 -2.3373
13407TIP3    H261637   2.877   0.912   2.704  2.2926  0.0900  0.3762
13408TIP3   OH261638   2.162   0.593  15.513  0.3811  0.6734 -0.2727
13408TIP3    H161639   2.204   0.600  15.599  1.4382  0.5400 -0.7716
13408TIP3    H261640   2.185   0.506  15.482  1.7491  1.4694 -1.5841
13409TIP3   OH261641   5.711   4.638   2.040 -0.0388  0.3197  0.4094
13409TIP3    H161642   5.710   4.598   2.127  0.6121 -0.5048  0.0557
13409TIP3    H261643   5.772   4.711   2.047  1.2863 -0.7280  0.2521
13410TIP3   OH261644   3.330   5.865  12.853 -0.1006 -0.1428 -0.2007
13410TIP3    H161645   3.337   5.932  12.785  0.7946 -0.8818 -0.8680
13410TIP3    H261646   3.327   5.914  12.935  3.0628  0.7151 -0.4659
13411TIP3   OH261647   6.639   4.754   3.492  0.0372  0.0250  0.4154
13411TIP3    H161648   6.721   4.748   3.445  0.0024 -0.5146  0.4214
13411TIP3    H261649   6.632   4.672   3.541 -0.1770  0.3520  0.9477
13412TIP3   OH261650   4.751   6.532  14.571 -0.2835 -0.3030 -0.6711
13412TIP3    H161651   4.724   6.607  14.519  0.7946 -0.7770 -1.9676
13412TIP3    H261652   4.721   6.456  14.521  1.6062 -0.7884 -1.1526
13413TIP3   OH261653   3.054   6.551   1.593  0.1209 -0.0881 -0.3627
13413TIP3    H161654   2.972   6.583   1.554 -0.1910  0.6350  0.8452
13413TIP3    H261655   3.111   6.534   1.517 -0.5262  1.0985 -1.1567
13414TIP3   OH261656   5.710   0.574   1.100 -0.0625  0.1074  0.3058
13414TIP3    H161657   5.730   0.503   1.039  0.5243  1.1682 -0.7989
13414TIP3    H261658   5.791   0.623   1.107 -0.5787  0.9284  0.6674
13415TIP3   OH261659   5.366   0.237  12.116 -0.0191  0.1944 -1.1245
13415TIP3    H161660   5.381   0.238  12.022  0.9708  0.7825 -0.9747
13415TIP3    H261661   5.401   0.153  12.146  0.2142  0.2663 -1.1968
13416TIP3   OH261662   1.257   0.191  13.567 -0.3001 -0.4992  0.1170
13416TIP3    H161663   1.179   0.191  13.511 -0.7536 -0.5735  0.7354
13416TIP3    H261664   1.259   0.279  13.605  0.0052 -0.4485 -0.0156
13417TIP3   OH261665   5.371   0.674   3.483  0.1060  0.0650 -0.7778
13417TIP3    H161666   5.314   0.685   3.559 -1.1826 -1.3117 -1.5017
13417TIP3    H261667   5.422   0.595   3.503 -1.7912 -1.6176 -2.1996
13418TIP3   OH261668   2.287   5.418  16.487 -0.1364  0.4908  0.1176
13418TIP3    H161669   2.266   5.337  16.439 -1.3314  0.2075  1.0892
13418TIP3    H261670   2.226   5.483  16.453 -0.2651  0.5671  0.4937
13419TIP3   OH261671   5.127   3.906   6.071 -0.1702 -0.1459 -0.2142
13419TIP3    H161672   5.129   3.822   6.024 -2.2385 -1.0644  1.2054
13419TIP3    H261673   5.080   3.965   6.012 -0.1452 -0.4612 -0.5532
13420TIP3   OH261674   1.464   4.272  11.684  0.0324 -0.5357 -0.2244
13420TIP3    H161675   1.459   4.328  11.762  3.0434 -1.0027  0.4600
13420TIP3    H261676   1.477   4.184  11.719  0.7515 -0.8461 -1.2171
13421TIP3   OH261677   0.889   6.445   1.191 -0.3546  0.5252 -0.0423
13421TIP3    H161678   0.917   6.390   1.118 -0.2089  0.2164  0.2462
13421TIP3    H261679   0.863   6.384   1.259  0.5032  0.7963  0.5519
13422TIP3   OH261680   2.139   1.150  14.182 -0.3609  0.5190 -0.0855
13422TIP3    H161681   2.045   1.165  14.189 -0.4347  0.1922 -0.3628
13422TIP3    H261682   2.178   1.226  14.226 -0.7621  0.0920  1.0496
13423TIP3   OH261683   4.921   2.647  12.179  0.1256 -0.3383 -0.5989
13423TIP3    H161684   4.881   2.604  12.103 -2.4466 -0.2409  0.5990
13423TIP3    H261685   4.853   2.645  12.246  2.0755  0.1778  1.5142
13424TIP3   OH261686   1.408   1.591   0.836 -0.1550 -0.7622 -0.2775
13424TIP3    H161687   1.476   1.651   0.803 -1.5726 -0.3828 -2.8027
13424TIP3    H261688   1.333   1.648   0.854 -1.1494 -1.5772 -1.6220
13425TIP3   OH261689   0.282   4.690   1.924 -0.5268 -0.1040  0.0068
13425TIP3    H161690   0.198   4.684   1.878 -0.5537 -0.3531  0.0903
13425TIP3    H261691   0.268   4.759   1.989 -1.1735 -1.2332  1.0937
13426TIP3   OH261692   2.631   1.656  16.888 -0.0498  0.7455 -0.3219
13426TIP3    H161693   2.630   1.562  16.867 -0.9564  0.5173  0.6823
13426TIP3    H261694   2.593   1.661  16.975 -1.6641  2.2270 -1.0603
13427TIP3   OH261695   1.992   0.730   4.562  0.1949 -0.8715  0.0368
13427TIP3    H161696   1.972   0.658   4.502 -1.0771 -0.0814 -0.5260
13427TIP3    H261697   2.046   0.790   4.511 -0.4474 -0.4578 -0.1782
13428TIP3   OH261698   1.885   4.216  13.705  0.1966 -0.2417 -0.2662
13428TIP3    H161699   1.868   4.278  13.634  0.9930  1.3087  0.8424
13428TIP3    H261700   1.973   4.183  13.687  0.5711  0.4695  0.1821
13429TIP3   OH261701   2.647   0.330  16.830 -0.1062 -0.3802  0.7593
13429TIP3    H161702   2.575   0.393  16.826 -1.0835 -1.4328  1.2679
13429TIP3    H261703   2.641   0.281  16.749  0.8593  0.3655  0.2154
13430TIP3   OH261704   2.354   3.659  16.672  0.3968  0.6261  0.0172
13430TIP3    H161705   2.369   3.661  16.578  1.0988  2.5277  0.1366
13430TIP3    H261706   2.307   3.576  16.687  1.8317 -0.5756 -1.7325
13431TIP3   OH261707   2.368   5.686   3.649  0.2862 -0.3460 -0.0931
13431TIP3    H161708   2.397   5.736   3.572 -0.4067 -0.6895 -0.5830
13431TIP3    H261709   2.432   5.709   3.717  0.8986 -0.0215 -0.7573
13432TIP3   OH261710   4.371   0.043   0.858 -0.2916 -0.3651 -0.0675
13432TIP3    H161711   4.457   0.005   0.840 -0.3529 -0.2554 -0.6064
13432TIP3    H261712   4.389   0.113   0.920  0.0057 -0.3719 -0.1432
13433TIP3   OH261713   2.138   4.909   0.469 -0.4321  0.2088 -0.0137
13433TIP3    H161714   2.218   4.914   0.521 -0.7162  0.8469  0.3806
13433TIP3    H261715   2.067   4.919   0.533 -0.7883  0.8555 -0.4893
13434TIP3   OH261716   0.705   3.456   3.494  0.3519 -0.3729  0.4556
13434TIP3    H161717   0.801   3.455   3.495  0.3789 -0.6070 -0.5591
13434TIP3    H261718   0.683   3.545   3.469  0.3965 -0.8577 -1.5558
13435TIP3   OH261719   4.845   5.304  15.768 -0.0672  0.7730  0.0165
13435TIP3    H161720   4.895   5.266  15.696 -1.7358 -0.0444 -0.7383
13435TIP3    H261721   4.879   5.260  15.846 -0.1533 -0.3506 -0.5624
13436TIP3   OH261722   6.629   5.804  10.755  0.1423 -0.0401  0.0739
13436TIP3    H161723   6.542   5.814  10.716  0.6692 -0.4880 -1.3064
13436TIP3    H261724   6.665   5.893  10.753  0.1854 -0.0617 -0.5743
13437TIP3   OH261725   2.332   2.509   6.409 -0.0507 -0.6356  0.0469
13437TIP3    H161726   2.336   2.421   6.447  0.5496 -0.5762  0.1301
13437TIP3    H261727   2.378   2.565   6.472 -0.4174 -0.2656 -0.0109
13438TIP3   OH261728   0.222   2.515   1.953 -0.2106  0.1217 -0.2285
13438TIP3    H161729   0.225   2.513   2.049 -0.1267 -2.4100 -0.2260
13438TIP3    H261730   0.274   2.440   1.925 -1.0130  0.2435 -2.2518
13439TIP3   OH261731   4.056   1.636  16.479  0.1332  0.1579 -0.1958
13439TIP3    H161732   3.989   1.699  16.506 -1.7733 -1.7226 -0.2920
13439TIP3    H261733   4.033   1.555  16.524  2.1514 -0.6727 -0.5397
13440TIP3   OH261734   4.336   4.509   2.356 -0.4552 -0.4743 -0.0988
13440TIP3    H161735   4.421   4.478   2.388 -0.3727  0.9916  1.2289
13440TIP3    H261736   4.282   4.430   2.351  0.5437 -1.2191  0.4925
13441TIP3   OH261737   5.227   5.856  13.242  0.4341  0.2468 -0.3753
13441TIP3    H161738   5.174   5.822  13.170  0.6897 -2.0634  0.4543
13441TIP3    H261739   5.263   5.938  13.209 -1.4694  0.5136 -1.9333
13442TIP3   OH261740   0.203   0.657   2.159  0.0731 -0.0335 -0.1388
13442TIP3    H161741   0.286   0.628   2.196 -0.6809  0.8809  2.4816
13442TIP3    H261742   0.200   0.751   2.175 -1.0113  0.1416 -1.1726
13443TIP3   OH261743   4.912   1.481  14.659  0.6737  0.4213 -0.0524
13443TIP3    H161744   4.944   1.461  14.571 -1.4573 -0.8250 -0.6102
13443TIP3    H261745   4.935   1.404  14.711 -0.2451  0.0764 -0.1462
13444TIP3   OH261746   6.661   2.979   5.655 -0.1009 -0.1755  0.2856
13444TIP3    H161747   6.579   2.962   5.609 -0.2265 -2.2399  1.1624
13444TIP3    H261748   6.701   2.892   5.664  1.5271  0.6275  1.0784
13445TIP3   OH261749   1.771   3.094   2.461 -0.5990 -0.4870  0.3224
13445TIP3    H161750   1.816   3.176   2.481 -0.7607 -0.8755  2.5566
13445TIP3    H261751   1.678   3.117   2.462 -0.6379 -0.6693  0.7578
13446TIP3   OH261752   0.910   3.849   2.584 -0.5819 -0.4584  0.3340
13446TIP3    H161753   0.833   3.893   2.547  0.1828 -0.0376 -0.8145
13446TIP3    H261754   0.953   3.809   2.509  0.0595 -1.1191  1.0355
13447TIP3   OH261755   2.287   5.760   4.856 -0.4671 -0.2254  0.3226
13447TIP3    H161756   2.234   5.787   4.930 -1.5858 -0.9047 -0.2070
13447TIP3    H261757   2.376   5.753   4.891 -0.8202  0.3673  1.3579
13448TIP3   OH261758   1.465   4.355  15.305 -0.7662  0.2063  0.4722
13448TIP3    H161759   1.491   4.264  15.296  0.0702  0.4122  0.7663
13448TIP3    H261760   1.482   4.393  15.218 -1.8637 -0.0882  0.1072
13449TIP3   OH261761   1.998   3.316   3.657 -0.4869  0.8102  0.0587
13449TIP3    H161762   1.987   3.410   3.669 -0.2265  0.9373 -0.6276
13449TIP3    H261763   2.092   3.304   3.647 -0.5564  0.5387 -0.3088
13450TIP3   OH261764   2.015   2.634   4.361 -0.1777 -0.1538 -0.2408
13450TIP3    H161765   2.014   2.629   4.457  0.0001 -0.7005 -0.2641
13450TIP3    H261766   1.972   2.717   4.341 -1.3371 -0.6096  0.2694
13451TIP3   OH261767   2.402   2.490   2.063  0.0529 -0.5054  0.0500
13451TIP3    H161768   2.482   2.534   2.036  0.4403 -1.5425 -0.5639
13451TIP3    H261769   2.359   2.551   2.123  2.0740 -0.5737  1.6691
13452TIP3   OH261770   0.818   5.847   6.201 -0.0911  0.3421 -0.4547
13452TIP3    H161771   0.868   5.899   6.265 -0.3038  0.7158 -0.5896
13452TIP3    H261772   0.727   5.857   6.229 -0.4345  2.2398 -1.9982
13453TIP3   OH261773   2.626   1.632   1.166 -0.6675 -0.0277 -0.2160
13453TIP3    H161774   2.700   1.591   1.122 -1.2703 -0.3137 -0.9821
13453TIP3    H261775   2.566   1.560   1.185 -0.8696  0.2379  0.1631
13454TIP3   OH261776   3.104   0.644   1.214  0.0280  0.2941 -0.0352
13454TIP3    H161777   3.103   0.680   1.302  1.9626  0.6245 -0.0850
13454TIP3    H261778   3.021   0.599   1.204 -0.7990  1.4203  1.4513
13455TIP3   OH261779   1.997   2.897   4.627 -0.1067 -0.0677  0.4117
13455TIP3    H161780   1.994   2.809   4.665 -0.5281 -0.1314  0.2435
13455TIP3    H261781   2.022   2.954   4.699  0.0871 -0.3133  0.5426
13456TIP3   OH261782   6.380   4.279   5.043  0.0662  0.3306 -0.6165
13456TIP3    H161783   6.433   4.294   5.121  0.5069 -2.0658 -0.3597
13456TIP3    H261784   6.293   4.310   5.067  0.3382  0.1828  0.6176
13457TIP3   OH261785   2.681   5.749  14.631  0.0650  0.1893  0.3791
13457TIP3    H161786   2.648   5.795  14.708 -0.2197  0.1064  0.3087
13457TIP3    H261787   2.709   5.819  14.572  0.9991  0.2370  0.8658
13458TIP3   OH261788   2.245   1.688  11.386 -0.5893  0.0242  0.5073
13458TIP3    H161789   2.268   1.602  11.422  0.7567  0.8679  1.7793
13458TIP3    H261790   2.169   1.715  11.437 -0.3461  0.0574  0.8530
13459TIP3   OH261791   2.629   1.367   4.551  0.3797 -0.1533 -0.0634
13459TIP3    H161792   2.567   1.348   4.621 -0.1364  0.6197 -0.3004
13459TIP3    H261793   2.648   1.281   4.512 -2.6472 -0.2027 -1.7434
13460TIP3   OH261794   5.136   5.784   2.712  0.5781 -0.1645  0.3243
13460TIP3    H161795   5.134   5.790   2.617 -0.9283 -0.6987  0.2971
13460TIP3    H261796   5.221   5.821   2.737  0.2689  1.5936 -1.0997
13461TIP3   OH261797   1.994   0.624  12.944  0.0157 -0.6884 -0.4698
13461TIP3    H161798   1.926   0.584  12.890  0.7038 -1.6283 -0.6690
13461TIP3    H261799   2.065   0.644  12.883  0.3685 -0.7709 -0.0953
13462TIP3   OH261800   0.372   5.730  11.965 -0.3872  0.0946 -0.3232
13462TIP3    H161801   0.364   5.675  11.887  1.2440 -0.1776 -0.3319
13462TIP3    H261802   0.359   5.820  11.933  2.0727  0.1815 -1.3169
13463TIP3   OH261803   4.921   5.734  13.918  0.0723 -0.1676 -0.2703
13463TIP3    H161804   4.947   5.741  14.010  0.2029  0.5264 -0.3552
13463TIP3    H261805   4.874   5.651  13.913  0.4420 -0.4213  0.3311
13464TIP3   OH261806   6.093   2.223   0.599 -0.4427 -0.5507  0.4812
13464TIP3    H161807   6.071   2.155   0.661 -1.9792 -0.7221 -0.2212
13464TIP3    H261808   6.114   2.299   0.653  0.9850 -1.4416  1.2580
13465TIP3   OH261809   1.896   0.682   4.840 -0.3858 -0.0910  0.3393
13465TIP3    H161810   1.906   0.719   4.753  0.7452  1.2085  0.9756
13465TIP3    H261811   1.831   0.737   4.883  1.2747  1.2354  1.2759
13466TIP3   OH261812   4.362   5.098   6.454 -0.3531  0.3506 -0.0461
13466TIP3    H161813   4.445   5.113   6.498  0.0549  0.8260 -0.9597
13466TIP3    H261814   4.321   5.184   6.450 -0.4059  0.3031 -0.5620
13467TIP3   OH261815   1.523   2.759  14.124  0.2862  0.2351  0.2585
13467TIP3    H161816   1.618   2.746  14.125  0.0114 -2.3089 -0.1573
13467TIP3    H261817   1.488   2.677  14.088 -2.0800  1.1181  0.3736
13468TIP3   OH261818   0.923   5.060   5.083  0.6144  0.1171  0.1413
13468TIP3    H161819   0.844   5.008   5.067 -0.1348  1.3871 -0.5184
13468TIP3    H261820   0.891   5.151   5.088  2.2415  0.9312 -2.3762
13469TIP3   OH261821   1.742   2.668   6.859 -0.1043 -0.1313  0.1600
13469TIP3    H161822   1.815   2.655   6.798  1.2588  0.5531  1.5686
13469TIP3    H261823   1.751   2.759   6.888 -0.0757 -0.7128  2.1093
13470TIP3   OH261824   0.166   4.434  14.220 -0.2471  0.4190  0.1454
13470TIP3    H161825   0.100   4.465  14.159 -0.7345 -0.1381  0.3819
13470TIP3    H261826   0.246   4.426  14.168 -1.1906 -2.3832 -1.0476
13471TIP3   OH261827   3.396   2.265   2.185  0.4292  0.1864 -0.2693
13471TIP3    H161828   3.491   2.268   2.172  0.5545  1.2105  0.7812
13471TIP3    H261829   3.384   2.208   2.261  0.1503 -0.4078 -0.7484
13472TIP3   OH261830   4.190   4.077  16.752 -0.6466  0.1607 -0.4966
13472TIP3    H161831   4.109   4.115  16.718 -0.1764  2.1102  0.4500
13472TIP3    H261832   4.190   3.988  16.718 -1.3764  1.2090 -3.6476
13473TIP3   OH261833   6.568   4.672  12.333  0.0856  0.4218 -0.0483
13473TIP3    H161834   6.590   4.764  12.351  0.2301  0.2770  0.5308
13473TIP3    H261835   6.634   4.622  12.381  0.2688  0.0185 -0.7173
13474TIP3   OH261836   4.104   0.121   3.953 -0.8908  0.3146  0.1326
13474TIP3    H161837   4.082   0.133   4.045  0.1802  0.6476  0.3548
13474TIP3    H261838   4.200   0.119   3.950 -0.9112 -0.3316 -0.8948
13475TIP3   OH261839   5.086   5.691  11.431 -0.5780  0.1183 -0.1267
13475TIP3    H161840   5.012   5.649  11.476 -0.9373  0.2194 -0.6216
13475TIP3    H261841   5.136   5.618  11.394 -1.2156  0.1153 -1.0082
13476TIP3   OH261842   0.574   6.737   5.218 -0.1355  0.5649 -0.1384
13476TIP3    H161843   0.596   6.829   5.235  0.0266  0.9003 -1.8901
13476TIP3    H261844   0.520   6.740   5.139 -2.2762 -0.6783  1.1964
13477TIP3   OH261845   5.677   4.085   2.046 -0.5774  0.6399  0.3804
13477TIP3    H161846   5.598   4.086   1.991  0.5400 -1.0825 -1.3731
13477TIP3    H261847   5.653   4.033   2.122 -1.4826  1.1626  0.4664
13478TIP3   OH261848   2.667   5.156  16.446  0.1424  0.2401 -0.0618
13478TIP3    H161849   2.738   5.175  16.384  0.6091  0.9078  0.6587
13478TIP3    H261850   2.708   5.108  16.517 -0.7556 -2.3158 -1.1318
13479TIP3   OH261851   1.603   1.858   1.788  0.5498 -0.0517 -0.0999
13479TIP3    H161852   1.649   1.933   1.828 -1.0864  1.7796 -1.4713
13479TIP3    H261853   1.638   1.782   1.835  1.8399  1.5864  1.8196
13480TIP3   OH261854   5.150   1.453  10.917 -0.3330 -0.4764 -0.4453
13480TIP3    H161855   5.172   1.378  10.972  0.3816 -0.2767 -0.4467
13480TIP3    H261856   5.197   1.437  10.835 -0.6165 -0.2940 -0.6461
13481TIP3   OH261857   2.881   5.998  13.514 -0.2079  0.2111 -0.2057
13481TIP3    H161858   2.928   5.999  13.597  1.2831  2.2128 -0.9876
13481TIP3    H261859   2.935   5.942  13.457  1.4267  2.5407 -1.1147
13482TIP3   OH261860   6.535   2.978   1.419 -0.1261  0.9763 -0.4182
13482TIP3    H161861   6.517   3.008   1.330  1.0423 -0.1103 -1.0464
13482TIP3    H261862   6.627   2.998   1.434  0.3934 -1.0955 -0.4298
13483TIP3   OH261863   0.133   4.277  10.775 -0.0077 -0.0725 -0.5636
13483TIP3    H161864   0.148   4.253  10.866 -2.6865  0.7409  0.1909
13483TIP3    H261865   0.059   4.222  10.748 -0.8155  1.4004 -1.4573
13484TIP3   OH261866   1.078   6.359  14.568  0.4552  0.0890  0.3269
13484TIP3    H161867   1.143   6.292  14.544  1.6457  1.4946 -0.5913
13484TIP3    H261868   1.122   6.442  14.550 -1.4351  1.1179  0.1678
13485TIP3   OH261869   5.267   4.093   6.226  0.6440  0.6215 -0.2413
13485TIP3    H161870   5.201   4.039   6.183  0.8688 -0.2995  0.5227
13485TIP3    H261871   5.216   4.162   6.270  0.1475 -0.2094  0.5312
13486TIP3   OH261872   5.272   4.233  16.739  0.4978  0.1891  0.3735
13486TIP3    H161873   5.281   4.326  16.718 -0.6248  0.5242  1.2995
13486TIP3    H261874   5.189   4.226  16.785 -0.6131 -1.6492 -1.6858
13487TIP3   OH261875   1.120   5.339   3.271 -0.2584  0.2249  0.0556
13487TIP3    H161876   1.082   5.279   3.335  0.9240  0.1506  0.7053
13487TIP3    H261877   1.062   5.416   3.272 -0.2159  0.2514  1.2614
13488TIP3   OH261878   1.066   6.569  14.012  0.1937  0.2697 -0.1431
13488TIP3    H161879   1.114   6.486  14.017  0.9688  0.6049 -1.5792
13488TIP3    H261880   0.983   6.551  14.056  0.7735 -0.9466  0.5160
13489TIP3   OH261881   5.561   6.439  13.756 -0.2047  0.3010  0.2654
13489TIP3    H161882   5.491   6.494  13.792 -1.8327 -1.9522  0.7399
13489TIP3    H261883   5.530   6.416  13.669 -0.2591 -1.0163  0.6186
13490TIP3   OH261884   5.724   1.099   5.629 -0.1691  0.2545  0.3770
13490TIP3    H161885   5.719   1.069   5.538  2.2579 -0.8942  0.5450
13490TIP3    H261886   5.642   1.068   5.669 -2.5526  3.0274 -1.9268
13491TIP3   OH261887   4.365   3.093  13.332  0.1705 -0.0428 -0.2491
13491TIP3    H161888   4.417   3.134  13.264 -0.4739 -0.4457 -1.0051
13491TIP3    H261889   4.427   3.077  13.404  0.4046  2.4164  0.1893
13492TIP3   OH261890   4.952   3.973  16.880 -1.2776 -0.8651  0.5715
13492TIP3    H161891   5.026   3.936  16.831 -0.6686 -0.2504  1.0083
13492TIP3    H261892   4.990   4.046  16.929 -2.2703 -0.2417  0.4404
13493TIP3   OH261893   0.548   3.354   2.451 -0.0077  0.3196 -0.1860
13493TIP3    H161894   0.545   3.278   2.508 -1.0159  0.2456 -0.3081
13493TIP3    H261895   0.497   3.421   2.498  0.5953  0.8132 -0.2239
13494TIP3   OH261896   4.229   1.315   4.133  0.1980  0.0922  0.3527
13494TIP3    H161897   4.186   1.397   4.159 -0.2016 -0.1378  0.4327
13494TIP3    H261898   4.323   1.333   4.140  0.1103  0.5598  0.3132
13495TIP3   OH261899   4.070   0.763   1.818  0.2597  0.4497 -0.3042
13495TIP3    H161900   4.116   0.739   1.738 -0.9127 -0.2876 -0.7737
13495TIP3    H261901   3.978   0.771   1.792 -0.2534 -0.4772  1.0880
13496TIP3   OH261902   1.668   6.668  15.374 -0.1269  0.0517  0.2900
13496TIP3    H161903   1.697   6.698  15.287  0.3610 -1.0058  0.0825
13496TIP3    H261904   1.613   6.593  15.356  0.4637 -0.5445  0.9270
13497TIP3   OH261905   0.808   4.331   2.438 -0.1359 -0.2227 -0.4006
13497TIP3    H161906   0.763   4.247   2.435 -0.2976 -0.1622  0.2622
13497TIP3    H261907   0.868   4.329   2.363  1.7864 -2.0274  1.0848
13498TIP3   OH261908   5.642   3.144   5.381  0.5120  0.1787 -0.1298
13498TIP3    H161909   5.617   3.126   5.290  0.2936  0.5779 -0.1508
13498TIP3    H261910   5.673   3.235   5.381 -0.8809  0.6915  0.4579
13499TIP3   OH261911   2.946   2.623   2.398 -0.0288 -0.4889  0.3928
13499TIP3    H161912   3.011   2.569   2.444 -0.0312 -1.6721 -0.9320
13499TIP3    H261913   2.902   2.673   2.468  0.1533 -2.0083  1.6389
13500TIP3   OH261914   2.958   4.343   3.987  0.0401 -0.4240 -0.6806
13500TIP3    H161915   2.992   4.390   3.911 -2.3750  1.9130 -0.4888
13500TIP3    H261916   2.994   4.390   4.062 -0.6019 -0.2461 -0.4692
13501TIP3   OH261917   4.624   2.712   0.466 -0.4981 -0.0299  0.3633
13501TIP3    H161918   4.598   2.796   0.427 -1.9583  0.2742  1.8981
13501TIP3    H261919   4.702   2.733   0.517 -0.8773  0.3990  0.7709
13502TIP3   OH261920   3.792   5.940   3.807  0.2611  0.4252 -0.0749
13502TIP3    H161921   3.828   5.891   3.733 -0.3984 -0.6533  0.3070
13502TIP3    H261922   3.776   6.028   3.771 -1.6407 -0.5180 -1.7434
13503TIP3   OH261923   2.667   2.683   0.572 -0.1775 -0.0450 -0.4339
13503TIP3    H161924   2.748   2.647   0.536 -0.0244 -0.7512  0.5519
13503TIP3    H261925   2.695   2.740   0.643 -0.5428 -0.5733  0.1484
13504TIP3   OH261926   0.482   5.383   2.387  0.0546 -0.2242  0.1312
13504TIP3    H161927   0.525   5.469   2.389  2.3184 -1.2813  0.7905
13504TIP3    H261928   0.412   5.393   2.324  0.9833  1.7958 -0.6830
13505TIP3   OH261929   2.526   1.685   3.371 -0.7771  0.3812 -0.0142
13505TIP3    H161930   2.483   1.758   3.327 -0.9481  1.2270  1.4804
13505TIP3    H261931   2.461   1.654   3.434  0.2528  0.7577  1.2834
13506TIP3   OH261932   5.009   1.803   3.859  0.1603  0.2904 -0.2649
13506TIP3    H161933   5.100   1.800   3.888 -0.4995 -0.8259  1.9328
13506TIP3    H261934   4.969   1.869   3.915 -0.8104 -0.7246  0.2808
13507TIP3   OH261935   0.296   2.166   2.222  0.6683  0.2858 -0.1772
13507TIP3    H161936   0.377   2.122   2.248  0.6929  1.5307  2.1332
13507TIP3    H261937   0.318   2.259   2.224 -1.3089  0.8260  2.8381
13508TIP3   OH261938   5.553   4.223  17.291  0.1071 -0.0676 -0.1432
13508TIP3    H161939   5.500   4.277  17.233 -1.9303  0.2940  1.8656
13508TIP3    H261940   5.508   4.138  17.291  1.4568 -0.8050 -0.8658
13509TIP3   OH261941   3.177   0.464  14.289 -0.4472  0.4805 -0.2357
13509TIP3    H161942   3.126   0.460  14.208  0.0121 -0.6067 -0.4880
13509TIP3    H261943   3.160   0.380  14.332  0.5631  0.3922  0.0153
13510TIP3   OH261944   4.803   1.662   2.223  0.2724  0.0413 -0.0396
13510TIP3    H161945   4.744   1.665   2.298  2.4555  1.3040  1.7567
13510TIP3    H261946   4.883   1.623   2.257  1.8690  2.0331 -1.2472
13511TIP3   OH261947   1.922   6.059  13.001 -0.1165 -0.5294 -0.7347
13511TIP3    H161948   2.018   6.057  13.000 -0.1112 -0.2550 -0.9102
13511TIP3    H261949   1.899   6.126  12.937 -0.3871  0.3732  0.2800
13512TIP3   OH261950   4.575   0.639  13.542  0.4031  0.1062 -0.8204
13512TIP3    H161951   4.577   0.576  13.470  2.4974  1.6253 -2.2169
13512TIP3    H261952   4.592   0.723  13.500 -0.4934  1.3737  1.2225
13513TIP3   OH261953   1.133   6.204   2.955  0.3749 -0.8158 -0.4881
13513TIP3    H161954   1.210   6.246   2.993 -0.7351 -0.0946  1.0312
13513TIP3    H261955   1.062   6.220   3.017 -1.8282  1.2838 -3.2527
13514TIP3   OH261956   2.834   6.406   6.681  0.1227  0.3164 -0.1229
13514TIP3    H161957   2.775   6.330   6.680  0.4020  0.1048 -0.6315
13514TIP3    H261958   2.906   6.379   6.738  0.1685  0.2410 -0.2165
13515TIP3   OH261959   5.722   1.596   5.492 -0.1946  0.4965  0.3028
13515TIP3    H161960   5.711   1.649   5.571 -0.2165 -0.7518  1.1503
13515TIP3    H261961   5.657   1.526   5.500  0.1646  0.0417 -0.5606
13516TIP3   OH261962   1.036   1.435  11.675 -0.2122  0.4378 -0.3880
13516TIP3    H161963   1.013   1.404  11.763  0.0903  3.4637  0.8786
13516TIP3    H261964   1.131   1.423  11.670  0.0276  1.7736  0.4232
13517TIP3   OH261965   1.981   1.976   1.260 -0.2957  0.1603  0.5188
13517TIP3    H161966   1.901   2.023   1.237 -1.5527 -2.9042 -2.1240
13517TIP3    H261967   2.044   2.002   1.192  0.3619  1.0294  1.4282
13518TIP3   OH261968   4.387   4.749  15.790 -0.4907  0.2772  0.0804
13518TIP3    H161969   4.392   4.748  15.886  1.4252  1.1429  0.0228
13518TIP3    H261970   4.442   4.822  15.764 -1.4185  0.3889 -1.6945
13519TIP3   OH261971   6.237   1.693  15.637  0.7239 -0.4697  0.4320
13519TIP3    H161972   6.288   1.696  15.556  2.3073  0.8134  1.4179
13519TIP3    H261973   6.158   1.644  15.614  0.1198  1.6307 -2.4129
13520TIP3   OH261974   1.614   3.286   3.951 -0.1342 -0.4549 -0.4581
13520TIP3    H161975   1.579   3.208   3.909 -0.7175 -0.6770  0.4147
13520TIP3    H261976   1.662   3.253   4.027 -1.3389  0.0783  0.5707
13521TIP3   OH261977   2.435   2.769   3.704  0.0657 -0.2286 -0.0404
13521TIP3    H161978   2.377   2.727   3.767  0.0930  2.3431  1.8730
13521TIP3    H261979   2.377   2.822   3.649  0.3829  0.6432  0.4488
13522TIP3   OH261980   3.036   2.978   5.217  0.0916  0.1575  0.3484
13522TIP3    H161981   3.062   3.011   5.131 -2.4050  1.2886 -0.0431
13522TIP3    H261982   3.114   2.989   5.271  1.1450  1.1727 -1.2904
13523TIP3   OH261983   6.122   5.519  16.048  0.3385  0.1827  0.0799
13523TIP3    H161984   6.092   5.569  15.972  0.3262  0.5631  0.3328
13523TIP3    H261985   6.050   5.523  16.110  0.2953 -0.2407  0.0634
13524TIP3   OH261986   6.152   0.794  16.124  0.1608 -0.8761 -0.1047
13524TIP3    H161987   6.108   0.724  16.173 -0.6757 -0.0980  0.2923
13524TIP3    H261988   6.096   0.870  16.137  0.4685 -0.3984 -1.4501
13525TIP3   OH261989   2.491   2.794   1.153  0.4937  0.4014  0.4427
13525TIP3    H161990   2.568   2.738   1.152  1.4077  1.5597 -1.3979
13525TIP3    H261991   2.430   2.753   1.090  0.8385  1.0101 -0.3060
13526TIP3   OH261992   0.890   5.513   4.198  0.0629 -0.2730  0.5122
13526TIP3    H161993   0.819   5.568   4.165  0.0374  0.2119  1.3541
13526TIP3    H261994   0.846   5.443   4.245  0.0775 -1.2897 -0.9054
13527TIP3   OH261995   6.509   4.277   0.218  0.3084 -0.5739 -0.6976
13527TIP3    H161996   6.529   4.306   0.129 -0.9112 -1.3846 -1.2612
13527TIP3    H261997   6.529   4.184   0.219 -0.2308 -0.6937 -0.3001
13528TIP3   OH261998   6.176   1.895   4.106  0.1943 -0.2862 -0.1047
13528TIP3    H161999   6.090   1.935   4.092  0.0031  0.3354  2.3181
13528TIP3    H262000   6.165   1.845   4.187  2.2043  0.0965  0.4438
13529TIP3   OH262001   6.563   4.253  13.212  0.8112  0.2249 -0.0569
13529TIP3    H162002   6.579   4.160  13.231  0.4575 -0.0547 -1.0418
13529TIP3    H262003   6.630   4.276  13.148  0.6067  0.5126 -0.1690
13530TIP3   OH262004   2.224   0.046   5.417  0.2267 -0.9670  0.1821
13530TIP3    H162005   2.144   0.072   5.371  1.9574  0.8099 -2.0203
13530TIP3    H262006   2.202   0.058   5.510 -1.8269  0.1726 -0.3859
13531TIP3   OH262007   6.132   2.406   3.853 -0.3322  0.5633 -0.3597
13531TIP3    H162008   6.180   2.476   3.897  0.0511  1.4050 -2.0143
13531TIP3    H262009   6.045   2.408   3.891 -0.0371  1.3108  0.2886
13532TIP3   OH262010   2.873   4.203  17.142 -0.7511 -0.4229 -0.9766
13532TIP3    H162011   2.966   4.183  17.127 -0.2247  0.7836  0.4069
13532TIP3    H262012   2.838   4.122  17.179 -0.9679 -1.8219 -3.9454
13533TIP3   OH262013   4.888   4.602  15.947  0.1724  0.1779 -0.6237
13533TIP3    H162014   4.830   4.627  15.875 -0.8806 -2.5118 -0.8032
13533TIP3    H262015   4.936   4.527  15.914  1.2121  0.1858  0.7870
13534TIP3   OH262016   2.107   3.266   0.057 -0.6578 -0.5954 -0.0553
13534TIP3    H162017   2.023   3.295   0.092  0.2842  0.4911  1.4232
13534TIP3    H262018   2.168   3.273   0.131  0.6388 -1.8653 -0.9371
13535TIP3   OH262019   5.974   2.944   2.159  0.5317 -0.0053 -0.0436
13535TIP3    H162020   6.027   2.953   2.080 -1.0275 -0.9962 -1.2578
13535TIP3    H262021   5.891   2.986   2.138 -0.4203 -1.5171  0.5103
13536TIP3   OH262022   3.933   1.586  14.174  0.1324  0.2482 -0.5400
13536TIP3    H162023   3.895   1.653  14.230 -3.0198 -2.1656  0.5215
13536TIP3    H262024   3.888   1.596  14.090 -0.8346 -0.8118 -0.1832
13537TIP3   OH262025   0.357   6.721  11.257  0.5847  0.3073  0.5742
13537TIP3    H162026   0.403   6.797  11.221  2.3182  0.1039  2.1967
13537TIP3    H262027   0.326   6.673  11.180  0.7889  1.8444 -0.5165
13538TIP3   OH262028   2.295   4.394   1.691  0.3401  0.3733  0.1334
13538TIP3    H162029   2.346   4.357   1.619 -0.0373 -0.8296  0.4608
13538TIP3    H262030   2.302   4.488   1.678  1.5949  0.2195 -0.5535
13539TIP3   OH262031   4.643   2.697  11.696  0.0943  1.4256  0.2538
13539TIP3    H162032   4.599   2.673  11.778 -0.5379  0.2139 -0.4161
13539TIP3    H262033   4.663   2.790  11.706  2.1499  0.8349  2.7526
13540TIP3   OH262034   3.823   3.111   4.019  0.1570  0.0392 -0.1432
13540TIP3    H162035   3.792   3.072   3.937  1.5022  0.9256 -1.1340
13540TIP3    H262036   3.840   3.203   3.996  0.8531  0.2293  1.0596
13541TIP3   OH262037   3.091   6.160  11.825  0.1369 -0.4861 -0.0479
13541TIP3    H162038   3.033   6.087  11.846 -0.6529 -0.1715 -1.0796
13541TIP3    H262039   3.172   6.118  11.794  0.1388 -0.9173  0.5237
13542TIP3   OH262040   5.501   4.196   2.651 -0.4512 -0.0013 -0.2034
13542TIP3    H162041   5.595   4.210   2.637 -0.3926 -0.7084 -0.5516
13542TIP3    H262042   5.458   4.256   2.591 -0.2111 -0.8744 -1.2735
13543TIP3   OH262043   0.701   4.158  11.965 -0.0631 -0.4970  0.4010
13543TIP3    H162044   0.665   4.072  11.943 -2.0012 -0.1808  2.0682
13543TIP3    H262045   0.795   4.150  11.946 -0.2082 -2.9086  0.3577
13544TIP3   OH262046   2.615   1.969   3.231  0.0103  0.0742 -0.4420
13544TIP3    H162047   2.545   1.922   3.186  0.3038  0.8987 -1.7899
13544TIP3    H262048   2.611   2.058   3.197  2.2540 -0.0574 -1.1993
13545TIP3   OH262049   0.659   0.219  16.712  0.1605 -0.0539  0.2627
13545TIP3    H162050   0.662   0.235  16.806 -1.6497  0.8850  0.1993
13545TIP3    H262051   0.653   0.306  16.673 -1.6401 -0.4966 -0.5545
13546TIP3   OH262052   1.757   1.944  14.825  0.3835 -0.4412  0.0258
13546TIP3    H162053   1.712   1.894  14.757  1.3862  0.2753 -1.2173
13546TIP3    H262054   1.695   2.014  14.847 -0.3299 -1.2099  0.5625
13547TIP3   OH262055   2.426   0.799  12.481 -0.1087  0.7694 -0.0486
13547TIP3    H162056   2.419   0.853  12.559  0.8551  0.0355  0.5709
13547TIP3    H262057   2.439   0.710  12.515 -0.8358  0.2665 -1.0423
13548TIP3   OH262058   5.589   2.253  16.918 -0.6016 -0.2000 -0.2738
13548TIP3    H162059   5.576   2.300  16.836  1.1802  0.5401 -0.1704
13548TIP3    H262060   5.674   2.210  16.908 -0.4445 -0.2456  1.1078
13549TIP3   OH262061   5.143   5.536   0.220  0.5417  0.2628 -0.3495
13549TIP3    H162062   5.157   5.475   0.148  0.6520  0.7440 -0.7422
13549TIP3    H262063   5.176   5.490   0.298  0.6586 -0.1567 -0.6435
13550TIP3   OH262064   2.683   3.114   5.019  0.0759  0.1247 -0.0333
13550TIP3    H162065   2.744   3.042   5.004 -1.9469 -1.2963 -2.0817
13550TIP3    H262066   2.610   3.074   5.067 -0.4924  1.1198 -0.0496
13551TIP3   OH262067   1.062   0.124  14.499  0.3022 -0.1208  0.1083
13551TIP3    H162068   1.091   0.213  14.519 -1.5565  0.2577  1.4460
13551TIP3    H262069   1.001   0.103  14.570  0.4281 -2.3421 -0.3779
13552TIP3   OH262070   6.664   2.527  11.894 -0.5174  0.2985  0.7661
13552TIP3    H162071   6.606   2.589  11.850 -1.1120  1.0268  2.4714
13552TIP3    H262072   6.708   2.579  11.962  0.6947 -0.6678  0.7611
13553TIP3   OH262073   3.050   0.004  11.122  0.0326 -0.2112 -0.1034
13553TIP3    H162074   3.104  -0.021  11.047 -1.1994 -1.4506 -0.6197
13553TIP3    H262075   3.113   0.021  11.192  1.1917  0.7575 -1.3367
13554TIP3   OH262076   6.564   4.603   5.132 -0.0445 -0.0793 -0.1232
13554TIP3    H162077   6.554   4.534   5.198 -0.1589 -1.4896 -1.5432
13554TIP3    H262078   6.647   4.583   5.088  0.1749  0.9984 -0.2328
13555TIP3   OH262079   5.320   6.501   1.143 -0.9751  0.5181  0.2237
13555TIP3    H162080   5.281   6.527   1.227 -2.5229 -1.0179  0.0384
13555TIP3    H262081   5.271   6.423   1.117 -0.2822  0.7413 -1.9484
13556TIP3   OH262082   6.013   5.941   4.312 -0.1679  0.2334 -0.3122
13556TIP3    H162083   6.086   5.905   4.261  1.5123  0.7191  1.5888
13556TIP3    H262084   5.998   6.027   4.274 -0.1539 -0.0834 -1.0704
13557TIP3   OH262085   5.772   6.020  11.581 -0.1571 -0.7481 -0.1110
13557TIP3    H162086   5.716   5.943  11.566  0.4338 -0.7972 -2.4971
13557TIP3    H262087   5.798   6.048  11.493  1.8179  0.5823  0.8218
13558TIP3   OH262088   1.503   0.905  15.684 -0.2149  0.3893 -0.6516
13558TIP3    H162089   1.498   0.811  15.670  0.3163  0.5978 -2.5375
13558TIP3    H262090   1.476   0.943  15.600 -0.3590  1.9168  0.0560
13559TIP3   OH262091   3.580   2.028   3.095  0.3175 -0.0502  0.2662
13559TIP3    H162092   3.515   1.969   3.057 -0.6480 -0.3895  2.3215
13559TIP3    H262093   3.528   2.097   3.136  1.1417 -0.6743  2.5285
13560TIP3   OH262094   4.315   3.203  12.893 -0.2851  0.5929 -0.2650
13560TIP3    H162095   4.242   3.150  12.923 -1.6666  2.4555 -0.1377
13560TIP3    H262096   4.376   3.203  12.967  0.1055 -1.3201 -0.5327
13561TIP3   OH262097   1.255   2.361  10.511 -0.2102 -0.4637  0.6629
13561TIP3    H162098   1.215   2.308  10.441  1.9253 -1.8374  0.3833
13561TIP3    H262099   1.259   2.302  10.586 -0.7060  0.3776  1.3699
13562TIP3   OH262100   4.997   4.846   1.955  0.0190 -0.2775 -0.5229
13562TIP3    H162101   4.975   4.799   2.035 -0.6537 -2.5401 -1.9277
13562TIP3    H262102   5.077   4.802   1.924  1.8393  2.2957  0.1765
13563TIP3   OH262103   3.261   4.268   1.719  0.2432  0.2568  0.9883
13563TIP3    H162104   3.245   4.360   1.702  1.0158  0.3313  0.6008
13563TIP3    H262105   3.347   4.266   1.762  0.0601 -0.2504  1.3451
13564TIP3   OH262106   4.193   6.720  13.191 -0.0995  0.1771  0.3661
13564TIP3    H162107   4.285   6.708  13.215 -0.2663 -1.3059  0.3329
13564TIP3    H262108   4.191   6.713  13.096  0.0284  2.3774  0.1474
13565TIP3   OH262109   0.676   1.466   1.088  0.3312 -0.4530  0.4039
13565TIP3    H162110   0.713   1.460   1.000  1.3491  3.8183  0.3389
13565TIP3    H262111   0.720   1.397   1.137  3.1279 -0.0957 -1.4066
13566TIP3   OH262112   1.426   6.129   5.589 -0.0270 -0.1813  0.0784
13566TIP3    H162113   1.336   6.097   5.589  0.3468 -1.2944  0.8359
13566TIP3    H262114   1.419   6.221   5.565 -1.3824 -0.2054  0.3198
13567TIP3   OH262115   0.012   3.484   5.365 -0.5479 -0.0081 -0.2727
13567TIP3    H162116  -0.070   3.457   5.406 -0.4538 -0.8099 -0.5801
13567TIP3    H262117   0.080   3.452   5.425 -0.4636  1.0204  0.1905
13568TIP3   OH262118   6.467   1.236   1.820 -0.4864  0.6588 -0.1927
13568TIP3    H162119   6.561   1.241   1.836 -0.5517 -0.5926  0.7343
13568TIP3    H262120   6.430   1.307   1.873 -0.2078 -0.0343  0.9806
13569TIP3   OH262121   6.555   4.027  12.149 -0.2871  0.0993 -0.8038
13569TIP3    H162122   6.500   3.949  12.149  0.9774 -0.8592  1.0191
13569TIP3    H262123   6.644   3.994  12.160  0.4011  1.7394 -1.1316
13570TIP3   OH262124   0.906   4.756  10.505 -0.3485  0.0199  0.1570
13570TIP3    H162125   0.979   4.797  10.552  0.2405  1.5789 -1.9687
13570TIP3    H262126   0.948   4.688  10.452 -0.4422  0.7807 -0.9122
13571TIP3   OH262127   3.087   0.255   2.140  0.2361 -0.6382 -0.2296
13571TIP3    H162128   3.041   0.173   2.120 -0.3998 -0.3207 -0.0952
13571TIP3    H262129   3.129   0.279   2.058  0.9544 -1.4177 -0.1143
13572TIP3   OH262130   2.983   5.086  15.581 -0.3177 -0.1372 -0.4353
13572TIP3    H162131   3.043   5.158  15.603 -0.5733 -0.3095  0.9686
13572TIP3    H262132   2.966   5.043  15.665 -2.0431 -0.3722 -0.8609
13573TIP3   OH262133   3.337   2.427  12.752  0.6712 -0.1783 -0.2518
13573TIP3    H162134   3.313   2.519  12.761 -0.4595 -0.5139  0.3595
13573TIP3    H262135   3.254   2.380  12.758  1.0940 -1.1724 -1.8441
13574TIP3   OH262136   6.568   1.115   2.994  0.1649 -0.3079  0.1182
13574TIP3    H162137   6.533   1.031   3.025  0.7085 -1.4860 -2.1655
13574TIP3    H262138   6.492   1.159   2.956  0.2520 -0.7937 -0.6579
13575TIP3   OH262139   2.893   4.774   0.744  0.3102  0.3068  0.6028
13575TIP3    H162140   2.965   4.751   0.802  0.0722 -2.1824  0.0052
13575TIP3    H262141   2.918   4.859   0.707  3.0280 -0.5316  0.2979
13576TIP3   OH262142   5.097   4.225  13.579 -0.1508 -1.0702 -0.8207
13576TIP3    H162143   5.175   4.265  13.540 -0.6091 -0.8012 -1.4905
13576TIP3    H262144   5.040   4.206  13.504 -1.4566  0.3086 -0.2402
13577TIP3   OH262145   2.351   4.148  11.219 -0.1253  0.9297  0.1492
13577TIP3    H162146   2.366   4.183  11.307  0.5475 -1.1548  0.9261
13577TIP3    H262147   2.435   4.156  11.175  0.5003 -0.9852  0.8672
13578TIP3   OH262148   3.326   3.671   5.092 -0.5067 -0.4339  0.0576
13578TIP3    H162149   3.402   3.719   5.059  0.2336 -2.3014 -1.1510
13578TIP3    H262150   3.339   3.668   5.187  0.6392 -0.2519 -0.0753
13579TIP3   OH262151   4.682   4.816  12.017 -0.3367  0.1117  0.4492
13579TIP3    H162152   4.719   4.809  11.929 -0.5264  0.0375  0.3743
13579TIP3    H262153   4.587   4.819  12.003 -0.3265  3.4125  0.3887
13580TIP3   OH262154   4.852   5.252   2.408 -0.6043 -0.7559  0.5084
13580TIP3    H162155   4.816   5.339   2.423  1.1524 -0.2447  2.2482
13580TIP3    H262156   4.793   5.193   2.456 -0.7117 -0.2902  0.9531
13581TIP3   OH262157   4.067   3.921   1.199  0.5578 -0.6074  0.0568
13581TIP3    H162158   4.148   3.969   1.178 -0.1371  0.3280 -0.5692
13581TIP3    H262159   4.097   3.845   1.249  1.6071  1.0577  2.1324
13582TIP3   OH262160   0.226   3.771  11.652  0.4192 -0.4576 -0.3302
13582TIP3    H162161   0.258   3.818  11.575  0.3893  1.4338  0.7460
13582TIP3    H262162   0.169   3.703  11.617  1.1193 -0.2092 -2.0092
13583TIP3   OH262163   2.370   3.255   2.956  0.1958 -0.2589 -0.3229
13583TIP3    H162164   2.425   3.187   2.919  1.6849  1.0775 -0.6585
13583TIP3    H262165   2.290   3.254   2.903 -0.8315 -3.2203  1.1020
13584TIP3   OH262166   6.397   4.791  16.746  0.2499  0.3727  0.1180
13584TIP3    H162167   6.478   4.751  16.715 -0.1811 -0.2667 -0.1993
13584TIP3    H262168   6.421   4.881  16.767  0.7941  0.5167 -1.0437
13585TIP3   OH262169   4.845   2.913  14.640  0.2809 -0.4036 -0.0474
13585TIP3    H162170   4.901   2.966  14.697  1.8995 -0.5727 -1.3864
13585TIP3    H262171   4.901   2.891  14.565 -0.7013 -2.9558 -0.1512
13586TIP3   OH262172   1.474   2.427   6.442 -0.5141 -0.0290 -0.1353
13586TIP3    H162173   1.476   2.332   6.457 -1.6780  0.1552  1.5702
13586TIP3    H262174   1.521   2.440   6.360  0.0156 -2.0400 -0.1989
13587TIP3   OH262175   2.870   5.989   4.324 -0.9418  0.0743  0.1274
13587TIP3    H162176   2.863   5.934   4.401 -2.6046  0.9919  0.6785
13587TIP3    H262177   2.780   6.010   4.301 -0.4425  0.6058 -1.5002
13588TIP3   OH262178   6.161   2.140   6.294  0.1937 -0.0073 -0.1177
13588TIP3    H162179   6.222   2.212   6.311 -1.0106  1.4143 -1.5252
13588TIP3    H262180   6.215   2.071   6.255  1.0403  0.9340 -0.6630
13589TIP3   OH262181   5.725   1.984   5.495 -0.5690  0.1681  0.3289
13589TIP3    H162182   5.819   1.966   5.484 -0.2470  1.3984  0.9633
13589TIP3    H262183   5.694   1.916   5.554  0.1613  0.3849  0.9719
13590TIP3   OH262184   1.180   2.545  16.576 -0.2138  0.0764  0.4778
13590TIP3    H162185   1.147   2.614  16.519 -1.4646 -1.6287 -0.9491
13590TIP3    H262186   1.168   2.580  16.665 -1.4949  1.3998 -0.1765
13591TIP3   OH262187   5.533   2.056  15.349 -0.2308 -0.0508  0.3424
13591TIP3    H162188   5.451   2.085  15.309 -0.4585 -1.3801 -0.1984
13591TIP3    H262189   5.596   2.057  15.277  0.2452  0.9831  0.7610
13592TIP3   OH262190   4.306   2.089   3.305 -0.0811 -0.2853  0.4928
13592TIP3    H162191   4.324   2.182   3.296  0.5614 -0.2800  1.6981
13592TIP3    H262192   4.369   2.058   3.370 -0.9687 -1.3492  0.8772
13593TIP3   OH262193   4.682   0.099  16.090 -0.1553 -0.4805  0.0052
13593TIP3    H162194   4.675   0.125  16.183  0.6827  0.4222 -0.1698
13593TIP3    H262195   4.675   0.182  16.042 -0.1020 -0.8927 -0.7266
13594TIP3   OH262196   6.030   1.078   3.924 -0.2093 -0.1447  0.3556
13594TIP3    H162197   6.049   1.040   3.839 -1.1701 -1.0208  0.5093
13594TIP3    H262198   5.963   1.144   3.907  2.4082  2.6188 -0.1190
13595TIP3   OH262199   2.000   4.407  11.287 -0.5607 -0.2584  0.0876
13595TIP3    H162200   1.984   4.469  11.216  0.8256 -1.8075 -1.6677
13595TIP3    H262201   1.916   4.401  11.333 -2.2562 -0.8962 -2.8059
13596TIP3   OH262202   2.020   6.192   0.444 -0.1841 -0.0398 -0.3029
13596TIP3    H162203   2.007   6.119   0.505 -2.0074  0.3098 -0.2458
13596TIP3    H262204   1.984   6.161   0.361  0.8807  0.0662 -0.8256
13597TIP3   OH262205   2.049   1.504   3.006  0.0617 -0.5304 -0.6600
13597TIP3    H162206   2.014   1.544   2.926  0.4650  2.4114  0.5142
13597TIP3    H262207   2.143   1.522   3.002  0.0386 -0.0688  0.6153
13598TIP3   OH262208   3.278   4.597  17.247  0.4274  0.1214  0.1383
13598TIP3    H162209   3.259   4.682  17.287 -0.3184 -0.3903  0.9071
13598TIP3    H262210   3.206   4.583  17.186  0.3154 -0.1467  0.3287
13599TIP3   OH262211   0.805   1.485  15.524 -0.0372 -0.5019  0.3450
13599TIP3    H162212   0.719   1.525  15.541  0.4488  0.6250  0.2235
13599TIP3    H262213   0.790   1.391  15.536 -1.0893 -0.2513  1.1416
13600TIP3   OH262214   6.164   1.361  11.774 -0.3776 -0.2567 -0.6296
13600TIP3    H162215   6.218   1.427  11.730  1.4114 -0.5699  0.9616
13600TIP3    H262216   6.094   1.411  11.815  0.0503  0.4642 -0.7562
13601TIP3   OH262217   0.826   2.797   3.668  0.4608  0.6542 -0.1280
13601TIP3    H162218   0.861   2.852   3.598 -1.0075  0.9456 -0.6836
13601TIP3    H262219   0.858   2.709   3.648  0.0056  0.7214 -1.2407
13602TIP3   OH262220   0.601   1.555  10.655 -0.0439  0.4876 -0.1211
13602TIP3    H162221   0.564   1.550  10.567  2.0024 -0.1271 -1.0062
13602TIP3    H262222   0.687   1.515  10.647  0.0724  0.1173  2.2540
13603TIP3   OH262223   4.083   6.186  14.477  0.0191  0.2798  0.0527
13603TIP3    H162224   4.105   6.206  14.386 -1.6307 -0.7829 -0.6318
13603TIP3    H262225   4.136   6.110  14.498  0.1405  0.3060 -0.1523
13604TIP3   OH262226   1.066   6.086   5.988 -0.0100  0.2287 -0.5612
13604TIP3    H162227   1.130   6.103   6.056 -0.1360 -0.7365 -0.1806
13604TIP3    H262228   0.983   6.116   6.024 -0.0158  0.0580 -0.4297
13605TIP3   OH262229   3.383   3.495   0.555  0.9724 -0.0954  0.7811
13605TIP3    H162230   3.346   3.583   0.561  2.2598  0.5993 -0.7359
13605TIP3    H262231   3.433   3.496   0.474  2.8553 -1.5234  1.8430
13606TIP3   OH262232   0.055   1.417   2.399 -0.4320 -0.4702 -0.1204
13606TIP3    H162233   0.132   1.420   2.342  0.2162  0.8851  0.7523
13606TIP3    H262234   0.068   1.490   2.460 -1.2062 -1.7117  1.6122
13607TIP3   OH262235   4.530   4.268  11.848 -0.0191 -0.3521  0.2969
13607TIP3    H162236   4.612   4.228  11.818  0.0387 -0.5583  0.7208
13607TIP3    H262237   4.492   4.306  11.769 -0.4972 -1.9874 -0.3005
13608TIP3   OH262238   2.838   4.760  16.931 -0.2876  0.1040  0.5462
13608TIP3    H162239   2.787   4.704  16.990 -1.3414  0.5320  0.0662
13608TIP3    H262240   2.809   4.849  16.951 -1.5543  0.1877 -1.3913
13609TIP3   OH262241   4.899   1.894  16.118  0.0590  0.0931  0.1590
13609TIP3    H162242   4.930   1.977  16.155  1.1736 -1.4017  2.9294
13609TIP3    H262243   4.977   1.839  16.115 -1.0384 -1.5880  0.7130
13610TIP3   OH262244   6.086   3.340  11.882  0.1336  0.3804 -0.4537
13610TIP3    H162245   5.996   3.312  11.866  0.3148 -1.8285  1.8348
13610TIP3    H262246   6.077   3.427  11.920 -0.8304  1.1320 -2.2586
13611TIP3   OH262247   5.529   3.748  10.482  0.5148 -0.4492  0.6886
13611TIP3    H162248   5.447   3.726  10.438  0.4714 -3.2860  1.9447
13611TIP3    H262249   5.517   3.837  10.514 -0.8243  0.3544 -1.7918
13612TIP3   OH262250   6.218   2.992   2.978  0.2914  0.7166  0.7131
13612TIP3    H162251   6.288   2.931   3.000  0.3290  0.7804  0.7695
13612TIP3    H262252   6.145   2.936   2.951  0.4512  0.6584  0.3937
13613TIP3   OH262253   0.845   3.926   4.200  0.7387 -0.0000  0.5074
13613TIP3    H162254   0.784   3.909   4.271  1.3315 -2.0021  0.6111
13613TIP3    H262255   0.926   3.952   4.244  0.2856  1.6831  0.4076
13614TIP3   OH262256   2.448   0.639  17.189 -0.0080 -0.0728  0.3617
13614TIP3    H162257   2.479   0.713  17.136  1.4723 -0.2041  1.0112
13614TIP3    H262258   2.390   0.679  17.254  0.7222  0.5164  0.6584
13615TIP3   OH262259   1.223   0.576  12.870  0.0264 -0.4617 -0.0486
13615TIP3    H162260   1.242   0.524  12.948  1.7194  1.3689  0.8516
13615TIP3    H262261   1.138   0.616  12.887 -0.0043 -0.7418  0.4695
13616TIP3   OH262262   6.082   6.009   5.598 -0.0892 -0.0285 -0.1160
13616TIP3    H162263   6.093   5.942   5.530  3.2641  0.1480  0.0818
13616TIP3    H262264   6.079   6.092   5.550 -2.2410 -0.1174 -0.2321
13617TIP3   OH262265   5.493   4.229   4.727 -0.2738  0.0554 -0.2241
13617TIP3    H162266   5.540   4.181   4.659  0.8834  0.8460 -0.0160
13617TIP3    H262267   5.422   4.171   4.753 -0.8359 -0.2035 -2.2002
13618TIP3   OH262268   6.052   3.656  14.983  0.1159  0.2713  0.3119
13618TIP3    H162269   5.959   3.676  14.982  0.0192 -0.1455  0.6621
13618TIP3    H262270   6.085   3.690  14.900 -0.4977 -0.3049 -0.1746
13619TIP3   OH262271   3.942   4.205   3.779  0.3686  0.1222 -0.5477
13619TIP3    H162272   3.871   4.185   3.839  0.1817  2.4230  0.1022
13619TIP3    H262273   3.925   4.295   3.750  1.6916 -0.1260 -2.2769
13620TIP3   OH262274   5.647   5.465  16.895 -0.4848  0.1283  0.7756
13620TIP3    H162275   5.571   5.502  16.940 -1.0342 -0.8084  0.6494
13620TIP3    H262276   5.718   5.526  16.914 -1.8016  2.5274 -1.2465
13621TIP3   OH262277   6.039   2.869  12.847 -0.1953 -0.4920  0.1133
13621TIP3    H162278   5.982   2.901  12.777  0.4792 -1.3609 -0.8807
13621TIP3    H262279   5.982   2.860  12.923 -0.7488  1.4189 -0.0104
13622TIP3   OH262280   5.965   4.317  14.896 -0.5559  0.5227  0.0986
13622TIP3    H162281   6.052   4.314  14.935  0.8627 -1.9912 -2.8790
13622TIP3    H262282   5.956   4.407  14.865  0.5196  1.0670  1.2438
13623TIP3   OH262283   3.400   3.727  12.542 -0.4321  0.0811 -0.2190
13623TIP3    H162284   3.375   3.797  12.481 -0.6805 -0.1232 -0.3568
13623TIP3    H262285   3.416   3.651  12.485 -1.2253 -0.2689  0.0095
13624TIP3   OH262286   5.197   2.791   1.532  0.2467 -0.7929 -0.5240
13624TIP3    H162287   5.108   2.806   1.499 -0.3539 -0.0997  1.2821
13624TIP3    H262288   5.254   2.814   1.458 -1.0037  0.6894 -1.0743
13625TIP3   OH262289   4.246   2.778   2.291  0.1251  0.2085 -0.2074
13625TIP3    H162290   4.262   2.812   2.202 -1.0152 -0.3027 -0.6284
13625TIP3    H262291   4.169   2.826   2.321 -0.2846 -0.5548 -0.0144
13626TIP3   OH262292   0.619   1.029   4.334  0.6801  0.1378 -0.1108
13626TIP3    H162293   0.644   0.938   4.319  0.6589  0.0109  0.5828
13626TIP3    H262294   0.529   1.034   4.303  1.0515  0.2278 -1.2464
13627TIP3   OH262295   0.605   5.486   4.300 -0.1532  0.2609 -0.6665
13627TIP3    H162296   0.537   5.422   4.320  0.8997 -0.5895  0.2697
13627TIP3    H262297   0.600   5.497   4.205 -2.7909  1.6213 -0.4782
13628TIP3   OH262298   5.759   6.447   5.738  0.0412  0.5287 -0.4790
13628TIP3    H162299   5.738   6.541   5.741 -1.2224  0.2806 -0.7627
13628TIP3    H262300   5.673   6.404   5.737  0.6074 -0.6533  0.1578
13629TIP3   OH262301   5.737   1.542  16.515 -0.4425  0.6090 -0.4101
13629TIP3    H162302   5.655   1.591  16.517  1.0211  3.2416  1.4591
13629TIP3    H262303   5.736   1.491  16.596 -0.4604  0.1893 -0.6714
13630TIP3   OH262304   1.714   0.715  12.594  0.3430 -0.2325 -0.0197
13630TIP3    H162305   1.729   0.746  12.505  0.2015 -1.3438 -0.4537
13630TIP3    H262306   1.619   0.722  12.606  0.4913  1.1776  0.5536
13631TIP3   OH262307   0.786   1.326  17.142 -0.0490 -0.6574  0.3149
13631TIP3    H162308   0.854   1.374  17.190  0.6444 -1.5296  0.2148
13631TIP3    H262309   0.780   1.371  17.058 -1.1412  0.7724  1.0962
13632TIP3   OH262310   4.678   5.788   2.108  0.5933 -0.0293 -0.1546
13632TIP3    H162311   4.749   5.741   2.066  0.3593  0.6637 -1.3726
13632TIP3    H262312   4.690   5.772   2.202  1.8053 -0.6585 -0.4052
13633TIP3   OH262313   2.368   1.888  11.147 -0.1971  0.4745  0.2457
13633TIP3    H162314   2.285   1.884  11.195 -0.0257  1.3450  0.6352
13633TIP3    H262315   2.435   1.878  11.214  0.0227 -0.2463 -0.0705
13634TIP3   OH262316   0.600   5.383  17.268  0.5562 -0.1494 -0.3223
13634TIP3    H162317   0.641   5.332  17.338 -0.5488 -0.5627  0.0411
13634TIP3    H262318   0.535   5.437  17.313  0.3165  0.1011 -0.9599
13635TIP3   OH262319   4.159   5.443  12.105  0.3720 -0.1263 -0.2424
13635TIP3    H162320   4.095   5.382  12.069 -1.0608  0.6842  0.7790
13635TIP3    H262321   4.132   5.529  12.071  1.0976  0.1982 -0.0223
13636TIP3   OH262322   6.574   3.193  13.934  0.2616  0.0901 -0.6821
13636TIP3    H162323   6.592   3.271  13.986  0.8445 -1.5742  1.8406
13636TIP3    H262324   6.499   3.152  13.977 -0.7450 -0.2063 -2.6193
13637TIP3   OH262325   4.918   6.701   3.588  0.3943  0.1377  0.1561
13637TIP3    H162326   4.947   6.754   3.662 -0.4035  0.4806  0.2209
13637TIP3    H262327   4.998   6.658   3.557  1.0536  1.3943  0.0771
13638TIP3   OH262328   0.562   2.998  12.909  0.4050 -0.2652 -0.3201
13638TIP3    H162329   0.511   2.957  12.838 -0.1869 -0.1928  0.0609
13638TIP3    H262330   0.628   3.051  12.863  0.5648 -0.8772 -0.8202
13639TIP3   OH262331   5.264   5.693   0.493 -0.0547 -0.0159  0.3745
13639TIP3    H162332   5.237   5.748   0.419  0.2531  1.1781  1.1079
13639TIP3    H262333   5.196   5.626   0.499 -0.3489  0.1708 -0.6766
13640TIP3   OH262334   0.296   5.216  16.475  0.2586  0.2211 -0.1471
13640TIP3    H162335   0.208   5.214  16.439 -0.1305 -0.5660  0.8112
13640TIP3    H262336   0.301   5.299  16.522  0.8892  1.4278 -2.2211
13641TIP3   OH262337   3.711   5.652   4.181  0.6348 -0.5901 -0.3313
13641TIP3    H162338   3.633   5.621   4.228  0.4406  0.1288 -0.1698
13641TIP3    H262339   3.721   5.743   4.210  1.4507 -0.6360 -0.4627
13642TIP3   OH262340   2.579   2.888  11.124  0.0901 -0.0411  0.1165
13642TIP3    H162341   2.660   2.920  11.086  1.6377 -2.7182  0.9148
13642TIP3    H262342   2.510   2.924  11.067  1.6338  3.3097  0.1416
13643TIP3   OH262343   3.069   2.899  11.455 -0.1687 -0.2546  0.0057
13643TIP3    H162344   2.992   2.844  11.466  0.6676 -1.3128  0.6911
13643TIP3    H262345   3.137   2.859  11.509  0.4186  1.5713  0.7298
13644TIP3   OH262346   5.285   4.676   2.104  0.4546 -0.1060 -0.1082
13644TIP3    H162347   5.337   4.715   2.033 -1.4077  1.9808 -0.4248
13644TIP3    H262348   5.257   4.751   2.157 -0.7265 -1.3370  1.0775
13645TIP3   OH262349   2.105   4.916   5.526 -0.7047  0.0589 -0.0997
13645TIP3    H162350   2.117   4.841   5.468  0.9137  0.1436  0.0604
13645TIP3    H262351   2.012   4.916   5.548 -1.1153 -0.6936 -1.7139
13646TIP3   OH262352   1.870   1.689   3.668 -1.1419 -0.2887  0.2043
13646TIP3    H162353   1.853   1.668   3.576 -1.3371 -0.0424  0.1834
13646TIP3    H262354   1.874   1.604   3.712  0.8238 -0.5216 -0.3394
13647TIP3   OH262355   6.070   0.096  14.389 -0.1234  0.3545 -0.0079
13647TIP3    H162356   6.085   0.018  14.442 -1.3996  0.5600  0.7031
13647TIP3    H262357   5.997   0.073  14.332  1.3315  0.0825 -1.8687
13648TIP3   OH262358   4.712   4.926  10.870 -0.3104 -0.2844 -0.1010
13648TIP3    H162359   4.766   4.932  10.792 -0.8145  0.6475 -0.3958
13648TIP3    H262360   4.639   4.986  10.854 -0.8406 -0.6726  0.7526
13649TIP3   OH262361   5.596   3.805  15.746 -0.6004 -0.4572  0.2482
13649TIP3    H162362   5.637   3.758  15.818  0.7694  0.3099  0.0005
13649TIP3    H262363   5.512   3.761  15.733  0.4145 -2.5408  0.3301
13650TIP3   OH262364   1.892   0.710  11.159 -0.0001 -0.3833  0.2103
13650TIP3    H162365   1.846   0.632  11.127 -0.6946 -0.2836  0.9375
13650TIP3    H262366   1.848   0.783  11.115 -0.1333 -0.3302  0.4286
13651TIP3   OH262367   5.222   2.971  16.262  0.1541  0.4526 -0.0167
13651TIP3    H162368   5.229   2.891  16.209 -1.0071  0.8966 -0.8864
13651TIP3    H262369   5.137   2.965  16.304 -0.2001  1.4738 -0.5428
13652TIP3   OH262370   2.649   3.394   6.298 -0.0568 -0.2445  0.1310
13652TIP3    H162371   2.704   3.467   6.324  0.1585 -0.8887  1.5298
13652TIP3    H262372   2.571   3.401   6.352 -1.6443  0.9434 -2.1604
13653TIP3   OH262373   2.654   5.132   1.267  0.6947  0.3397  0.1584
13653TIP3    H162374   2.655   5.036   1.270 -0.8785  0.2526 -1.1181
13653TIP3    H262375   2.636   5.158   1.358 -0.0325 -0.6123  0.3011
13654TIP3   OH262376   1.349   0.529  15.427 -0.2543 -0.0084  0.3385
13654TIP3    H162377   1.411   0.599  15.404 -0.2789  1.2019  3.5272
13654TIP3    H262378   1.404   0.455  15.452 -0.1773  0.0828  0.4358
13655TIP3   OH262379   2.005   4.121  17.079  0.4347 -0.3848  0.4193
13655TIP3    H162380   1.993   4.068  17.000  2.8815 -0.1391 -0.1984
13655TIP3    H262381   2.055   4.065  17.138  1.5142  0.5383  0.4425
13656TIP3   OH262382   5.146   4.832  11.778 -0.1762 -0.1733  0.1879
13656TIP3    H162383   5.196   4.857  11.700  0.3997  1.7039  1.1000
13656TIP3    H262384   5.156   4.737  11.784  1.9274 -0.0525 -0.6056
13657TIP3   OH262385   2.825   4.830   2.817 -0.0000  0.2543 -0.2117
13657TIP3    H162386   2.744   4.821   2.767 -1.4801  1.5937  1.7954
13657TIP3    H262387   2.804   4.795   2.903  1.6436  0.4513  0.2980
13658TIP3   OH262388   5.467   4.560  15.984  0.4855 -0.2493  0.2279
13658TIP3    H162389   5.554   4.521  15.991  1.3663  1.7646  0.9378
13658TIP3    H262390   5.408   4.484  15.983  2.1731 -1.6376  0.3579
13659TIP3   OH262391   4.701   0.244   0.625  0.4929 -0.0416 -0.0324
13659TIP3    H162392   4.634   0.207   0.682  1.0229  1.7567  1.8960
13659TIP3    H262393   4.654   0.300   0.564  0.0420 -0.8181 -0.4063
13660TIP3   OH262394   1.053   4.702   0.768  0.0627  0.1266 -0.1531
13660TIP3    H162395   1.051   4.611   0.795 -1.0791 -0.8632 -3.1082
13660TIP3    H262396   0.963   4.722   0.743 -0.0231  2.5739  1.7416
13661TIP3   OH262397   1.851   5.753  14.283 -0.1571  0.2991  0.3162
13661TIP3    H162398   1.855   5.782  14.192  1.3042 -0.5010  0.0839
13661TIP3    H262399   1.822   5.830  14.332 -1.5372  0.5788 -0.8781
13662TIP3   OH262400   0.893   2.541   3.646  0.8850 -0.2632 -0.0487
13662TIP3    H162401   0.811   2.496   3.628  1.6554 -1.4581 -0.6964
13662TIP3    H262402   0.886   2.567   3.738 -0.7595  0.8837 -0.4434
13663TIP3   OH262403   0.230   1.362  11.150  0.0400 -0.3564  0.2745
13663TIP3    H162404   0.159   1.415  11.185 -0.3267 -2.1777  2.5302
13663TIP3    H262405   0.310   1.403  11.185 -0.2728 -1.5312  2.5659
13664TIP3   OH262406   4.839   1.954   5.418  0.2686 -0.0170 -0.5641
13664TIP3    H162407   4.832   1.863   5.390 -1.6885 -0.3537  0.8104
13664TIP3    H262408   4.765   1.998   5.377  0.8856  0.8450 -0.7827
13665TIP3   OH262409   1.567   4.819   3.457 -0.8051 -0.1970  0.2663
13665TIP3    H162410   1.643   4.791   3.407 -0.7004 -1.2726  0.9910
13665TIP3    H262411   1.604   4.863   3.534 -0.9601  1.0589 -0.3474
13666TIP3   OH262412   4.201   1.541   5.945 -0.4130 -0.4369  0.3026
13666TIP3    H162413   4.137   1.607   5.917 -0.4457 -0.1878  0.9629
13666TIP3    H262414   4.266   1.590   5.995  1.0507 -0.4564 -1.4823
13667TIP3   OH262415   5.035   1.769   5.310  0.0815 -0.1012  0.1413
13667TIP3    H162416   5.058   1.681   5.279  1.0253  0.5665 -1.1052
13667TIP3    H262417   5.090   1.781   5.388  0.8012 -0.1834 -0.3417
13668TIP3   OH262418   2.978   5.286  16.539 -0.0390  0.2210 -0.2822
13668TIP3    H162419   2.927   5.205  16.548 -0.1397  0.2747 -0.3779
13668TIP3    H262420   3.067   5.255  16.523 -0.2810  0.1218 -1.5421
13669TIP3   OH262421   4.527   5.229  15.515  0.0411  0.1263 -0.4107
13669TIP3    H162422   4.461   5.185  15.461  0.3569  0.2861 -0.9346
13669TIP3    H262423   4.593   5.260  15.452 -0.0616  1.1520 -0.0317
13670TIP3   OH262424   0.192   2.847   2.647 -0.2922  0.0061  0.2486
13670TIP3    H162425   0.172   2.926   2.696  0.5372 -0.1009  0.7700
13670TIP3    H262426   0.259   2.803   2.698  0.9326  0.1170 -1.1936
13671TIP3   OH262427   5.583   5.522   2.576  0.1505 -0.2421  0.4660
13671TIP3    H162428   5.578   5.426   2.575  1.8058 -0.3734  1.4552
13671TIP3    H262429   5.627   5.545   2.494 -1.3460 -0.2098 -0.3626
13672TIP3   OH262430   3.401   5.210  14.205 -0.5183  0.8548  0.0487
13672TIP3    H162431   3.339   5.273  14.243 -1.1020  0.0248  0.5403
13672TIP3    H262432   3.389   5.218  14.111 -0.3101  1.7321  0.0866
13673TIP3   OH262433   2.565   1.760  14.126 -0.4782 -0.2519 -0.0748
13673TIP3    H162434   2.557   1.666  14.107 -2.8300 -0.0241 -0.5069
13673TIP3    H262435   2.481   1.797  14.099  1.3588  2.5059 -2.7337
13674TIP3   OH262436   3.738   6.058  13.403 -0.1428 -0.0821 -0.0823
13674TIP3    H162437   3.798   6.129  13.425 -0.7017  0.4156 -0.1258
13674TIP3    H262438   3.698   6.085  13.320 -0.4268 -0.4042 -0.0547
13675TIP3   OH262439   0.717   2.401   2.041  0.0605  0.1506  0.9194
13675TIP3    H162440   0.623   2.400   2.057 -0.0149 -0.1924  0.4625
13675TIP3    H262441   0.756   2.374   2.124 -0.1879  1.3580  1.4568
13676TIP3   OH262442   0.689   6.585  17.201 -0.4615 -0.1901  0.4464
13676TIP3    H162443   0.652   6.670  17.225  0.0935  0.0414  0.4991
13676TIP3    H262444   0.783   6.596  17.212 -0.3456 -0.6527 -0.0656
13677TIP3   OH262445   2.304   0.329  12.160 -0.3297 -0.2581  0.1270
13677TIP3    H162446   2.383   0.326  12.215  0.2467  0.3158 -0.6580
13677TIP3    H262447   2.323   0.270  12.088  1.0034  2.6491 -2.1204
13678TIP3   OH262448   2.916   3.251   1.891 -0.4549  0.3979 -0.1403
13678TIP3    H162449   2.989   3.255   1.953  0.3203 -1.7930 -0.7826
13678TIP3    H262450   2.838   3.247   1.946  0.2395 -1.9231  0.8058
13679TIP3   OH262451   1.251   0.904   4.020 -0.4844 -0.3855 -0.3676
13679TIP3    H162452   1.339   0.895   4.056 -0.4402 -0.4276 -0.4867
13679TIP3    H262453   1.196   0.920   4.096 -0.1836  1.0048 -0.4231
13680TIP3   OH262454   3.649   6.267  15.893 -0.0618  0.2461  0.1239
13680TIP3    H162455   3.625   6.209  15.820  1.1118 -0.9229  0.6153
13680TIP3    H262456   3.683   6.346  15.851  1.5351 -0.8001 -0.6473
13681TIP3   OH262457   4.412   3.235  11.110 -0.9646 -0.0812  0.3324
13681TIP3    H162458   4.415   3.141  11.092  0.8815 -0.1568  0.8053
13681TIP3    H262459   4.390   3.275  11.026 -1.2953 -0.9147  0.0145
13682TIP3   OH262460   4.485   1.290  13.130 -0.4061 -0.2845  0.0816
13682TIP3    H162461   4.409   1.333  13.169  0.9412  1.0326  1.3617
13682TIP3    H262462   4.523   1.355  13.071  0.4259 -0.4846  0.3860
13683TIP3   OH262463   3.245   3.681  12.183 -0.2749  0.4568 -0.7007
13683TIP3    H162464   3.151   3.695  12.187 -0.2396  0.4179  0.5234
13683TIP3    H262465   3.257   3.588  12.201  0.0542  0.6641  0.2046
13684TIP3   OH262466   2.477   4.064  14.307 -0.1064 -0.1767  0.1281
13684TIP3    H162467   2.471   3.991  14.369  1.1169 -1.0463 -0.7223
13684TIP3    H262468   2.407   4.123  14.333 -3.1428 -3.0303 -0.9619
13685TIP3   OH262469   3.419   0.629  12.219  0.3524  0.2899 -0.1547
13685TIP3    H162470   3.499   0.673  12.190  1.2903 -0.0913  1.7520
13685TIP3    H262471   3.416   0.549  12.167  1.3272  0.2041 -0.0909
13686TIP3   OH262472   0.791   4.137   1.434 -0.1242  0.4291 -0.2110
13686TIP3    H162473   0.808   4.110   1.524  2.5387 -1.1131 -1.0472
13686TIP3    H262474   0.856   4.089   1.382 -1.0144  1.8863 -2.8727
13687TIP3   OH262475   2.956   1.121   0.586  0.1040  0.2030  0.5373
13687TIP3    H162476   3.003   1.080   0.514 -1.6623 -1.3389  0.1674
13687TIP3    H262477   3.007   1.199   0.608  0.7572  0.6867 -2.3172
13688TIP3   OH262478   2.736   0.078   5.069 -0.1500 -0.8943  0.2083
13688TIP3    H162479   2.775   0.109   4.987 -0.4946 -1.1184 -0.0430
13688TIP3    H262480   2.643   0.067   5.048 -0.3095 -0.5647  0.7441
13689TIP3   OH262481   4.116   4.085   3.312  0.7356 -0.9134  0.0227
13689TIP3    H162482   4.141   4.073   3.403  1.7290 -0.5656 -0.1898
13689TIP3    H262483   4.023   4.108   3.315  0.3980 -2.2889  0.8375
13690TIP3   OH262484   6.681   5.797  12.089 -0.2417 -0.2523  0.1914
13690TIP3    H162485   6.738   5.824  12.017  1.0572 -0.8514  0.9526
13690TIP3    H262486   6.620   5.869  12.100  1.9431  1.6318  0.9506
13691TIP3   OH262487   6.611   3.379  16.049 -0.4940  0.3807 -0.1508
13691TIP3    H162488   6.639   3.364  16.139  0.3993 -1.5992 -0.6896
13691TIP3    H262489   6.689   3.411  16.004 -0.0531 -1.4549 -0.8073
13692TIP3   OH262490   1.648   4.260   3.734  0.3617  0.1667 -0.2338
13692TIP3    H162491   1.570   4.258   3.679  0.6372  1.0705 -0.6778
13692TIP3    H262492   1.692   4.342   3.711  0.2369  0.8249  1.6988
13693TIP3   OH262493   3.245   3.556  11.840 -0.4423 -0.3705  0.1627
13693TIP3    H162494   3.300   3.635  11.840 -0.5126 -0.3111 -0.5147
13693TIP3    H262495   3.269   3.510  11.920  0.3784 -0.1914  0.0303
13694TIP3   OH262496   1.099   2.203   0.685 -0.1850  0.7130 -0.2757
13694TIP3    H162497   1.144   2.284   0.708 -1.2222  0.7711  1.7773
13694TIP3    H262498   1.010   2.215   0.717 -0.8174 -0.6042 -1.4421
13695TIP3   OH262499   0.389   0.665  14.054 -0.2173 -0.0438 -0.2654
13695TIP3    H162500   0.384   0.704  13.967  0.9899  1.0903  0.1438
13695TIP3    H262501   0.453   0.719  14.101  0.9525 -2.0732  0.5794
13696TIP3   OH262502   6.348   5.349   6.360 -0.0809  0.0478  0.4868
13696TIP3    H162503   6.342   5.436   6.399 -0.4066  0.2152  0.0711
13696TIP3    H262504   6.441   5.330   6.358  0.2595  1.5767 -1.9953
13697TIP3   OH262505   4.334   4.604   0.477 -0.0297 -0.0759  0.0284
13697TIP3    H162506   4.330   4.646   0.563 -1.3892  1.9958 -0.9679
13697TIP3    H262507   4.244   4.606   0.445  0.5226 -0.4354 -1.6319
13698TIP3   OH262508   5.405   2.318  14.621  0.0640  0.2520 -0.9014
13698TIP3    H162509   5.318   2.292  14.592 -0.8689 -0.1024  1.9224
13698TIP3    H262510   5.459   2.241  14.606 -1.1980 -1.1919  1.3482
13699TIP3   OH262511   4.069   6.717   2.974 -0.1280 -0.4845 -0.3805
13699TIP3    H162512   4.007   6.681   2.911  1.3010 -1.8169 -1.0759
13699TIP3    H262513   4.088   6.645   3.033 -1.9366  0.8941  2.1122
13700TIP3   OH262514   2.549   3.970  11.482  0.3243  0.1428  0.6808
13700TIP3    H162515   2.501   4.052  11.494  0.5733  0.8397 -2.3273
13700TIP3    H262516   2.615   3.989  11.415  3.1927 -1.4832  2.8205
13701TIP3   OH262517   6.456   0.820   5.878  0.5423  0.8646  0.0249
13701TIP3    H162518   6.535   0.834   5.825  0.2069  1.5784 -0.3082
13701TIP3    H262519   6.485   0.833   5.968  1.3400 -1.3321  0.1329
13702TIP3   OH262520   4.715   4.823   3.714 -0.6219 -0.1094  0.1665
13702TIP3    H162521   4.795   4.813   3.662 -0.7523 -0.3141  0.0037
13702TIP3    H262522   4.743   4.875   3.790 -0.1587 -0.8613  0.5204
13703TIP3   OH262523   2.609   3.231   5.758 -0.1663 -0.7932  0.0504
13703TIP3    H162524   2.602   3.270   5.846 -1.3328  0.7757 -0.6779
13703TIP3    H262525   2.697   3.255   5.728 -0.1662 -0.3794  0.3711
13704TIP3   OH262526   6.362   2.961   1.806  0.1005 -0.0291  0.2239
13704TIP3    H162527   6.420   3.032   1.833 -0.6735  1.6767 -2.2410
13704TIP3    H262528   6.419   2.896   1.766  0.4874  0.8754 -0.7115
13705TIP3   OH262529   3.614   0.341  11.807  0.6124 -0.2765 -0.0966
13705TIP3    H162530   3.521   0.334  11.785  0.2880  0.5612  0.9100
13705TIP3    H262531   3.641   0.252  11.827  0.1316 -0.5842 -0.7997
13706TIP3   OH262532   0.183   6.593  11.065 -0.4960  0.0755 -0.1914
13706TIP3    H162533   0.132   6.669  11.093 -0.1202  0.6582 -1.0571
13706TIP3    H262534   0.218   6.617  10.979  0.3730 -0.7224 -0.0826
13707TIP3   OH262535   6.029   0.874  15.091  0.2446 -0.3853 -0.6123
13707TIP3    H162536   5.957   0.848  15.149 -1.1867 -0.9839 -2.5475
13707TIP3    H262537   6.012   0.966  15.071  0.5633 -0.2667 -0.3556
13708TIP3   OH262538   3.362   0.938   6.094  0.1476 -0.2401  0.2682
13708TIP3    H162539   3.322   0.851   6.097  1.2082 -0.8427 -1.3330
13708TIP3    H262540   3.427   0.937   6.164  0.7069 -1.0616 -0.2445
13709TIP3   OH262541   0.645   1.706  16.058  0.7567  0.0256 -0.1282
13709TIP3    H162542   0.703   1.769  16.099  1.0229  0.4752 -1.1497
13709TIP3    H262543   0.568   1.702  16.115  1.2264  0.4112  0.5414
13710TIP3   OH262544   6.479   0.141  14.745  0.3246  0.2311 -0.3127
13710TIP3    H162545   6.419   0.092  14.801  1.8827 -2.4254 -0.7998
13710TIP3    H262546   6.437   0.226  14.734 -0.8467  0.3034  3.4909
13711TIP3   OH262547   1.940   1.590  12.567  0.5518 -0.1782 -0.1362
13711TIP3    H162548   1.963   1.596  12.475 -0.4432 -0.3627 -0.4027
13711TIP3    H262549   2.004   1.528  12.604  2.6059  1.7958 -0.1181
13712TIP3   OH262550   0.638   3.367  16.266 -0.8936 -0.1433  0.8195
13712TIP3    H162551   0.628   3.329  16.353  3.0572  0.6967  1.8339
13712TIP3    H262552   0.670   3.456  16.282 -1.6282  0.6394 -1.5526
13713TIP3   OH262553   2.192   5.906   4.542 -0.5180  0.0148  0.0715
13713TIP3    H162554   2.176   5.834   4.602 -4.5134  1.6933  1.4160
13713TIP3    H262555   2.120   5.901   4.479  1.6608  0.3048 -2.6448
13714TIP3   OH262556   0.915   6.234  12.458 -0.0098  0.1840  0.0431
13714TIP3    H162557   0.837   6.211  12.509  0.7055  0.5590  1.3857
13714TIP3    H262558   0.915   6.330  12.458  0.3475  0.1848 -0.0883
13715TIP3   OH262559   6.768   1.578   6.532 -0.5637  0.0938 -0.0691
13715TIP3    H162560   6.727   1.621   6.607 -0.8745 -0.9303  0.3636
13715TIP3    H262561   6.750   1.485   6.544  1.2211 -0.3247 -0.2778
13716TIP3   OH262562   1.013   6.308  14.854 -0.1859  0.5612  0.1841
13716TIP3    H162563   1.075   6.345  14.917 -0.2806  1.0307  0.0043
13716TIP3    H262564   0.967   6.240  14.903 -0.2792  0.9426  0.6308
13717TIP3   OH262565   1.749   1.031   0.221 -0.0589  0.3474 -1.1164
13717TIP3    H162566   1.811   1.103   0.232  0.6542 -0.0845 -2.1107
13717TIP3    H262567   1.681   1.067   0.164 -0.2919  0.5653 -0.7064
13718TIP3   OH262568   3.397   5.915   5.461  0.5818 -0.3012  0.2567
13718TIP3    H162569   3.349   5.958   5.531  0.4473 -0.5494  0.3170
13718TIP3    H262570   3.334   5.906   5.390  0.6503 -0.2719  0.1909
13719TIP3   OH262571   3.403   0.727   0.255  0.2146  0.1508 -0.4708
13719TIP3    H162572   3.493   0.755   0.236  0.6416 -0.5999  0.3816
13719TIP3    H262573   3.386   0.760   0.343 -0.3673  0.3220 -0.6448
13720TIP3   OH262574   5.271   1.721  16.743 -0.1803  0.0687 -0.3609
13720TIP3    H162575   5.238   1.783  16.677  1.7667 -0.8743 -2.3214
13720TIP3    H262576   5.196   1.708  16.802 -1.3165  2.6263 -1.0853
13721TIP3   OH262577   5.524   1.044   6.395  0.5116 -0.0378 -0.5907
13721TIP3    H162578   5.536   0.952   6.416  0.1727 -0.5206 -2.3904
13721TIP3    H262579   5.432   1.052   6.370  1.0024  0.3313 -2.4411
13722TIP3   OH262580   6.655   5.015  16.148  0.2371 -0.1717  0.1522
13722TIP3    H162581   6.741   4.986  16.118 -0.0395 -0.3683 -0.4792
13722TIP3    H262582   6.643   5.101  16.106  0.0230 -0.2565  0.0372
13723TIP3   OH262583   0.712   6.149  11.747 -0.0299 -0.1493 -0.2502
13723TIP3    H162584   0.699   6.190  11.661  1.2863 -2.4261 -1.6339
13723TIP3    H262585   0.629   6.104  11.765 -1.0661  2.0069  0.7425
13724TIP3   OH262586   5.389   6.393  15.778  0.2599  0.8900  0.4513
13724TIP3    H162587   5.445   6.386  15.700  0.2529  2.9187  0.2180
13724TIP3    H262588   5.343   6.477  15.768 -0.8584  0.5019  1.9306
13725TIP3   OH262589   3.916   6.600  13.447  0.2107  0.1751 -0.1945
13725TIP3    H162590   4.001   6.556  13.435 -0.7090 -1.5086 -0.8021
13725TIP3    H262591   3.900   6.595  13.542 -0.3421 -1.8079 -0.3404
13726TIP3   OH262592   6.719   1.418   5.836 -0.2193 -0.2125  0.3662
13726TIP3    H162593   6.770   1.446   5.912  1.8651 -0.3251 -0.9073
13726TIP3    H262594   6.647   1.482   5.831  0.6704  0.9218  1.3273
13727TIP3   OH262595   0.513   5.808   0.197  0.4960  0.4666  0.1062
13727TIP3    H162596   0.493   5.867   0.270 -1.5448  1.9462 -1.5303
13727TIP3    H262597   0.538   5.867   0.125  1.2480 -0.8586 -0.7651
13728TIP3   OH262598   1.899   3.894  15.134 -0.2760  0.1512  0.2748
13728TIP3    H162599   1.929   3.955  15.202 -0.8103  0.1670  0.5063
13728TIP3    H262600   1.972   3.887  15.073 -0.0894  0.7748  0.4204
13729TIP3   OH262601   0.362   1.071  11.928  0.6291 -0.9140 -0.3667
13729TIP3    H162602   0.316   0.995  11.893  1.3454 -1.0876 -0.9299
13729TIP3    H262603   0.427   1.035  11.989  0.0832 -0.6699  0.3827
13730TIP3   OH262604   5.817   3.147  17.220 -0.1373 -0.2848 -0.0654
13730TIP3    H162605   5.891   3.200  17.189  1.1041 -2.1053 -0.4131
13730TIP3    H262606   5.801   3.086  17.148 -0.9761 -0.9005  0.6322
13731TIP3   OH262607   5.001   2.558  14.560 -0.3667 -0.3229 -0.3401
13731TIP3    H162608   5.006   2.508  14.479 -1.3428  1.6503 -1.7217
13731TIP3    H262609   4.907   2.563  14.579 -0.2719  0.6908 -0.0858
13732TIP3   OH262610   5.351   1.838   1.212 -0.1025  0.0681 -0.1999
13732TIP3    H162611   5.422   1.806   1.156  0.7837  1.2910  0.2006
13732TIP3    H262612   5.285   1.768   1.208  1.7999 -1.9136  0.7499
13733TIP3   OH262613   5.771   0.483   2.226  0.2646 -0.1054  0.5809
13733TIP3    H162614   5.703   0.543   2.258  0.3352  0.8891 -1.0210
13733TIP3    H262615   5.822   0.536   2.166 -1.3666 -2.4188 -3.1835
13734TIP3   OH262616   6.394   2.390  11.927  0.2151 -0.7763  0.5910
13734TIP3    H162617   6.421   2.463  11.872 -0.7920 -1.2927 -0.6377
13734TIP3    H262618   6.398   2.314  11.869 -1.1764 -1.2949  1.1408
13735TIP3   OH262619   2.092   5.959   6.129 -0.3171  0.3509  0.4002
13735TIP3    H162620   2.152   5.910   6.186 -0.3353  1.7791  1.7294
13735TIP3    H262621   2.005   5.934   6.159 -0.3761 -0.6220 -0.5541
13736TIP3   OH262622   4.985   1.774   3.370 -0.0312  0.3361  0.4187
13736TIP3    H162623   4.915   1.822   3.325  1.8413  0.5543 -2.4802
13736TIP3    H262624   4.974   1.683   3.343  0.5448  0.3111  0.2446
13737TIP3   OH262625   0.972   3.177   1.888  0.2688  0.2907 -0.8320
13737TIP3    H162626   0.957   3.082   1.878  2.3356  0.0219 -1.8597
13737TIP3    H262627   0.976   3.209   1.798 -2.2592  1.7571 -0.5282
13738TIP3   OH262628   0.461   0.494  17.250 -0.2975 -0.5482 -0.1088
13738TIP3    H162629   0.548   0.522  17.222 -1.2049  2.3255 -0.4537
13738TIP3    H262630   0.477   0.429  17.318  2.1186 -0.1300 -0.1852
13739TIP3   OH262631   3.146   0.660   3.757  0.5289  0.2739  1.1938
13739TIP3    H162632   3.127   0.734   3.815 -1.7518  0.1735  0.6764
13739TIP3    H262633   3.083   0.669   3.686  0.6744 -1.7782  0.7562
13740TIP3   OH262634   3.631   5.103  14.334  0.2939 -0.1794 -0.0514
13740TIP3    H162635   3.549   5.138  14.299  1.0635  0.0328 -1.7017
13740TIP3    H262636   3.659   5.167  14.399 -1.2797 -0.6960  1.1981
13741TIP3   OH262637   5.354   1.589   2.511  0.0701 -0.1351 -0.1143
13741TIP3    H162638   5.318   1.516   2.562 -0.5245 -1.3629 -2.1822
13741TIP3    H262639   5.323   1.668   2.556 -1.4350 -1.1680  0.7327
13742TIP3   OH262640   1.038   1.338  11.112 -0.1763  0.1419  0.2331
13742TIP3    H162641   0.991   1.306  11.035  0.2783  2.1956 -0.9478
13742TIP3    H262642   1.123   1.295  11.108 -0.4606 -0.4200  0.1020
13743TIP3   OH262643   2.822   2.645  10.981 -0.3143 -0.0495 -0.4359
13743TIP3    H162644   2.903   2.595  10.997 -0.1277  1.0001  2.3575
13743TIP3    H262645   2.779   2.597  10.910  1.9482 -1.5934 -0.8940
13744TIP3   OH262646   1.427   5.137  15.680  0.6707 -0.2410  0.3284
13744TIP3    H162647   1.385   5.087  15.610  0.4458 -0.0150  0.2985
13744TIP3    H262648   1.493   5.078  15.716  0.0682 -0.7304  0.6270
13745TIP3   OH262649   0.118   2.280  14.760 -0.1547  0.2849  0.0460
13745TIP3    H162650   0.200   2.323  14.736  0.3709 -0.7907 -0.1276
13745TIP3    H262651   0.073   2.344  14.815  0.4452  1.1933 -0.4918
13746TIP3   OH262652   5.217   0.748   3.728 -0.5164 -0.9818  0.5279
13746TIP3    H162653   5.134   0.711   3.697 -1.2684  1.6814 -0.9762
13746TIP3    H262654   5.193   0.801   3.804  0.2649 -2.1018  1.5977
13747TIP3   OH262655   5.064   1.032  14.877 -0.5508  0.5065  0.1434
13747TIP3    H162656   5.041   1.069  14.962 -1.2202  0.7526 -0.1412
13747TIP3    H262657   5.155   1.060  14.863 -0.2248 -0.0548  1.0502
13748TIP3   OH262658   4.446   4.798   4.386 -0.4783  0.1936  0.0248
13748TIP3    H162659   4.536   4.815   4.359 -0.6288  0.0958 -0.5498
13748TIP3    H262660   4.440   4.837   4.473  0.7446 -1.6768  1.0108
13749TIP3   OH262661   4.944   5.813  12.242 -0.5392 -0.7526 -0.0862
13749TIP3    H162662   4.958   5.754  12.168 -0.3183 -0.1972 -0.5006
13749TIP3    H262663   4.987   5.771  12.316  0.1075 -0.8437 -0.5066
13750TIP3   OH262664   0.865   1.543  14.811 -0.3549  0.6619  0.0282
13750TIP3    H162665   0.794   1.577  14.866 -0.7252  0.5236 -0.3566
13750TIP3    H262666   0.849   1.583  14.725 -0.3452  0.1222 -0.2260
13751TIP3   OH262667   1.738   1.946   2.996 -0.9261  0.0513 -0.5961
13751TIP3    H162668   1.827   1.925   2.966 -0.5970  1.6685 -0.8389
13751TIP3    H262669   1.719   2.031   2.957 -2.0205  0.4149  0.6570
13752TIP3   OH262670   2.079   1.513   6.618 -0.3153 -0.2845  0.5628
13752TIP3    H162671   1.983   1.516   6.620 -0.3697 -1.1756  2.6760
13752TIP3    H262672   2.100   1.461   6.541 -1.6434 -1.4866  0.9645
13753TIP3   OH262673   3.271   3.876   2.079  1.3173 -0.3095  0.4632
13753TIP3    H162674   3.206   3.940   2.109  1.7306 -0.4867  1.8103
13753TIP3    H262675   3.310   3.916   2.001  0.7535  0.5501  0.6075
13754TIP3   OH262676   4.678   3.672   0.085 -0.1865  0.3767  0.7397
13754TIP3    H162677   4.720   3.684   0.170 -0.9319  1.0573  1.0215
13754TIP3    H262678   4.736   3.610   0.039  0.1966 -0.0481  1.7470
13755TIP3   OH262679   1.625   6.490  12.659  0.3377 -0.5379 -0.0559
13755TIP3    H162680   1.580   6.413  12.696 -1.2419  0.3854  0.0719
13755TIP3    H262681   1.587   6.564  12.706  0.5893  0.4479 -1.3448
13756TIP3   OH262682   0.744   2.323   2.294 -0.1311  0.2516 -0.0507
13756TIP3    H162683   0.818   2.273   2.329 -0.2195  0.7976  0.9679
13756TIP3    H262684   0.754   2.411   2.332 -0.7788  0.6019 -0.6554
13757TIP3   OH262685   6.087   1.544   2.707  0.6667 -0.1805  0.5436
13757TIP3    H162686   6.148   1.616   2.689 -1.1220  1.2635 -0.1434
13757TIP3    H262687   6.122   1.470   2.658  0.5004  1.3496 -2.0912
13758TIP3   OH262688   6.648   4.677   2.318  0.1883  0.0627  0.3551
13758TIP3    H162689   6.693   4.674   2.234 -0.6621 -1.0315 -0.0806
13758TIP3    H262690   6.654   4.588   2.352 -0.6104  0.1779  0.8287
13759TIP3   OH262691   0.507   5.331   3.015 -0.7477 -0.0512  0.3695
13759TIP3    H162692   0.445   5.268   2.979 -1.3834  1.2306 -0.8679
13759TIP3    H262693   0.454   5.390   3.068 -0.2792 -0.0348  0.8362
13760TIP3   OH262694   5.928   4.148   4.524 -0.2195 -0.1808  0.4689
13760TIP3    H162695   5.845   4.117   4.562 -1.0281  2.5248  1.1145
13760TIP3    H262696   5.930   4.108   4.437 -1.4554 -1.4693  0.9865
13761TIP3   OH262697   4.395   1.990   4.945 -0.2461 -0.0039 -0.3821
13761TIP3    H162698   4.336   2.013   4.873 -0.5522 -0.5366 -0.3032
13761TIP3    H262699   4.474   2.043   4.929  1.1968 -2.6820 -3.1672
13762TIP3   OH262700   5.172   6.719   2.728  0.2731  0.1431  0.2952
13762TIP3    H162701   5.238   6.679   2.784 -1.3006 -0.2597  1.9458
13762TIP3    H262702   5.098   6.657   2.730 -0.4295  0.8896 -0.9637
13763TIP3   OH262703   1.863   2.726   5.355 -0.0082  0.0068 -0.4235
13763TIP3    H162704   1.847   2.761   5.268 -1.3935  0.2747 -0.0774
13763TIP3    H262705   1.928   2.657   5.341 -1.5697 -1.2385 -1.9452
13764TIP3   OH262706   1.143   2.150  17.199  0.0005  1.0649 -0.1654
13764TIP3    H162707   1.174   2.178  17.285 -0.6239  1.4462 -0.0651
13764TIP3    H262708   1.198   2.198  17.137 -0.2559  1.5877  0.0129
13765TIP3   OH262709   1.067   0.782   6.727  0.2185 -0.0126  0.1846
13765TIP3    H162710   1.065   0.689   6.750  1.2177 -0.4452 -1.3299
13765TIP3    H262711   0.974   0.807   6.723 -0.1571 -1.4939 -1.4196
13766TIP3   OH262712   3.616   5.404   1.400  0.7807 -0.3215  0.1306
13766TIP3    H162713   3.686   5.469   1.409  1.7877 -1.4837  1.0744
13766TIP3    H262714   3.634   5.362   1.316 -0.7456  1.5410 -1.2195
13767TIP3   OH262715   2.920   6.378  15.847  0.6268 -0.1836  0.4199
13767TIP3    H162716   2.972   6.425  15.912 -0.4158  0.5540  0.7453
13767TIP3    H262717   2.873   6.447  15.799  0.1775 -0.8112 -0.0589
13768TIP3   OH262718   4.606   6.382   0.490  0.1090 -0.6086 -0.0031
13768TIP3    H162719   4.555   6.399   0.569 -0.8453 -1.5022 -0.4030
13768TIP3    H262720   4.556   6.315   0.443  0.6135 -0.0451 -1.4057
13769TIP3   OH262721   5.189   4.133   1.509  0.6360  0.1419 -0.2163
13769TIP3    H162722   5.254   4.109   1.575  0.0066 -1.7388 -0.2237
13769TIP3    H262723   5.111   4.083   1.533 -0.2085  0.8778 -1.3186
13770TIP3   OH262724   2.736   6.090   0.065  0.2793 -0.0153 -0.0925
13770TIP3    H162725   2.726   6.158   0.131  0.5661 -0.5104  0.4762
13770TIP3    H262726   2.799   6.029   0.104 -0.2755 -0.8048 -0.4178
13771TIP3   OH262727   0.244   4.332  13.568 -0.3870  0.0902 -0.5095
13771TIP3    H162728   0.176   4.279  13.610 -0.6647 -1.1895 -2.4415
13771TIP3    H262729   0.318   4.273  13.557  0.4424  0.9905  0.0122
13772TIP3   OH262730   3.511   0.111   2.298 -0.2746 -0.3021 -0.4370
13772TIP3    H162731   3.466   0.027   2.292 -0.6147 -0.1790  0.3513
13772TIP3    H262732   3.464   0.168   2.237 -1.8444  0.1090  1.0941
13773TIP3   OH262733   0.768   5.855  13.725 -0.4492 -0.5400 -0.0929
13773TIP3    H162734   0.860   5.879  13.736 -0.6125  0.6889 -1.1786
13773TIP3    H262735   0.740   5.826  13.812  0.8500 -0.5653  0.3367
13774TIP3   OH262736   6.534   1.681  11.537  0.6088  0.5740  1.0119
13774TIP3    H162737   6.495   1.768  11.540  1.6211  1.0317  1.5664
13774TIP3    H262738   6.521   1.651  11.447 -2.2711  0.0764  1.4817
13775TIP3   OH262739   2.807   4.333  13.979 -0.3377 -0.1815  0.3401
13775TIP3    H162740   2.818   4.345  14.073 -0.0004  1.1247  0.1517
13775TIP3    H262741   2.824   4.240  13.964  1.2249 -0.0807  1.3529
13776TIP3   OH262742   6.030   0.000   4.938 -0.0701  0.1576 -0.3389
13776TIP3    H162743   6.058   0.082   4.979 -1.4624  1.2047 -1.3691
13776TIP3    H262744   5.936   0.011   4.924 -0.4312 -1.9217  0.1191
13777TIP3   OH262745   0.884   6.192   1.602 -0.0147 -0.4544 -0.2254
13777TIP3    H162746   0.977   6.183   1.581  0.0979 -1.9799  0.8083
13777TIP3    H262747   0.872   6.137   1.679 -2.1604 -1.7704 -1.4125
13778TIP3   OH262748   1.073   6.596  16.621  0.1903  0.2091 -0.1289
13778TIP3    H162749   1.060   6.532  16.551  0.1421 -0.1268  0.1857
13778TIP3    H262750   1.126   6.665  16.581  1.8624 -0.9107  0.0329
13779TIP3   OH262751   2.076   5.504   1.917  0.6400 -0.1378 -0.6282
13779TIP3    H162752   2.085   5.592   1.881  0.5479  0.7666  1.4197
13779TIP3    H262753   2.016   5.459   1.856 -1.1211  1.9265 -0.5520
13780TIP3   OH262754   2.813   4.267   2.763  0.4218  0.4933 -0.1566
13780TIP3    H162755   2.757   4.331   2.806 -0.5488  0.3856 -1.1943
13780TIP3    H262756   2.851   4.216   2.834 -0.2735  1.0115  0.6028
13781TIP3   OH262757   5.943   5.374  15.803  0.1101 -0.9623 -0.3180
13781TIP3    H162758   6.007   5.323  15.853 -0.1256 -0.1846  0.8269
13781TIP3    H262759   5.975   5.464  15.809 -1.8662 -0.3070  1.6023
13782TIP3   OH262760   5.524   1.907   3.562  0.7221 -0.2367 -0.4567
13782TIP3    H162761   5.477   1.935   3.483  2.3442  2.4688 -0.5920
13782TIP3    H262762   5.563   1.823   3.538 -1.3553 -1.0057 -1.3949
13783TIP3   OH262763   3.667   0.986   0.321  0.0260  0.1059 -0.1064
13783TIP3    H162764   3.693   1.078   0.321  0.4444 -0.0038 -0.8320
13783TIP3    H262765   3.587   0.983   0.374 -0.5189  1.0336 -0.8515
13784TIP3   OH262766   5.947   1.356   0.251  0.3859 -0.1552 -0.1244
13784TIP3    H162767   5.896   1.280   0.223 -0.7506  0.7156 -0.4870
13784TIP3    H262768   5.979   1.332   0.338 -0.1550 -0.9608 -0.1331
13785TIP3   OH262769   5.094   1.292  12.762 -0.3139 -0.5260  0.1959
13785TIP3    H162770   5.163   1.334  12.814 -0.5881  0.6274 -0.3286
13785TIP3    H262771   5.050   1.233  12.823  0.4838 -0.5149  0.8043
13786TIP3   OH262772   1.601   6.396  15.196  0.1738 -0.3398 -0.4167
13786TIP3    H162773   1.548   6.318  15.181 -0.9526  0.5645 -1.3486
13786TIP3    H262774   1.539   6.469  15.193  0.9167  0.5200  2.1328
13787TIP3   OH262775   2.160   0.913  13.039 -0.1306 -0.3009  0.0276
13787TIP3    H162776   2.208   0.992  13.062  1.7093 -1.4565  0.4052
13787TIP3    H262777   2.084   0.944  12.989  0.1973  1.7108  0.6899
13788TIP3   OH262778   3.317   1.832   3.276 -0.4227  0.7319  0.2616
13788TIP3    H162779   3.387   1.877   3.323 -0.0836 -1.1992  1.7116
13788TIP3    H262780   3.309   1.880   3.193  0.4858  2.8719  1.3313
13789TIP3   OH262781   2.764   6.207  14.670  0.6772  0.0597  0.1623
13789TIP3    H162782   2.800   6.245  14.750  0.9513 -0.7671  0.4409
13789TIP3    H262783   2.819   6.130  14.653 -0.3222 -0.6487  0.0325
13790TIP3   OH262784   6.695   2.098   4.333 -0.1361 -1.2069  0.3767
13790TIP3    H162785   6.767   2.149   4.296  0.3545  0.0831  2.8688
13790TIP3    H262786   6.734   2.013   4.355  0.1636 -1.1529  0.0617
13791TIP3   OH262787   6.058   4.801   5.680  0.2471 -0.2564  0.2544
13791TIP3    H162788   5.998   4.824   5.609  1.7404  0.3203 -0.8721
13791TIP3    H262789   6.085   4.712   5.659 -1.2799 -1.0751  1.5679
13792TIP3   OH262790   1.016   5.227   0.657 -0.5375 -0.0176 -0.2793
13792TIP3    H162791   1.059   5.142   0.665 -1.6203 -0.6226 -0.6982
13792TIP3    H262792   0.939   5.210   0.602 -0.7067  1.2530 -0.4591
13793TIP3   OH262793   1.752   2.433   5.826 -0.1475  0.9965  0.4934
13793TIP3    H162794   1.774   2.356   5.879 -0.5795  0.3171 -0.2910
13793TIP3    H262795   1.833   2.484   5.821  0.3963  0.1237  0.2449
13794TIP3   OH262796   2.414   2.227  12.982  0.1492  0.0108 -0.3224
13794TIP3    H162797   2.484   2.288  12.960 -0.4114  0.3927 -1.0802
13794TIP3    H262798   2.444   2.143  12.946 -0.2219  0.3833 -1.5475
13795TIP3   OH262799   1.392   4.427  16.377  0.0830  0.2235  0.1442
13795TIP3    H162800   1.393   4.365  16.304  0.0013 -0.1361  0.4455
13795TIP3    H262801   1.438   4.504  16.344  1.7161 -0.6286  0.3206
13796TIP3   OH262802   4.669   1.967   4.290 -0.1087  0.1651 -0.0220
13796TIP3    H162803   4.666   2.051   4.246 -1.3721  0.0793 -0.1426
13796TIP3    H262804   4.660   1.902   4.219  0.5951 -0.0644  0.0933
13797TIP3   OH262805   1.405   5.764   1.732 -0.3827 -0.6570 -0.5910
13797TIP3    H162806   1.346   5.822   1.780  2.2418  2.8339 -1.2277
13797TIP3    H262807   1.352   5.730   1.660 -2.4818 -0.5198  0.8029
13798TIP3   OH262808   2.382   4.396   2.227  0.4269  0.0662  0.4131
13798TIP3    H162809   2.357   4.416   2.318 -0.8818  0.6139 -0.0368
13798TIP3    H262810   2.351   4.306   2.213 -0.7010  0.4924  0.0788
13799TIP3   OH262811   3.339   5.618  15.451  0.6536 -0.1931 -0.1013
13799TIP3    H162812   3.297   5.623  15.537  0.6592  0.8436 -0.1424
13799TIP3    H262813   3.308   5.536  15.413  1.3164 -1.0826  1.2246
13800TIP3   OH262814   5.934   1.719  12.126 -0.0381  0.0827  0.1110
13800TIP3    H162815   5.938   1.791  12.189 -0.7313 -0.9559  1.3817
13800TIP3    H262816   5.945   1.762  12.041 -1.3402  1.8135  0.7408
13801TIP3   OH262817   0.702   2.841  13.374 -0.4520 -0.1192 -0.3729
13801TIP3    H162818   0.716   2.933  13.351  1.2786 -0.0098  0.9511
13801TIP3    H262819   0.643   2.808  13.306 -0.7710  1.8476 -1.1068
13802TIP3   OH262820   4.987   3.083  12.341 -0.1499  0.4472 -0.0759
13802TIP3    H162821   5.066   3.032  12.361 -0.9851 -0.6295  0.5586
13802TIP3    H262822   4.926   3.061  12.412 -0.7458  1.8825 -0.1239
13803TIP3   OH262823   5.385   2.945  13.339 -0.4091 -0.4989 -0.5903
13803TIP3    H162824   5.379   2.984  13.251  0.4436 -0.1405 -0.5043
13803TIP3    H262825   5.352   2.856  13.328  0.8945 -0.8966 -1.5737
13804TIP3   OH262826   4.225   5.261   2.721 -0.5917 -0.0014 -0.5026
13804TIP3    H162827   4.207   5.178   2.678 -2.8150 -0.1035  0.4566
13804TIP3    H262828   4.320   5.268   2.724 -0.2577 -3.3832  0.9904
13805TIP3   OH262829   3.546   3.142  11.947 -0.4122  0.3518  0.2265
13805TIP3    H162830   3.458   3.105  11.957 -0.1316 -0.2836  0.3457
13805TIP3    H262831   3.541   3.226  11.993 -1.7440  1.6334 -2.0464
13806TIP3   OH262832   4.695   3.045   6.280 -0.1313 -0.1371  0.4285
13806TIP3    H162833   4.641   3.071   6.205  0.0866 -1.2434 -0.1223
13806TIP3    H262834   4.651   2.968   6.316  1.0892 -1.1010 -0.0642
13807TIP3   OH262835   1.882   3.329   0.221  0.1137  0.9434 -0.2041
13807TIP3    H162836   1.870   3.287   0.306  2.1007  0.8373  0.0740
13807TIP3    H262837   1.800   3.313   0.174 -0.8354  0.5828  1.4930
13808TIP3   OH262838   6.736   6.564   1.682 -0.3687  0.0759 -0.3702
13808TIP3    H162839   6.776   6.642   1.643 -0.6917  1.1386  1.3535
13808TIP3    H262840   6.644   6.571   1.658 -0.2444 -0.3116 -1.0123
13809TIP3   OH262841   3.420   0.272  16.849 -0.1307  0.3508  0.5673
13809TIP3    H162842   3.354   0.301  16.786 -0.7853 -0.8015  0.7080
13809TIP3    H262843   3.490   0.234  16.795 -0.5586 -0.3737  0.5241
13810TIP3   OH262844   5.343   2.294  13.307  0.2199  0.4473  0.6202
13810TIP3    H162845   5.409   2.333  13.364  0.3300  0.5816  0.4030
13810TIP3    H262846   5.318   2.213  13.351  2.6135 -1.1152 -0.6653
13811TIP3   OH262847   2.627   3.222   5.444 -0.3689  0.0217 -0.0001
13811TIP3    H162848   2.605   3.256   5.531  1.6310  0.5010  0.3756
13811TIP3    H262849   2.656   3.132   5.461  1.5449  0.6106  0.1197
13812TIP3   OH262850   3.549   4.401   0.139 -0.0020  0.1731 -0.5355
13812TIP3    H162851   3.460   4.435   0.124 -0.6700 -1.1444  0.2426
13812TIP3    H262852   3.541   4.306   0.124  0.4626 -0.4952  2.6934
13813TIP3   OH262853   3.933   2.363   4.787 -0.3500 -0.5839 -0.4726
13813TIP3    H162854   4.004   2.378   4.849  0.2475 -1.4672 -0.9279
13813TIP3    H262855   3.910   2.271   4.798  0.1844 -0.9220 -1.9759
13814TIP3   OH262856   0.817   3.559  12.604 -0.2770 -0.1912 -0.1057
13814TIP3    H162857   0.762   3.636  12.589  1.5707  0.8924 -1.7660
13814TIP3    H262858   0.778   3.516  12.680 -0.4202  3.2635  1.9737
13815TIP3   OH262859   5.665   3.066  10.565 -0.0942 -0.0124 -0.0354
13815TIP3    H162860   5.691   3.122  10.638  2.0863 -0.5410 -0.3377
13815TIP3    H262861   5.710   2.983  10.581 -3.0074 -1.6780  0.2439
13816TIP3   OH262862   0.616   4.149   0.814 -0.1620  0.8858  0.3073
13816TIP3    H162863   0.563   4.074   0.784  0.2174  1.1909 -1.2056
13816TIP3    H262864   0.626   4.204   0.736  0.0690  2.2278  1.2493
13817TIP3   OH262865   6.341   2.477  13.741 -0.2943 -0.0993  0.2901
13817TIP3    H162866   6.378   2.389  13.730 -0.6808 -0.3473  0.9389
13817TIP3    H262867   6.246   2.464  13.736 -0.4533 -0.0258  2.3762
13818TIP3   OH262868   3.904   5.232   1.645 -0.1933 -0.0974  0.1828
13818TIP3    H162869   3.927   5.323   1.660 -0.2529  0.0919 -0.8047
13818TIP3    H262870   3.812   5.226   1.670 -0.0473 -0.0151  0.7469
13819TIP3   OH262871   0.743   1.620  16.359  0.1849  0.0705  0.8693
13819TIP3    H162872   0.758   1.697  16.305  0.9181 -1.4044 -1.1380
13819TIP3    H262873   0.812   1.624  16.425  1.5127  0.1025 -0.4628
13820TIP3   OH262874   5.384   1.463   1.260 -0.3670  0.1330 -0.2610
13820TIP3    H162875   5.368   1.523   1.188 -0.4600 -0.2139 -0.5324
13820TIP3    H262876   5.309   1.403   1.259  0.3777 -0.7997 -0.8277
13821TIP3   OH262877   3.878   5.848  15.085  0.3677 -0.0015 -0.0668
13821TIP3    H162878   3.832   5.917  15.039  0.0478 -0.7297 -0.8666
13821TIP3    H262879   3.940   5.813  15.021  1.4142  0.3537  0.7052
13822TIP3   OH262880   2.641   1.989  13.245 -0.2547 -0.4327 -0.1054
13822TIP3    H162881   2.580   2.024  13.310 -0.3249 -0.1778 -0.3052
13822TIP3    H262882   2.727   1.997  13.286 -0.4410 -1.6473  0.5499
13823TIP3   OH262883   0.809   0.826   6.629  0.4471 -0.1141 -0.4968
13823TIP3    H162884   0.754   0.857   6.557 -0.3741  1.3255  0.6964
13823TIP3    H262885   0.823   0.733   6.610 -3.1104 -0.8043 -0.4847
13824TIP3   OH262886   4.040   2.111   2.271  0.1851 -0.4120 -0.8058
13824TIP3    H162887   4.001   2.050   2.208  0.8151 -1.7231  0.0351
13824TIP3    H262888   4.131   2.118   2.244 -0.2445  1.5815 -1.9440
13825TIP3   OH262889   3.116   0.738  12.776  0.2110 -0.8308  0.0100
13825TIP3    H162890   3.170   0.664  12.748  2.0674  0.2706  0.5470
13825TIP3    H262891   3.071   0.766  12.696  2.0554 -0.4680 -0.9430
13826TIP3   OH262892   6.353   5.111   1.475  0.2970 -0.6497 -0.4536
13826TIP3    H162893   6.356   5.025   1.516  0.6292 -0.8164 -0.8196
13826TIP3    H262894   6.440   5.149   1.492  0.4292 -0.7095 -0.9695
13827TIP3   OH262895   4.253   4.189   5.732 -0.6680  0.1853 -0.3395
13827TIP3    H162896   4.196   4.267   5.735 -0.8418  0.0697 -0.6236
13827TIP3    H262897   4.287   4.188   5.643  0.3616  0.6641  0.0378
13828TIP3   OH262898   0.949   5.984   4.306  0.1735  0.4614  0.2657
13828TIP3    H162899   0.904   6.033   4.375  1.3132  0.7920  0.8036
13828TIP3    H262900   0.980   5.904   4.348  0.1930  0.2913 -0.0632
13829TIP3   OH262901   5.430   4.707  14.907 -0.5509 -0.0523  0.8780
13829TIP3    H162902   5.405   4.636  14.847 -0.6351 -0.1219  0.9946
13829TIP3    H262903   5.484   4.765  14.854  0.7898 -0.9749  1.1726
13830TIP3   OH262904   4.578   3.729   4.216  0.5055  0.4242  0.2396
13830TIP3    H162905   4.573   3.727   4.311 -1.0001  1.3415  0.2165
13830TIP3    H262906   4.525   3.804   4.190 -0.3774 -0.6793 -1.3752
13831TIP3   OH262907   5.020   3.830   1.107 -0.2061  0.0763  0.3310
13831TIP3    H162908   5.111   3.852   1.090  0.1248  0.2837  2.1733
13831TIP3    H262909   4.974   3.914   1.098 -0.1207  0.0983  0.0755
13832TIP3   OH262910   1.726   0.735   1.262  0.2148  0.0796 -0.2550
13832TIP3    H162911   1.757   0.825   1.277  1.3162 -0.3970  0.5147
13832TIP3    H262912   1.796   0.694   1.211 -0.6646 -0.1230 -1.3245
13833TIP3   OH262913   2.320   6.311   5.542  0.1388 -0.0706 -0.1764
13833TIP3    H162914   2.336   6.363   5.621  0.1049 -0.2461 -0.0531
13833TIP3    H262915   2.234   6.273   5.556  0.3401 -0.4932 -0.0805
13834TIP3   OH262916   0.137   0.301  14.150  0.5762  0.2427  0.1358
13834TIP3    H162917   0.110   0.339  14.234  1.8761 -0.3556  0.8571
13834TIP3    H262918   0.179   0.219  14.174  2.5336  0.8736 -0.9250
13835TIP3   OH262919   5.909   4.470   2.477  0.1305  0.2957 -0.2493
13835TIP3    H162920   5.917   4.565   2.462 -1.0346  0.3213 -0.8472
13835TIP3    H262921   5.865   4.463   2.562 -0.0151  0.2968 -0.3247
13836TIP3   OH262922   3.766   2.461  16.187  0.0281  0.2794  0.0731
13836TIP3    H162923   3.827   2.389  16.201  0.5158  0.3060 -1.6685
13836TIP3    H262924   3.701   2.426  16.126 -0.8329  0.7302  0.7140
13837TIP3   OH262925   5.715   2.196  11.883 -0.4018 -0.0785  0.0083
13837TIP3    H162926   5.782   2.133  11.909  0.1147  1.4323  2.6928
13837TIP3    H262927   5.755   2.245  11.811 -0.3248 -1.8896 -1.2485
13838TIP3   OH262928   4.141   2.030   1.696 -0.3710 -0.1424  0.1122
13838TIP3    H162929   4.124   1.936   1.693 -1.5880  0.0607  0.1487
13838TIP3    H262930   4.124   2.055   1.787  3.0205 -0.3909  0.9342
13839TIP3   OH262931   6.389   0.935   5.097 -0.3834  0.3018  0.3295
13839TIP3    H162932   6.397   1.014   5.043  2.9958  1.4577  2.1664
13839TIP3    H262933   6.323   0.882   5.054 -0.6826  2.8352 -2.6640
13840TIP3   OH262934   0.387   1.932   0.974  0.4063  0.0165  0.1073
13840TIP3    H162935   0.336   1.999   1.021  2.4309  2.2564 -0.6572
13840TIP3    H262936   0.469   1.927   1.022  0.5855 -1.4091 -0.3128
13841TIP3   OH262937   2.514   6.652   5.700 -0.1084  0.4834 -0.4377
13841TIP3    H162938   2.592   6.704   5.719  1.6287 -2.3460  0.9472
13841TIP3    H262939   2.530   6.615   5.614 -0.4246  0.7490 -0.6086
13842TIP3   OH262940   6.201   2.486  11.279  0.0950 -0.1989  0.2557
13842TIP3    H162941   6.177   2.533  11.359  0.8374  0.2427  0.2240
13842TIP3    H262942   6.243   2.552  11.224  0.2320 -0.6670 -0.2110
13843TIP3   OH262943   0.606   4.396  15.824 -0.0980 -0.2637 -0.0032
13843TIP3    H162944   0.610   4.445  15.742 -0.4668  1.4571  0.9502
13843TIP3    H262945   0.516   4.363  15.828 -0.4607  0.7256  0.2763
13844TIP3   OH262946   4.060   5.270   6.633 -0.1322  0.2619  0.4366
13844TIP3    H162947   4.006   5.191   6.629  2.1958 -1.3569 -1.0337
13844TIP3    H262948   4.130   5.248   6.694  0.4549  1.2729  0.1445
13845TIP3   OH262949   2.596   0.650   4.238 -0.1910  0.3205  0.6063
13845TIP3    H162950   2.568   0.718   4.299 -0.5149  0.9059 -0.1769
13845TIP3    H262951   2.516   0.602   4.217  0.2650 -1.2747  2.2859
13846TIP3   OH262952   6.749   4.990  12.569 -1.0942 -0.1629 -0.0382
13846TIP3    H162953   6.660   5.023  12.560 -1.4443 -1.5414 -2.6558
13846TIP3    H262954   6.773   4.960  12.481  0.6735 -2.9918  1.2281
13847TIP3   OH262955   6.418   4.588   3.864  0.5379  0.0046  0.2013
13847TIP3    H162956   6.485   4.655   3.850  0.9256 -0.3832  0.2029
13847TIP3    H262957   6.412   4.579   3.959 -1.2762  1.8071  0.3210
13848TIP3   OH262958   2.659   0.022   3.937  0.0251  0.1650 -0.4193
13848TIP3    H162959   2.724   0.016   3.867  0.9367  0.4885  0.3723
13848TIP3    H262960   2.690  -0.039   4.004  1.6535  2.9346  1.5999
13849TIP3   OH262961   0.934   6.438  11.628 -0.0924  0.1881  0.2707
13849TIP3    H162962   0.964   6.502  11.692  0.6871  1.5852 -1.4169
13849TIP3    H262963   0.841   6.458  11.616 -0.0425  0.4648  0.3529
13850TIP3   OH262964   4.993   6.049   2.093  0.3100 -0.1137 -0.2185
13850TIP3    H162965   4.994   6.059   2.188 -0.7769  1.9621 -0.3817
13850TIP3    H262966   5.016   5.957   2.078  0.0918 -0.5776  2.0506
13851TIP3   OH262967   2.263   3.711   1.329 -0.8119 -0.1660  0.2771
13851TIP3    H162968   2.195   3.659   1.286 -1.7273  1.0709  0.1908
13851TIP3    H262969   2.284   3.661   1.408 -0.5610 -1.4244 -0.5448
13852TIP3   OH262970   5.967   0.220   3.247 -0.0415 -0.2646 -0.4605
13852TIP3    H162971   5.999   0.310   3.237 -0.5478  0.0836  0.8168
13852TIP3    H262972   6.033   0.166   3.205  0.4329  0.6834 -0.9690
13853TIP3   OH262973   1.971   6.565  15.972  0.3954  0.3040 -0.3528
13853TIP3    H162974   2.004   6.535  16.057 -1.1674 -0.1128  0.1452
13853TIP3    H262975   1.882   6.596  15.991 -0.4518 -0.9208 -2.0222
13854TIP3   OH262976   5.570   3.911   0.951 -0.1960 -0.0344 -0.2502
13854TIP3    H162977   5.567   3.996   0.994  0.6526 -1.0541  1.9963
13854TIP3    H262978   5.627   3.924   0.875 -1.5017  1.7743 -0.9847
13855TIP3   OH262979   4.363   3.440  12.463  0.1847 -0.2053 -0.0173
13855TIP3    H162980   4.395   3.502  12.529 -0.8423 -0.6213  0.9003
13855TIP3    H262981   4.441   3.414  12.415  1.4652 -1.8577  2.6906
13856TIP3   OH262982   3.310   3.176   5.150  0.2633 -0.5692 -0.0621
13856TIP3    H162983   3.268   3.130   5.077  1.0003 -0.2354 -0.7199
13856TIP3    H262984   3.378   3.116   5.181  0.2140 -0.5485  0.0874
13857TIP3   OH262985   6.738   4.128   4.077 -0.1367  0.0287 -1.0193
13857TIP3    H162986   6.659   4.080   4.100 -0.0303  0.5097  0.4504
13857TIP3    H262987   6.710   4.192   4.011 -1.0061  0.2886 -0.4120
13858TIP3   OH262988   0.775   2.154   4.286  0.1305 -0.0132  0.2445
13858TIP3    H162989   0.696   2.208   4.274  0.9697  1.2378  0.1841
13858TIP3    H262990   0.783   2.144   4.381 -1.8744 -2.9152  0.2362
13859TIP3   OH262991   1.707   4.061   5.064  0.1405 -0.1317  0.1932
13859TIP3    H162992   1.788   4.020   5.034  0.2644 -0.2938  0.7449
13859TIP3    H262993   1.638   4.003   5.032  0.1731  0.5184 -1.1287
13860TIP3   OH262994   0.206   5.836   3.133 -0.0460 -0.3685  0.1147
13860TIP3    H162995   0.158   5.866   3.056  1.0613  0.3876 -0.3157
13860TIP3    H262996   0.140   5.829   3.202 -1.1404 -1.5478 -1.0231
13861TIP3   OH262997   1.202   2.171  14.824  0.5547  0.5567 -0.2042
13861TIP3    H162998   1.226   2.217  14.905 -1.0577 -0.0300  0.6535
13861TIP3    H262999   1.212   2.236  14.755  0.7921  1.4230  0.6254
13862TIP3   OH263000   5.234   4.537   6.156 -0.2821 -0.0919  0.3740
13862TIP3    H163001   5.221   4.562   6.248  1.5599  0.1209  0.6118
13862TIP3    H263002   5.217   4.443   6.155  0.3828 -0.2435  1.1192
13863TIP3   OH263003   1.845   1.867  16.584 -0.6749  0.2103  0.2584
13863TIP3    H163004   1.931   1.833  16.562 -0.8073  0.9976 -1.6926
13863TIP3    H263005   1.789   1.790  16.593  0.4467 -0.3744  2.7738
13864TIP3   OH263006   4.821   2.625   1.505  0.1580  0.1476  0.1315
13864TIP3    H163007   4.788   2.540   1.532 -1.1426  0.8353  0.7699
13864TIP3    H263008   4.864   2.608   1.421 -1.2771 -0.9045 -0.4324
13865TIP3   OH263009   2.415   0.010  13.422  0.1913 -0.2279  0.2385
13865TIP3    H163010   2.475   0.042  13.354  0.9048 -0.3001  0.8274
13865TIP3    H263011   2.362   0.086  13.445  0.6224  0.0543  0.3034
13866TIP3   OH263012   0.244   3.998   2.590  0.0994  0.3748  0.6127
13866TIP3    H163013   0.243   4.006   2.494  2.4194 -0.8762  0.4123
13866TIP3    H263014   0.174   3.937   2.610  0.3770 -0.3057 -0.4238
13867TIP3   OH263015   2.245   3.951  12.994  0.4623  0.3749  0.0117
13867TIP3    H163016   2.264   3.897  13.070 -0.1683 -0.8576 -0.6616
13867TIP3    H263017   2.166   3.999  13.017  0.3952  0.1651  0.2208
13868TIP3   OH263018   2.443   5.195  15.322  0.1153 -0.0595 -0.1141
13868TIP3    H163019   2.362   5.145  15.328 -0.3990  0.6121 -1.1313
13868TIP3    H263020   2.425   5.274  15.373 -0.3655  0.6777 -1.3615
13869TIP3   OH263021   5.973   4.299  15.799  0.4543 -0.0063  0.8705
13869TIP3    H163022   5.967   4.373  15.860 -1.9062  0.3241  0.3307
13869TIP3    H263023   6.066   4.294  15.777  0.8926  1.8602  2.0552
13870TIP3   OH263024   2.282   1.109   4.063 -0.2344  0.1420 -0.6264
13870TIP3    H163025   2.215   1.044   4.084 -1.0226  0.5565 -1.8303
13870TIP3    H263026   2.234   1.184   4.028  0.8012  0.7206 -0.8447
13871TIP3   OH263027   5.904   2.884   0.255  0.4785  0.2804  0.0527
13871TIP3    H163028   5.855   2.908   0.176  3.8667 -0.5314 -2.5286
13871TIP3    H263029   5.877   2.794   0.273 -0.0347  0.3381 -0.3852
13872TIP3   OH263030   4.643   0.617   5.757 -0.4181  0.1470 -0.8505
13872TIP3    H163031   4.725   0.653   5.793 -0.7221  0.2269 -0.2247
13872TIP3    H263032   4.611   0.559   5.826 -0.1766 -0.9752 -1.6655
13873TIP3   OH263033   3.769   1.477   3.226 -0.5880 -0.2096  0.0005
13873TIP3    H163034   3.853   1.493   3.268  0.2768 -0.5360 -1.5259
13873TIP3    H263035   3.716   1.553   3.249 -0.1984 -0.4086  1.6991
13874TIP3   OH263036   3.824   4.492  15.476  0.2123 -0.4937  0.4592
13874TIP3    H163037   3.911   4.489  15.436  0.1460 -0.3826  0.3063
13874TIP3    H263038   3.782   4.411  15.447 -2.0873  2.0962 -4.8430
13875TIP3   OH263039   5.559   2.872  13.807  0.5785 -0.0263 -0.1139
13875TIP3    H163040   5.646   2.841  13.830  0.0575 -2.0906 -0.7520
13875TIP3    H263041   5.558   2.871  13.711 -0.7032 -1.8473 -0.1372
13876TIP3   OH263042   1.174   6.773  16.429  0.2608 -0.3507  0.0584
13876TIP3    H163043   1.256   6.731  16.406  1.2872  0.6241  1.7436
13876TIP3    H263044   1.133   6.793  16.344  1.8909 -0.5870 -0.8298
13877TIP3   OH263045   2.214   0.884  11.615 -0.4622 -0.3445  0.2717
13877TIP3    H163046   2.305   0.903  11.636 -0.1333 -1.6703  0.1446
13877TIP3    H263047   2.163   0.940  11.674  0.4296  0.1204  0.6167
13878TIP3   OH263048   5.387   3.178  11.225  0.1682 -0.5782 -0.0636
13878TIP3    H163049   5.306   3.174  11.174  0.0761 -0.8543  0.1029
13878TIP3    H263050   5.417   3.268  11.216  0.9313 -0.9546 -1.8287
13879TIP3   OH263051   5.527   4.562  11.906 -0.5869  0.3615  0.3530
13879TIP3    H163052   5.600   4.501  11.892  0.2338  1.8213 -2.3336
13879TIP3    H263053   5.526   4.576  12.001  1.4113 -1.1618  0.6614
13880TIP3   OH263054   4.827   0.848   4.581  0.0529  0.1176 -0.3204
13880TIP3    H163055   4.779   0.879   4.504 -2.0002 -3.4148 -0.6889
13880TIP3    H263056   4.898   0.795   4.545 -1.1688 -1.9029  0.1069
13881TIP3   OH263057   1.933   0.733   2.387 -0.1753  0.3896  0.1278
13881TIP3    H163058   1.858   0.686   2.424 -0.3506 -0.1600 -0.8997
13881TIP3    H263059   2.009   0.688   2.424 -0.3456 -0.3674 -0.4191
13882TIP3   OH263060   0.098   4.772   2.148  0.9948  0.0594 -0.3190
13882TIP3    H163061   0.105   4.821   2.230 -0.3753 -2.7972  1.6692
13882TIP3    H263062   0.023   4.811   2.103  0.5547  0.4182  0.7061
13883TIP3   OH263063   3.324   2.054   3.941  0.0201  0.1770  0.2557
13883TIP3    H163064   3.394   1.989   3.936  1.5394  1.7318  0.4776
13883TIP3    H263065   3.252   2.009   3.985  0.6408 -1.6512 -0.5240
13884TIP3   OH263066   1.388   4.555  16.046 -0.0290 -0.2100  0.1776
13884TIP3    H163067   1.483   4.560  16.034 -0.2390  0.4062 -1.6635
13884TIP3    H263068   1.360   4.486  15.987 -0.7922  0.1187  0.1414
13885TIP3   OH263069   0.223   2.172   4.651  0.2198 -0.1735 -0.4386
13885TIP3    H163070   0.301   2.212   4.687  0.1506 -0.6660  0.2743
13885TIP3    H263071   0.152   2.233   4.673  0.3736  0.2226 -0.9986
13886TIP3   OH263072   1.737   0.768  16.206  0.5872  0.0239 -0.8336
13886TIP3    H163073   1.673   0.768  16.134  0.2541  0.4216 -0.5367
13886TIP3    H263074   1.766   0.859  16.212  1.1113 -0.1365 -0.9016
13887TIP3   OH263075   6.162   6.258  12.937  0.1210  0.0613  0.3155
13887TIP3    H163076   6.074   6.220  12.927  0.2072 -0.1171  0.2264
13887TIP3    H263077   6.146   6.348  12.966 -0.0962  0.0755  0.1573
13888TIP3   OH263078   6.554   1.971  11.102 -0.2911  0.0812  0.1513
13888TIP3    H163079   6.526   1.885  11.069  0.7891 -0.0428 -0.4646
13888TIP3    H263080   6.538   2.031  11.029  0.7826  0.0553 -0.1107
13889TIP3   OH263081   4.313   5.239  15.823  0.2911 -0.3167 -0.1267
13889TIP3    H163082   4.244   5.176  15.801 -1.5745  1.3781  0.5683
13889TIP3    H263083   4.372   5.191  15.881 -0.7518 -1.5920 -0.0738
13890TIP3   OH263084   5.434   2.053   4.485 -0.1956  0.0836 -0.1573
13890TIP3    H163085   5.514   2.003   4.500 -0.7698 -0.7696  0.1188
13890TIP3    H263086   5.463   2.145   4.486  0.6082 -0.1642  0.9856
13891TIP3   OH263087   0.064   0.767  13.550 -0.1150 -0.0687 -0.1593
13891TIP3    H163088  -0.007   0.755  13.487 -0.4634 -0.1390  0.2495
13891TIP3    H263089   0.143   0.742  13.501 -0.2729  0.7330 -0.8461
13892TIP3   OH263090   1.205   1.210   5.159  0.1286  0.3641  0.9652
13892TIP3    H163091   1.253   1.215   5.242 -2.3488 -0.9992  2.6190
13892TIP3    H263092   1.124   1.165   5.181 -0.4532 -0.4884 -2.3498
13893TIP3   OH263093   3.632   4.605   3.109  0.2481 -0.0588 -0.0754
13893TIP3    H163094   3.669   4.527   3.152  2.6133  1.6943  1.2845
13893TIP3    H263095   3.659   4.597   3.018 -1.3228 -1.7880 -0.4601
13894TIP3   OH263096   2.753   2.423   4.690 -0.0130 -0.0285 -0.3463
13894TIP3    H163097   2.722   2.347   4.739  0.4189  1.2855  2.1707
13894TIP3    H263098   2.676   2.478   4.680  0.4948  1.3659  2.2897
13895TIP3   OH263099   6.667   1.218  11.160  0.2750 -0.3268  0.1117
13895TIP3    H163100   6.696   1.187  11.246 -0.3357  0.3987  0.5863
13895TIP3    H263101   6.709   1.303  11.150  0.5610 -0.5228 -0.4440
13896TIP3   OH263102   3.522   5.857  11.504 -0.3255 -0.1204 -1.0709
13896TIP3    H163103   3.459   5.922  11.472 -0.6142 -0.7746 -1.8819
13896TIP3    H263104   3.517   5.864  11.599 -0.9752  0.4574 -1.1345
13897TIP3   OH263105   3.314   2.648   1.447  0.4096 -0.3758 -0.2733
13897TIP3    H163106   3.280   2.726   1.403 -0.4714 -0.3277  0.4484
13897TIP3    H263107   3.300   2.666   1.541  0.3126 -1.3445 -0.0944
13898TIP3   OH263108   3.260   2.901   4.547  0.3153  0.1714  0.3751
13898TIP3    H163109   3.243   2.995   4.542 -1.0099 -0.0967 -1.1370
13898TIP3    H263110   3.354   2.895   4.564  0.6758  1.7833 -0.7067
13899TIP3   OH263111   2.762   2.117  12.248  0.2315 -0.5749  0.0588
13899TIP3    H163112   2.704   2.112  12.324 -0.9608 -3.0771 -0.8906
13899TIP3    H263113   2.717   2.177  12.188 -0.8781 -1.6521 -0.2233
13900TIP3   OH263114   1.369   5.293  13.218 -1.0280  0.1456  0.1668
13900TIP3    H163115   1.299   5.267  13.159  0.0649  2.4033 -2.3075
13900TIP3    H263116   1.350   5.384  13.240 -0.1781  0.0325  1.4832
13901TIP3   OH263117   0.151   1.560  13.423  0.3893 -0.0390 -0.0813
13901TIP3    H163118   0.114   1.530  13.340  2.7001 -0.2379 -1.1039
13901TIP3    H263119   0.133   1.654  13.424 -1.4048 -0.3385  0.2035
13902TIP3   OH263120   0.914   1.739  13.573  0.0544  0.1705 -0.0425
13902TIP3    H163121   0.862   1.661  13.555  0.2588  0.3076 -1.2887
13902TIP3    H263122   0.864   1.811  13.535  1.0204  0.3300 -1.0681
13903TIP3   OH263123   0.154   0.882   0.928 -0.0452 -0.4456  0.0704
13903TIP3    H163124   0.137   0.865   1.021  2.9760 -0.9274  0.6203
13903TIP3    H263125   0.198   0.967   0.928  2.6620 -1.7344 -0.4936
13904TIP3   OH263126   6.108   2.741  14.152 -0.6301 -0.6064 -0.2617
13904TIP3    H163127   6.158   2.678  14.100  0.6574 -2.7865  3.2370
13904TIP3    H263128   6.162   2.820  14.151  0.1402 -1.1156 -0.9897
13905TIP3   OH263129   4.986   2.764  14.851 -0.3537  0.4451 -0.4669
13905TIP3    H163130   5.077   2.790  14.840 -0.6280  1.3495 -0.6587
13905TIP3    H263131   4.949   2.830  14.910 -0.0913 -1.6729  2.2816
13906TIP3   OH263132   1.435   3.424  12.807  0.6617 -0.6311 -0.4071
13906TIP3    H163133   1.495   3.358  12.843  2.2835  0.7545 -0.4490
13906TIP3    H263134   1.369   3.436  12.876 -1.0037 -3.7867 -1.2383
13907TIP3   OH263135   2.417   5.155   3.288  0.2197  0.0099 -0.4782
13907TIP3    H163136   2.451   5.078   3.242 -1.6081 -0.3475 -1.3231
13907TIP3    H263137   2.391   5.121   3.374  3.2341  0.5909  0.7838
13908TIP3   OH263138   3.218   4.263  14.472  0.2625  0.3771  0.4010
13908TIP3    H163139   3.192   4.326  14.539  1.1333  0.4550  0.6672
13908TIP3    H263140   3.284   4.208  14.514 -2.6490 -2.8292  1.2764
13909TIP3   OH263141   0.593   2.974   3.717  0.3528  0.2811 -0.4714
13909TIP3    H163142   0.667   2.913   3.715  0.1135  0.0020 -0.7535
13909TIP3    H263143   0.585   2.997   3.810 -0.1370 -0.8335 -0.2134
13910TIP3   OH263144   0.413   6.670   5.473 -0.0217 -0.4766  0.3209
13910TIP3    H163145   0.482   6.697   5.412  0.8698 -2.1915  0.5254
13910TIP3    H263146   0.429   6.577   5.489 -0.5946 -0.2550  2.6643
13911TIP3   OH263147   2.855   4.284  12.114 -0.3335  0.6777  0.3056
13911TIP3    H163148   2.893   4.318  12.033 -0.4929  1.1149  0.4132
13911TIP3    H263149   2.911   4.320  12.183 -0.0009  0.0427  0.3756
13912TIP3   OH263150   0.880   5.888   5.648  0.1751  0.1848  0.1096
13912TIP3    H163151   0.971   5.913   5.663 -0.4517  1.0678  2.9366
13912TIP3    H263152   0.877   5.796   5.673  0.3435  0.0775 -0.2607
13913TIP3   OH263153   5.541   2.834  15.436  0.1660 -0.1358 -0.4609
13913TIP3    H163154   5.488   2.856  15.512  0.6587 -0.3444 -0.0489
13913TIP3    H263155   5.630   2.828  15.470  0.6801  1.5634 -1.3787
13914TIP3   OH263156   1.124   0.357   1.557 -0.0717  0.0866 -1.0546
13914TIP3    H163157   1.151   0.276   1.600 -2.4820  0.6293  1.8277
13914TIP3    H263158   1.175   0.426   1.599 -0.6462  0.4021 -0.8634
13915TIP3   OH263159   6.464   2.865   5.503 -0.2045  0.3072 -0.7272
13915TIP3    H163160   6.413   2.903   5.432 -1.4875 -0.1614 -0.0864
13915TIP3    H263161   6.401   2.849   5.573  0.4499 -1.9807 -0.5731
13916TIP3   OH263162   6.065   6.102  12.606 -0.0556  0.2155  0.7726
13916TIP3    H163163   6.120   6.177  12.584  0.1094 -0.2806 -0.6022
13916TIP3    H263164   6.012   6.132  12.680  0.1881  1.5945  0.4155
13917TIP3   OH263165   1.123   6.470  15.473 -0.0948 -0.1008 -0.8120
13917TIP3    H163166   1.038   6.514  15.476 -0.4540 -0.6527 -2.0132
13917TIP3    H263167   1.103   6.382  15.443  0.8512 -0.4090 -0.5708
13918TIP3   OH263168   3.979   3.629   1.258  0.2019 -0.3724 -0.7172
13918TIP3    H163169   4.063   3.601   1.295 -0.4227 -2.2517 -0.5931
13918TIP3    H263170   3.988   3.610   1.164  0.4738  0.9490 -0.9730
13919TIP3   OH263171   0.361   6.150  11.066  0.7162 -0.1117  0.3175
13919TIP3    H163172   0.434   6.149  11.005  0.3193 -1.6157 -0.1721
13919TIP3    H263173   0.403   6.149  11.153  1.2666  0.3093  0.0653
13920TIP3   OH263174   6.694   3.249   4.448  0.0388 -0.4373  0.0621
13920TIP3    H163175   6.747   3.191   4.503  1.7972 -0.5480 -1.6367
13920TIP3    H263176   6.605   3.241   4.483  0.8199 -1.6041  1.9319
13921TIP3   OH263177   0.208   4.232  12.923 -0.8753 -0.0216 -0.3655
13921TIP3    H163178   0.285   4.178  12.906  0.7764  2.4780 -1.2764
13921TIP3    H263179   0.188   4.216  13.015 -0.3247 -1.9342 -0.5219
13922TIP3   OH263180   4.036   4.593  15.345  0.0485  0.2315  0.0319
13922TIP3    H163181   4.066   4.529  15.281  1.5834  1.0368 -0.1014
13922TIP3    H263182   3.999   4.664  15.292 -1.3505 -0.3495  0.1698
13923TIP3   OH263183   0.029   0.317  16.944  0.4464  0.7110  0.0506
13923TIP3    H163184   0.102   0.363  16.986  0.7960  1.4759 -1.3203
13923TIP3    H263185  -0.022   0.386  16.902 -0.5158  0.0832  0.1626
13924TIP3   OH263186   3.014   5.735  16.417  0.1165  0.3963  0.3629
13924TIP3    H163187   3.034   5.698  16.331 -1.2371 -0.1176  0.2434
13924TIP3    H263188   3.076   5.693  16.476 -0.8827 -1.5711  0.1065
13925TIP3   OH263189   3.616   6.134   5.081 -0.2167  0.0817  0.0548
13925TIP3    H163190   3.683   6.084   5.034 -0.2173  0.7352 -0.6458
13925TIP3    H263191   3.533   6.101   5.046 -0.2109  0.8613 -0.7322
13926TIP3   OH263192   3.843   0.461  11.136 -0.1347 -0.2169  0.3846
13926TIP3    H163193   3.891   0.538  11.105 -0.7236 -0.3301 -0.8622
13926TIP3    H263194   3.756   0.494  11.158 -0.9332 -0.7508 -1.7295
13927TIP3   OH263195   0.840   3.629  16.666 -0.3437  0.3812 -0.6316
13927TIP3    H163196   0.843   3.556  16.728 -1.4107  0.8519  0.0094
13927TIP3    H263197   0.753   3.624  16.626  0.1315  0.4165 -1.6940
13928TIP3   OH263198   5.571   1.397   5.052 -0.3278 -0.5429 -0.5408
13928TIP3    H163199   5.625   1.349   5.115 -0.1001 -0.4000 -0.6235
13928TIP3    H263200   5.530   1.329   4.998  0.1381 -0.6466 -0.7777
13929TIP3   OH263201   2.332   5.815   5.138  0.0658 -0.0182 -0.3232
13929TIP3    H163202   2.267   5.819   5.208  0.8434 -0.1644  0.4183
13929TIP3    H263203   2.376   5.731   5.151 -0.3390 -0.4284 -1.4979
13930TIP3   OH263204   0.917   5.446  13.688  0.0838 -0.2158  0.0117
13930TIP3    H163205   0.863   5.435  13.766  1.1779  0.9283  0.9782
13930TIP3    H263206   0.992   5.498  13.718  1.5115 -1.3753 -1.3617
13931TIP3   OH263207   3.637   0.419   2.231  0.0780  0.3687 -0.3720
13931TIP3    H163208   3.704   0.453   2.171 -0.7094 -0.7080 -1.9481
13931TIP3    H263209   3.675   0.338   2.266 -0.4733 -0.4147 -1.5156
13932TIP3   OH263210   4.942   0.458  14.014 -0.3015  0.3244  0.3832
13932TIP3    H163211   4.948   0.548  13.980 -1.1584  0.9589  1.8006
13932TIP3    H263212   4.850   0.448  14.039  0.4133  0.3322  3.4767
13933TIP3   OH263213   0.837   0.458  16.263 -0.1309  0.0948 -0.1028
13933TIP3    H163214   0.762   0.508  16.296 -1.1032 -1.7675  0.6970
13933TIP3    H263215   0.847   0.386  16.326  1.0193 -0.8833 -1.3350
13934TIP3   OH263216   4.062   2.555   6.249 -0.1184 -0.2507 -0.4089
13934TIP3    H163217   4.108   2.517   6.324  1.5231  1.0006 -0.7174
13934TIP3    H263218   3.974   2.575   6.282  0.3428 -0.3861  0.9707
13935TIP3   OH263219   6.758   5.435   4.084 -0.1369  0.0533  0.3388
13935TIP3    H163220   6.674   5.473   4.060 -0.1561  0.8432  1.5851
13935TIP3    H263221   6.823   5.492   4.043 -0.1799  0.9971  1.5440
13936TIP3   OH263222   3.277   2.069  14.291 -0.4733 -0.0586 -0.4118
13936TIP3    H163223   3.289   2.136  14.359 -2.5195  1.8659 -1.8072
13936TIP3    H263224   3.364   2.059  14.253  0.1198  0.9879  0.5694
13937TIP3   OH263225   0.639   4.471  12.567 -0.4069  0.4369  0.3922
13937TIP3    H163226   0.556   4.423  12.558 -0.1606  0.1847 -0.5802
13937TIP3    H263227   0.636   4.507  12.656 -0.8668 -0.8744  0.9279
13938TIP3   OH263228   0.578   2.097   2.283 -0.5541  0.3097  0.1378
13938TIP3    H163229   0.589   2.192   2.292  2.1628 -0.0448  1.3472
13938TIP3    H263230   0.557   2.066   2.371  0.6443 -0.4017  0.1986
13939TIP3   OH263231   0.360   0.728  14.866  0.6309  0.4738  0.2646
13939TIP3    H163232   0.444   0.702  14.829  1.4508  1.5307  1.3082
13939TIP3    H263233   0.302   0.654  14.848  2.2101 -1.0088  0.9305
13940TIP3   OH263234   5.441   4.901  16.432  0.1968  0.1324 -0.1991
13940TIP3    H163235   5.457   4.953  16.354 -0.9600  0.2471 -0.3711
13940TIP3    H263236   5.528   4.873  16.460  0.5964 -0.4026 -1.8653
13941TIP3   OH263237   0.739   5.471  15.245 -0.5149 -0.3419  0.2088
13941TIP3    H163238   0.763   5.497  15.156  2.0959 -0.9462  0.6633
13941TIP3    H263239   0.670   5.406  15.233  1.3610 -2.1651 -1.5949
13942TIP3   OH263240   0.130   5.308   0.803 -0.2028  0.1712  0.2454
13942TIP3    H163241   0.090   5.353   0.878  0.1102 -0.6802  0.9367
13942TIP3    H263242   0.124   5.215   0.825  0.2037 -0.0690 -0.6343
13943TIP3   OH263243   2.759   3.230   1.004  0.2488 -0.0388  0.0481
13943TIP3    H163244   2.800   3.258   1.086  1.2806  1.1293 -0.8257
13943TIP3    H263245   2.671   3.201   1.030 -0.2683  2.3630  1.3031
13944TIP3   OH263246   1.512   2.918   3.610  0.0442 -0.0321  0.2283
13944TIP3    H163247   1.545   2.911   3.700  0.8398  1.2592  0.0624
13944TIP3    H263248   1.436   2.861   3.608  0.6962 -0.9923  1.3980
13945TIP3   OH263249   3.707   3.844   0.566 -0.4618 -0.0035  0.0471
13945TIP3    H163250   3.624   3.882   0.538  0.1561 -0.9794 -3.6716
13945TIP3    H263251   3.771   3.881   0.505  1.3284 -1.5241  0.9287
13946TIP3   OH263252   1.829   4.916   5.585 -0.4846  0.8808 -0.2100
13946TIP3    H163253   1.752   4.875   5.546 -0.0113  0.3815 -0.6415
13946TIP3    H263254   1.834   4.880   5.673  0.4473 -0.7470 -0.8804
13947TIP3   OH263255   5.237   5.537   2.590  0.1039 -0.5183 -1.0644
13947TIP3    H163256   5.210   5.561   2.502 -0.2709  0.2684 -0.7422
13947TIP3    H263257   5.293   5.609   2.619 -1.9204  0.5768  0.3340
13948TIP3   OH263258   3.725   0.098   5.361 -0.4749 -0.4560 -0.0728
13948TIP3    H163259   3.690   0.027   5.415 -2.3068  0.5268  0.1106
13948TIP3    H263260   3.680   0.177   5.393  2.5914  1.1020  0.7674
13949TIP3   OH263261   1.781   6.402  16.122  0.8649  0.0090 -0.0556
13949TIP3    H163262   1.783   6.323  16.068 -1.1052 -0.4629  0.4830
13949TIP3    H263263   1.873   6.420  16.140  1.4255 -1.4911 -1.1513
13950TIP3   OH263264   0.189   1.716   0.677 -0.0319 -0.7370  0.6293
13950TIP3    H163265   0.251   1.729   0.605 -0.4265  0.5697  0.5075
13950TIP3    H263266   0.137   1.640   0.650  0.3773 -0.7822 -0.0635
13951TIP3   OH263267   4.804   3.281  17.208 -0.4038  0.9050  0.0608
13951TIP3    H163268   4.742   3.264  17.136 -0.2243 -0.4254  0.1940
13951TIP3    H263269   4.748   3.307  17.282 -0.8723 -0.6057  0.2762
13952TIP3   OH263270   1.392   6.447  14.517  0.4201 -0.2827 -0.3894
13952TIP3    H163271   1.369   6.354  14.526  1.8719 -0.7382 -1.2008
13952TIP3    H263272   1.371   6.468  14.426  1.2101 -0.1372 -0.5391
13953TIP3   OH263273   3.219   3.433   3.870  0.1535  0.7839  0.0660
13953TIP3    H163274   3.245   3.510   3.921  1.1600 -0.4953  1.5843
13953TIP3    H263275   3.126   3.422   3.890  0.2917  0.9027  0.8086
13954TIP3   OH263276   3.991   3.433   2.278  0.5640 -0.5844  0.0205
13954TIP3    H163277   4.041   3.481   2.345  1.3163 -0.2895 -0.7339
13954TIP3    H263278   4.048   3.433   2.201 -1.4717  1.7396 -1.6455
13955TIP3   OH263279   2.994   3.912  12.390 -0.3216 -0.1988 -0.1083
13955TIP3    H163280   2.948   3.835  12.423  0.1397 -1.1402 -1.5804
13955TIP3    H263281   2.931   3.957  12.334 -0.7748  0.8379  1.1903
13956TIP3   OH263282   5.182   5.725  11.158  0.1815  0.4566 -0.0380
13956TIP3    H163283   5.119   5.653  11.166  1.1399 -0.4595 -0.4015
13956TIP3    H263284   5.141   5.786  11.098  0.6753 -1.3625 -2.3788
13957TIP3   OH263285   1.470   6.408  15.956  0.5691 -0.1068 -0.4853
13957TIP3    H163286   1.406   6.349  15.995  1.9858 -1.4378 -0.1065
13957TIP3    H263287   1.473   6.383  15.864  0.8462 -0.3180 -0.4176
13958TIP3   OH263288   1.349   0.201  16.971  0.2173 -0.5357 -0.0297
13958TIP3    H163289   1.411   0.194  17.044  0.7085 -1.3874 -0.5097
13958TIP3    H263290   1.277   0.143  16.995 -0.3450  0.3551  0.4690
13959TIP3   OH263291   2.201   1.129  16.987  0.7002 -0.2061  0.0310
13959TIP3    H163292   2.115   1.155  16.955 -0.4289 -1.3582  1.8781
13959TIP3    H263293   2.244   1.088  16.912 -0.2104  0.6985 -1.0137
13960TIP3   OH263294   1.320   1.283  11.874 -0.0133  0.0145  0.0302
13960TIP3    H163295   1.380   1.210  11.863 -0.9934 -0.7582 -0.3129
13960TIP3    H263296   1.356   1.353  11.819  0.2721 -0.6258 -0.6035
13961TIP3   OH263297   2.596   4.236   4.278  0.1496 -0.1989  0.2134
13961TIP3    H163298   2.691   4.240   4.291  0.0654 -0.7795  1.0693
13961TIP3    H263299   2.567   4.163   4.332 -0.9404  0.7066  0.8926
13962TIP3   OH263300   5.328   0.887  12.769  0.0803  0.0963  0.7168
13962TIP3    H163301   5.339   0.977  12.800  0.5518  1.2005 -2.2483
13962TIP3    H263302   5.414   0.864  12.734 -1.0446  0.3116 -2.6108
13963TIP3   OH263303   1.229   4.492   4.926 -0.1357 -0.0247 -0.6416
13963TIP3    H163304   1.205   4.420   4.983 -1.8916  1.0540  0.0824
13963TIP3    H263305   1.310   4.528   4.964 -1.6672  1.1639  1.7489
13964TIP3   OH263306   1.545   1.208  14.413 -0.3749  0.1118  0.2316
13964TIP3    H163307   1.568   1.122  14.377 -3.7687 -0.8354  0.0322
13964TIP3    H263308   1.497   1.188  14.493 -1.4156  1.7938  0.0688
13965TIP3   OH263309   1.841   5.430   4.286  0.2850  0.1828 -0.2173
13965TIP3    H163310   1.839   5.350   4.233  0.7172 -0.1176  0.1982
13965TIP3    H263311   1.789   5.493   4.238  1.2275  0.1281 -1.3457
13966TIP3   OH263312   1.088   2.750   3.098 -0.4026 -0.4412  0.0621
13966TIP3    H163313   1.004   2.712   3.070 -0.9978 -0.3754  1.6570
13966TIP3    H263314   1.137   2.761   3.017 -1.5598 -1.3928 -0.8090
13967TIP3   OH263315   0.020   5.999   0.951 -0.2036  0.1309 -0.5348
13967TIP3    H163316   0.107   6.027   0.921  1.4176 -2.2682  1.4290
13967TIP3    H263317  -0.014   5.948   0.878  0.3661  0.5181 -1.0853
13968TIP3   OH263318   4.848   3.821  16.260 -0.3237 -0.0093  0.3060
13968TIP3    H163319   4.862   3.742  16.209  1.0178 -0.9421  2.0260
13968TIP3    H263320   4.906   3.886  16.220  0.2285 -0.5375  0.2418
13969TIP3   OH263321   4.397   0.125  12.177 -0.1543  0.2316 -0.4453
13969TIP3    H163322   4.484   0.104  12.212 -0.4043 -0.5188 -0.2739
13969TIP3    H263323   4.374   0.208  12.220  0.7868  0.8284 -1.0550
13970TIP3   OH263324   5.545   4.843  12.980  0.4958  0.1497 -0.3182
13970TIP3    H163325   5.592   4.845  13.063  0.5841 -0.8321 -0.3427
13970TIP3    H263326   5.481   4.914  12.988  0.8479  0.4018  0.3751
13971TIP3   OH263327   2.750   6.401  11.350  0.3131  0.3714  0.0454
13971TIP3    H163328   2.688   6.366  11.286 -2.0161  1.1154  1.7296
13971TIP3    H263329   2.735   6.349  11.429  1.7886  0.6545  0.5410
13972TIP3   OH263330   0.529   3.937   4.625 -0.0654 -0.3207  0.1454
13972TIP3    H163331   0.434   3.936   4.635  0.0788 -1.1633  1.8405
13972TIP3    H263332   0.558   4.014   4.673  0.0955  0.2179 -0.7888
13973TIP3   OH263333   2.039   4.739   0.798  0.2934 -0.3821  0.0373
13973TIP3    H163334   2.091   4.801   0.848 -0.0997 -1.6807  2.1491
13973TIP3    H263335   2.103   4.679   0.759  0.4964 -0.5808  0.6792
13974TIP3   OH263336   0.437   0.483  12.558  0.1409  0.3060 -0.2049
13974TIP3    H163337   0.452   0.522  12.472 -0.4465  1.2751  0.1116
13974TIP3    H263338   0.441   0.389  12.543 -0.5016  0.4541 -1.4017
13975TIP3   OH263339   3.897   2.924   3.054  0.7578 -0.1583 -0.2891
13975TIP3    H163340   3.884   3.015   3.080  0.8007  0.1316 -1.2482
13975TIP3    H263341   3.991   2.911   3.059  0.7197 -0.2849  0.2412
13976TIP3   OH263342   4.641   1.292   3.786 -0.0767  0.5190 -0.0270
13976TIP3    H163343   4.699   1.216   3.783 -0.0326  0.4997  0.9535
13976TIP3    H263344   4.637   1.315   3.879 -2.1146  0.1479  0.0396
13977TIP3   OH263345   0.465   0.368   3.696 -0.1962 -0.5753  0.3132
13977TIP3    H163346   0.422   0.307   3.755 -0.8246  0.0624  0.5378
13977TIP3    H263347   0.432   0.343   3.609 -0.1252 -0.8165  0.3541
13978TIP3   OH263348   4.933   0.616  11.452 -0.3006 -0.2248  0.2733
13978TIP3    H163349   4.905   0.661  11.371  0.4029 -0.2309  0.0159
13978TIP3    H263350   4.857   0.623  11.510 -1.1209 -0.9271 -0.6686
13979TIP3   OH263351   4.783   6.045   4.838 -0.1668  0.0026  0.1906
13979TIP3    H163352   4.797   6.128   4.792 -1.6232 -0.8524 -1.9469
13979TIP3    H263353   4.866   5.999   4.830 -0.2900 -0.0037 -1.4471
13980TIP3   OH263354   0.125   3.771   0.410 -0.0823 -0.0047  0.2992
13980TIP3    H163355   0.054   3.707   0.411  0.5490 -0.8178 -1.6321
13980TIP3    H263356   0.142   3.790   0.502 -2.4641 -0.1239  0.8263
13981TIP3   OH263357   3.832   4.827  16.766 -0.1445 -0.0266 -0.0584
13981TIP3    H163358   3.890   4.880  16.712  1.9033 -1.7141  0.3805
13981TIP3    H263359   3.776   4.781  16.703  0.4535  0.0020 -0.6210
13982TIP3   OH263360   1.021   5.973  12.019 -0.0487 -0.4871 -0.1539
13982TIP3    H163361   1.112   5.995  12.040 -0.5743  0.3707  1.3781
13982TIP3    H263362   1.001   5.900  12.077 -1.1340  1.0697  1.5110
13983TIP3   OH263363   6.657   5.836  12.609  0.4662  0.2742 -0.1564
13983TIP3    H163364   6.593   5.859  12.542 -0.1350 -0.9562 -0.0280
13983TIP3    H263365   6.623   5.756  12.649  1.4331  0.3082  0.7941
13984TIP3   OH263366   5.793   6.035  17.141  0.1856  0.3485 -0.2058
13984TIP3    H163367   5.862   6.091  17.105 -0.4389  0.9722 -0.4653
13984TIP3    H263368   5.728   6.097  17.175 -0.5685 -0.2168 -0.5955
13985TIP3   OH263369   0.857   3.570  12.061  0.3611 -0.1236 -0.4572
13985TIP3    H163370   0.768   3.598  12.085  0.7301 -0.2561  1.1737
13985TIP3    H263371   0.852   3.474  12.060  1.0629 -0.2622  2.2759
13986TIP3   OH263372   0.837   2.302   5.198 -0.0472 -0.2810 -0.6320
13986TIP3    H163373   0.842   2.333   5.288  1.6491 -0.0834 -0.7729
13986TIP3    H263374   0.906   2.349   5.152  0.0640 -1.4519 -1.7209
13987TIP3   OH263375   3.420   0.791   0.550 -0.4187  0.0070  0.4228
13987TIP3    H163376   3.360   0.771   0.622  0.2689  1.0122  1.3084
13987TIP3    H263377   3.404   0.883   0.529  0.3742  0.1173  0.2568
13988TIP3   OH263378   1.469   4.317  11.290 -0.1247  0.1787 -0.1206
13988TIP3    H163379   1.522   4.390  11.322 -0.6789  0.4325  0.2136
13988TIP3    H263380   1.381   4.334  11.322 -1.0311  1.1300 -2.8252
13989TIP3   OH263381   2.776   5.971  14.489 -0.0935 -0.1130 -0.3718
13989TIP3    H163382   2.855   6.020  14.509 -0.2398 -0.2740  0.6670
13989TIP3    H263383   2.771   5.970  14.393 -0.5081  2.5704 -0.4461
13990TIP3   OH263384   6.548   5.175   6.160  0.1321 -0.1120  0.0566
13990TIP3    H163385   6.479   5.109   6.163  0.6931 -0.8012 -1.2428
13990TIP3    H263386   6.507   5.252   6.119  0.3881 -0.9076 -1.7938
13991TIP3   OH263387   1.682   2.707  15.390  0.2516  0.6319  0.0776
13991TIP3    H163388   1.613   2.772  15.399  0.5179  1.1011 -1.1303
13991TIP3    H263389   1.661   2.660  15.310  0.4546 -0.3063  0.5578
13992TIP3   OH263390   4.169   4.695   0.166  0.2098 -0.0950  0.0793
13992TIP3    H163391   4.091   4.677   0.114  0.5832 -2.1405  0.1672
13992TIP3    H263392   4.239   4.646   0.124  1.4450  1.4907  0.1544
13993TIP3   OH263393   0.882   2.902   1.293  0.3296  0.0672  0.1498
13993TIP3    H163394   0.810   2.838   1.293 -0.3338  0.7624  1.7319
13993TIP3    H263395   0.851   2.973   1.237  0.1185  0.0045  0.1852
13994TIP3   OH263396   3.112   2.309  17.233 -0.1730 -0.5470 -0.5497
13994TIP3    H163397   3.043   2.348  17.178 -0.4385 -1.3006 -0.7550
13994TIP3    H263398   3.192   2.320  17.181 -0.0223  0.8538 -0.0614
13995TIP3   OH263399   4.098   6.751  14.724 -0.7411 -0.1001  0.5961
13995TIP3    H163400   4.005   6.775  14.730 -0.3996  2.2175 -1.9004
13995TIP3    H263401   4.134   6.778  14.809 -2.3329 -1.2991  1.7275
13996TIP3   OH263402   2.072   0.959  16.762  0.0279  0.4126  0.0792
13996TIP3    H163403   2.131   0.981  16.690  0.8868 -1.0504  0.2882
13996TIP3    H263404   2.004   1.025  16.759  0.0388  0.3793 -2.0783
13997TIP3   OH263405   6.359   3.292  14.903 -0.0167 -0.4979 -0.0834
13997TIP3    H163406   6.290   3.358  14.890  1.2115  0.6670 -0.9303
13997TIP3    H263407   6.311   3.209  14.910 -1.5283  0.3224 -0.2603
13998TIP3   OH263408   5.634   4.217  15.262  0.1718  0.4659 -0.0343
13998TIP3    H163409   5.676   4.210  15.176  0.6872  0.5388  0.2114
13998TIP3    H263410   5.695   4.268  15.315 -0.0252  0.1970  0.4560
13999TIP3   OH263411   3.812   0.043  12.785 -0.1256  0.1500  0.6596
13999TIP3    H163412   3.728   0.001  12.804 -0.0563 -0.5801 -0.5065
13999TIP3    H263413   3.796   0.091  12.704  0.0135  1.7964  1.5762
14000TIP3   OH263414   3.367   6.715  16.703  0.1163 -0.0906  0.3723
14000TIP3    H163415   3.284   6.755  16.676 -0.2659 -0.3878  1.0743
14000TIP3    H263416   3.426   6.731  16.630  0.1109  2.1359  0.7541
14001TIP3   OH263417   2.741   2.595  12.926  0.4341 -0.0952 -0.1963
14001TIP3    H163418   2.646   2.595  12.919  0.4253  1.2244 -0.3860
14001TIP3    H263419   2.771   2.561  12.842  0.1239  0.6298 -0.6137
14002TIP3   OH263420   5.273   2.831   4.402  0.1169 -0.3664  0.3019
14002TIP3    H163421   5.309   2.763   4.345  1.4967 -0.9251  1.7640
14002TIP3    H263422   5.183   2.844   4.371  0.2576 -1.8801 -0.8517
14003TIP3   OH263423   2.163   5.558   4.413 -0.0088 -0.2888 -0.3965
14003TIP3    H163424   2.201   5.565   4.500 -2.2579  0.8763  0.5746
14003TIP3    H263425   2.229   5.598   4.355  0.9344  0.1657  0.9356
14004TIP3   OH263426   3.072   5.468   4.387  0.0661 -0.3650  0.4688
14004TIP3    H163427   3.056   5.550   4.340  0.2679  0.4262  1.7298
14004TIP3    H263428   3.053   5.400   4.323 -1.2651  0.6340 -0.2576
14005TIP3   OH263429   0.455   4.621   2.804  0.8046 -0.1677 -0.1338
14005TIP3    H163430   0.449   4.716   2.813 -0.9705 -0.3248  0.7268
14005TIP3    H263431   0.540   4.606   2.762  0.9901  1.7972 -0.5375
14006TIP3   OH263432   0.687   1.635   1.562 -0.4651  0.0101 -0.3151
14006TIP3    H163433   0.657   1.561   1.510 -1.1614  0.8975 -1.2045
14006TIP3    H263434   0.782   1.626   1.564 -0.5382 -0.8383 -0.5184
14007TIP3   OH263435   5.118   3.311  14.123  0.0451  0.2237 -0.0456
14007TIP3    H163436   5.176   3.321  14.047 -1.9011 -0.8075 -1.7927
14007TIP3    H263437   5.036   3.354  14.096 -0.0896  1.5674  2.2896
14008TIP3   OH263438   5.353   0.454  14.906 -0.7348 -0.4168 -0.4871
14008TIP3    H163439   5.267   0.454  14.946 -0.1071 -1.2532  0.9173
14008TIP3    H263440   5.353   0.379  14.847 -1.1007 -0.1730 -0.7967
14009TIP3   OH263441   0.442   5.261  13.647  0.2882  0.5284 -0.0757
14009TIP3    H163442   0.351   5.273  13.675  0.1989  1.0316 -0.5654
14009TIP3    H263443   0.435   5.215  13.563  0.5674 -1.4336  0.9090
14010TIP3   OH263444   0.020   3.274  16.582  0.4856  0.2581 -0.2046
14010TIP3    H163445  -0.035   3.332  16.529  0.7825  0.4433 -0.3129
14010TIP3    H263446   0.028   3.195  16.529 -0.0538  0.0586  0.0154
14011TIP3   OH263447   6.598   3.834   1.293 -0.2226  0.5840  0.2188
14011TIP3    H163448   6.627   3.888   1.366 -0.6410 -0.1810  0.9724
14011TIP3    H263449   6.504   3.822   1.308 -0.1672 -0.2051 -0.0269
14012TIP3   OH263450   1.568   1.395   1.293  0.2600 -0.1439 -0.0675
14012TIP3    H163451   1.656   1.362   1.313  0.7604  1.5052  0.6794
14012TIP3    H263452   1.512   1.354   1.359  0.6420 -0.4911  0.0443
14013TIP3   OH263453   1.260   0.231   5.748 -0.6567  0.8507 -0.1434
14013TIP3    H163454   1.263   0.265   5.837  1.0109  1.0199 -0.2298
14013TIP3    H263455   1.352   0.222   5.722 -1.0518  2.2859 -2.3988
14014TIP3   OH263456   4.854   4.111  11.259  0.5415 -0.1042  0.4079
14014TIP3    H163457   4.882   4.033  11.307 -0.6802 -0.0143  1.2905
14014TIP3    H263458   4.759   4.112  11.267  0.5571  1.6822  0.7437
14015TIP3   OH263459   0.582   5.159  12.438  0.3490 -0.4026  0.2800
14015TIP3    H163460   0.565   5.231  12.378  3.1138 -0.4658 -0.6780
14015TIP3    H263461   0.587   5.081  12.382  0.7607 -0.8087  0.8664
14016TIP3   OH263462   2.454   2.303   5.689 -0.3045  0.2547  0.1378
14016TIP3    H163463   2.514   2.244   5.643  0.3874  0.2463  1.0293
14016TIP3    H263464   2.424   2.363   5.621 -0.2965 -0.5355 -0.5896
14017TIP3   OH263465   1.513   1.458  15.416 -0.2592 -0.0336 -0.4979
14017TIP3    H163466   1.532   1.397  15.346 -0.2461 -0.5508 -0.0516
14017TIP3    H263467   1.447   1.517  15.380  1.0632  0.8614 -1.5610
14018TIP3   OH263468   0.635   5.216  13.336  0.1530 -0.1542  0.4799
14018TIP3    H163469   0.555   5.180  13.374 -0.3792 -0.2563 -0.6873
14018TIP3    H263470   0.655   5.291  13.391 -1.3593  0.5101  0.1992
14019TIP3   OH263471   1.054   3.198  12.851 -0.6606  0.2335  0.2028
14019TIP3    H163472   1.083   3.218  12.762  1.5867  1.3730  1.1343
14019TIP3    H263473   0.963   3.169  12.840 -0.6902  1.0598 -2.3577
14020TIP3   OH263474   2.690   4.967   5.173 -0.2889  0.0825 -0.1200
14020TIP3    H163475   2.736   5.049   5.193  0.4358 -0.3492  0.0088
14020TIP3    H263476   2.758   4.907   5.145 -1.0086  0.0106 -1.8616
14021TIP3   OH263477   1.228   5.209   0.030  0.2927 -0.2332 -0.0757
14021TIP3    H163478   1.210   5.271   0.101 -0.5495 -2.5997  1.9285
14021TIP3    H263479   1.307   5.243  -0.012 -0.0165  2.0561  1.0407
14022TIP3   OH263480   3.662   4.865  15.676 -0.1195 -0.1079 -0.4810
14022TIP3    H163481   3.599   4.904  15.736  1.1081 -0.0948  0.8565
14022TIP3    H263482   3.710   4.939  15.639  0.9571 -0.2070  0.6423
14023TIP3   OH263483   0.441   5.586  16.986  0.0406  0.5444  0.2543
14023TIP3    H163484   0.362   5.545  16.950 -0.3663  1.0720  0.5215
14023TIP3    H263485   0.494   5.513  17.017 -0.4550  0.1947  0.2901
14024TIP3   OH263486   3.632   5.289   3.135  0.0521  0.0002 -0.3126
14024TIP3    H163487   3.642   5.237   3.056 -0.7037  0.2049 -0.5523
14024TIP3    H263488   3.639   5.380   3.105 -1.3394  0.1182 -0.3336
14025TIP3   OH263489   4.019   6.631   1.846  0.2764 -0.0242 -0.3123
14025TIP3    H163490   3.972   6.674   1.775 -1.2211  0.8346  1.1083
14025TIP3    H263491   4.039   6.701   1.908  3.2255 -0.4292 -0.6707
14026TIP3   OH263492   1.478   4.688  14.718 -0.1023 -0.2088  0.1770
14026TIP3    H163493   1.513   4.606  14.752  0.8895  0.6268  1.2428
14026TIP3    H263494   1.463   4.671  14.625  1.3865 -1.1718  0.0801
14027TIP3   OH263495   3.027   4.054   4.645  0.5686 -0.3188 -0.1814
14027TIP3    H163496   3.107   4.106   4.650  0.7729 -0.5573 -0.8495
14027TIP3    H263497   3.052   3.976   4.596 -0.0845 -0.3735 -0.4434
14028TIP3   OH263498   2.961   1.202   4.449 -0.1773  0.0926 -0.2016
14028TIP3    H163499   2.926   1.233   4.366  0.5211  1.0096 -0.1695
14028TIP3    H263500   3.023   1.134   4.425  1.0772  1.3116 -0.5636
14029TIP3   OH263501   4.580   5.213  17.087 -0.2955 -0.3701 -0.1149
14029TIP3    H163502   4.626   5.132  17.109 -2.8029 -1.6088  1.0750
14029TIP3    H263503   4.580   5.215  16.991  1.5898 -0.6461 -0.1456
14030TIP3   OH263504   1.632   1.089  13.493  0.6016  0.6539  0.0187
14030TIP3    H163505   1.709   1.036  13.470  0.3989  0.8715 -1.2191
14030TIP3    H263506   1.616   1.068  13.585  0.8736 -1.0110 -0.2787
14031TIP3   OH263507   1.104   1.416   1.455 -0.0028 -0.1445  0.5051
14031TIP3    H163508   1.082   1.329   1.487  0.9096 -0.7080 -0.3586
14031TIP3    H263509   1.132   1.403   1.364 -1.0269  1.2123 -0.0436
14032TIP3   OH263510   6.723   3.640   0.836 -0.4598  0.3693  0.1210
14032TIP3    H163511   6.809   3.616   0.804 -0.9698 -0.6640 -0.5123
14032TIP3    H263512   6.688   3.700   0.770 -0.6255 -0.0090 -0.1370
14033TIP3   OH263513   1.502   4.588  12.988  0.1866  0.3090 -0.3026
14033TIP3    H163514   1.578   4.539  12.956  0.1996  0.5491 -0.6367
14033TIP3    H263515   1.435   4.576  12.921 -0.1296 -0.0377  0.0691
14034TIP3   OH263516   2.112   4.580   1.066 -0.3218  0.3205  0.2291
14034TIP3    H163517   2.150   4.512   1.011  0.3962  0.6848  0.2618
14034TIP3    H263518   2.064   4.533   1.134 -1.0996 -0.1326 -0.6187
14035TIP3   OH263519   5.145   2.484   1.693  0.3297 -0.3032 -0.2349
14035TIP3    H163520   5.105   2.526   1.769  0.9091 -3.3285  1.9196
14035TIP3    H263521   5.234   2.520   1.690 -0.1004  0.8025 -0.3534
14036TIP3   OH263522   6.137   4.599  12.256 -0.1201  0.2887 -0.0789
14036TIP3    H163523   6.155   4.692  12.245 -0.3142  0.1727 -1.6986
14036TIP3    H263524   6.202   4.556  12.200 -0.4507 -0.5159  0.1403
14037TIP3   OH263525   2.862   2.909   4.970  0.0488 -0.3228  0.9115
14037TIP3    H163526   2.870   2.932   4.877 -4.0686 -2.2759 -0.1401
14037TIP3    H263527   2.944   2.864   4.990  1.1665  0.3888 -1.6791
14038TIP3   OH263528   2.131   6.363  12.773  0.5274 -0.2988  0.2504
14038TIP3    H163529   2.173   6.414  12.704  2.3295 -3.2768 -1.0467
14038TIP3    H263530   2.080   6.427  12.823  0.9864  2.3532 -2.4254
14039TIP3   OH263531   0.684   3.030  16.838  0.7890 -0.4209 -0.4408
14039TIP3    H163532   0.635   3.031  16.920  0.9636 -1.3965 -0.3127
14039TIP3    H263533   0.766   3.074  16.859  0.1056  0.9697 -0.5853
14040TIP3   OH263534   6.371   2.174   2.317  0.0465 -0.2287  1.0632
14040TIP3    H163535   6.322   2.163   2.236 -0.1322  1.8633  0.8326
14040TIP3    H263536   6.306   2.199   2.382  0.3637 -0.7011  1.5779
14041TIP3   OH263537   2.908   1.468  15.382 -0.1943 -0.2104 -0.7274
14041TIP3    H163538   2.993   1.470  15.338 -0.3314 -2.1395 -1.1771
14041TIP3    H263539   2.926   1.497  15.472  1.0616 -1.1048 -0.6684
14042TIP3   OH263540   5.007   5.700   4.877 -0.3767 -0.1537  0.5190
14042TIP3    H163541   4.952   5.656   4.811 -0.4921 -0.5345  0.8596
14042TIP3    H263542   5.016   5.789   4.845  0.4999 -0.6125 -0.5942
14043TIP3   OH263543   5.751   4.730  12.571  0.3324 -0.0199  0.6588
14043TIP3    H163544   5.830   4.682  12.548  0.8681  0.8328  0.6523
14043TIP3    H263545   5.778   4.822  12.569 -1.1143  0.4300 -1.1749
14044TIP3   OH263546   3.754   6.605  15.209 -0.0909  0.5050  0.0477
14044TIP3    H163547   3.738   6.697  15.189  0.4877  0.3068 -1.4422
14044TIP3    H263548   3.668   6.569  15.230 -0.3423  1.3323  0.4760
14045TIP3   OH263549   2.728   0.786   0.799 -0.1390  0.2237 -0.2177
14045TIP3    H163550   2.678   0.796   0.718 -0.3360  0.2502 -0.0969
14045TIP3    H263551   2.717   0.694   0.823 -0.3322  0.2835 -0.0660
14046TIP3   OH263552   0.963   3.138   2.163 -0.4020 -0.1261 -0.0422
14046TIP3    H163553   0.958   3.175   2.075 -1.8237 -0.6009 -0.1852
14046TIP3    H263554   0.876   3.152   2.200  0.1448 -0.0291  1.2579
14047TIP3   OH263555   5.940   1.812   0.586  0.0133 -0.1793  0.3675
14047TIP3    H163556   6.027   1.844   0.609  0.3479 -1.4966  1.0464
14047TIP3    H263557   5.954   1.719   0.566 -0.9333  0.0131 -1.3428
14048TIP3   OH263558   0.173   0.618   4.705  0.0750 -0.1595  0.1293
14048TIP3    H163559   0.243   0.680   4.689  0.0618 -0.0864  0.3681
14048TIP3    H263560   0.095   0.659   4.668 -0.0779  0.2872  0.9320
14049TIP3   OH263561   0.787   3.112  13.969 -0.0502  0.7442 -0.0324
14049TIP3    H163562   0.697   3.122  14.002  0.1708  1.2566  0.4325
14049TIP3    H263563   0.840   3.165  14.029  0.3586  1.7499 -1.2318
14050TIP3   OH263564   2.076   0.940   2.988  0.2037 -0.1646 -0.0461
14050TIP3    H163565   1.991   0.925   2.946 -0.1250 -0.1660  0.6105
14050TIP3    H263566   2.082   0.874   3.057  0.6885 -0.0901 -0.0099
14051TIP3   OH263567   0.755   4.013   2.897  0.1970 -0.1073  0.6532
14051TIP3    H163568   0.766   4.036   2.989  1.3321  0.3283  0.4184
14051TIP3    H263569   0.812   4.074   2.850 -0.5848 -0.1392 -0.3657
14052TIP3   OH263570   5.909   4.211  12.050  0.3280  0.1908  0.4197
14052TIP3    H163571   5.967   4.175  12.118  0.3909  0.9109  0.7541
14052TIP3    H263572   5.844   4.142  12.036  0.5115 -0.1040  0.9673
14053TIP3   OH263573   1.138   6.042  13.572  0.0148 -0.1156  0.3954
14053TIP3    H163574   1.073   6.063  13.504 -0.0030 -0.3437  0.3423
14053TIP3    H263575   1.182   6.125  13.588 -1.5335  0.4925  1.7700
14054TIP3   OH263576   6.451   2.382  11.457 -0.4055  0.4257 -0.3331
14054TIP3    H163577   6.461   2.405  11.365  1.1696 -1.9210 -0.8324
14054TIP3    H263578   6.508   2.443  11.504 -1.9814  2.2954 -0.7340
14055TIP3   OH263579   3.327   0.764  11.520 -0.1343  0.2906 -0.3278
14055TIP3    H163580   3.349   0.823  11.448  0.1794  2.0032  1.0811
14055TIP3    H263581   3.350   0.814  11.599 -0.9725 -1.2870  0.9716
14056TIP3   OH263582   1.184   2.025  16.053  0.2133 -0.1255 -0.0812
14056TIP3    H163583   1.102   2.019  16.005  0.4451  0.4142 -0.5560
14056TIP3    H263584   1.211   2.116  16.043  1.9558 -0.7636 -1.7405
14057TIP3   OH263585   5.632   3.661   4.993  0.2693  0.2893 -0.1441
14057TIP3    H163586   5.557   3.606   4.971 -0.9161  1.7015  0.2127
14057TIP3    H263587   5.642   3.652   5.088  0.8997 -0.2930 -0.2554
14058TIP3   OH263588   0.500   2.224   5.332  0.2237 -0.0028 -0.3851
14058TIP3    H163589   0.503   2.311   5.291 -0.6129  0.3436  0.2557
14058TIP3    H263590   0.520   2.163   5.261  0.4541  0.6865 -0.9261
14059TIP3   OH263591   3.385   4.116   1.453  0.2681 -0.8039 -0.1102
14059TIP3    H163592   3.381   4.172   1.530 -0.6129  0.1545 -0.8154
14059TIP3    H263593   3.477   4.114   1.429  0.4692 -0.6367  0.6226
14060TIP3   OH263594   0.086   2.349  11.249  0.4718  0.6041  0.8671
14060TIP3    H163595   0.026   2.286  11.209  1.2386 -0.3304  1.1516
14060TIP3    H263596   0.130   2.392  11.175 -0.6985  1.4854  0.6477
14061TIP3   OH263597   2.185   3.630  15.108 -0.0519 -0.0769  0.0191
14061TIP3    H163598   2.237   3.553  15.130  0.0954  0.0285  0.0367
14061TIP3    H263599   2.097   3.596  15.094  0.5192 -0.6548 -2.6220
14062TIP3   OH263600   2.447   5.237   1.115 -0.1245 -0.1281 -0.8457
14062TIP3    H163601   2.475   5.243   1.024  1.2028 -3.3596 -0.7598
14062TIP3    H263602   2.517   5.190   1.160 -0.7579  1.3064  1.8921
14063TIP3   OH263603   4.259   4.842  11.309 -0.3141 -0.3223  0.5177
14063TIP3    H163604   4.174   4.802  11.292 -0.4521  0.2719 -0.2107
14063TIP3    H263605   4.321   4.788  11.260 -0.4272 -0.0085  0.0253
14064TIP3   OH263606   3.349   5.126   5.226  0.0328 -0.3280  0.0789
14064TIP3    H163607   3.261   5.118   5.189 -0.9260 -0.6664  2.2909
14064TIP3    H263608   3.377   5.037   5.245  0.3407 -0.1547  0.4795
14065TIP3   OH263609   5.826   1.806   4.312  0.3623 -0.2224  0.0307
14065TIP3    H163610   5.816   1.760   4.229  0.2878  1.4813 -0.9220
14065TIP3    H263611   5.921   1.821   4.320  0.2502  0.8057 -0.4290
14066TIP3   OH263612   4.527   0.391  12.060 -0.7131  0.1835  0.3797
14066TIP3    H163613   4.570   0.377  12.145  0.4241 -1.9555 -0.4712
14066TIP3    H263614   4.465   0.318  12.053  0.7513 -0.9605 -1.4967
14067TIP3   OH263615   1.521   4.889   0.822  0.8203 -0.2326  0.0606
14067TIP3    H163616   1.603   4.841   0.834  0.5903 -0.7750 -0.4777
14067TIP3    H263617   1.458   4.822   0.795  0.4322  0.3383 -0.4707
14068TIP3   OH263618   1.506   1.759  10.958  0.3474 -0.1395 -1.0994
14068TIP3    H163619   1.517   1.761  10.863  2.4734  0.9604 -0.8963
14068TIP3    H263620   1.552   1.837  10.989  2.0952 -1.8993  1.0191
14069TIP3   OH263621   0.037   1.510   0.525 -0.5809  0.4532 -0.2397
14069TIP3    H163622   0.064   1.554   0.444  0.0710  1.4703  0.5134
14069TIP3    H263623  -0.026   1.444   0.496 -0.3204  0.7600 -1.5843
14070TIP3   OH263624   0.714   5.877   2.077  0.3718 -0.2424 -0.1854
14070TIP3    H163625   0.700   5.784   2.063 -0.2175 -0.2334  0.3009
14070TIP3    H263626   0.670   5.896   2.159 -1.9360  1.0207 -1.6182
14071TIP3   OH263627   2.457   0.605  14.198 -0.2039 -0.2240 -0.0825
14071TIP3    H163628   2.367   0.629  14.219 -0.4361 -0.0450 -1.2139
14071TIP3    H263629   2.510   0.673  14.240 -0.5771 -0.3926  0.6828
14072TIP3   OH263630   6.495   3.889  10.999  0.1421 -0.1898  0.0783
14072TIP3    H163631   6.467   3.834  11.072 -0.2438 -0.5448 -0.3292
14072TIP3    H263632   6.414   3.916  10.956  0.2681  1.3714  0.7296
14073TIP3   OH263633   4.281   5.137  15.404 -0.2185 -0.6432 -0.0899
14073TIP3    H163634   4.227   5.095  15.337 -1.1738  0.9893 -0.3759
14073TIP3    H263635   4.306   5.221  15.366  2.0127 -1.0679  0.3019
14074TIP3   OH263636   1.048   3.097  13.257 -0.1611 -0.0188  0.2382
14074TIP3    H163637   1.140   3.087  13.231  0.3235  0.0370  1.8681
14074TIP3    H263638   1.002   3.028  13.208  0.8434 -0.4908 -0.0713
14075TIP3   OH263639   3.039   0.782   1.956 -0.4567  0.0761  0.7818
14075TIP3    H163640   3.075   0.767   2.044  1.4846  0.8438  0.1799
14075TIP3    H263641   3.023   0.876   1.952 -0.0090  0.1348  0.1573
14076TIP3   OH263642   4.896   1.816  16.693  0.4581 -1.2658 -0.9079
14076TIP3    H163643   4.954   1.807  16.768  1.4907  0.8448 -1.3862
14076TIP3    H263644   4.954   1.824  16.617 -0.1188  3.4918 -1.1392
14077TIP3   OH263645   4.207   4.669  13.520 -0.5511 -0.1097  0.6205
14077TIP3    H163646   4.274   4.637  13.581 -1.3967 -1.8615  0.7098
14077TIP3    H263647   4.251   4.673  13.435 -0.2769 -1.2005  0.6891
14078TIP3   OH263648   1.538   2.144   2.223  0.1195 -0.3450 -0.0042
14078TIP3    H163649   1.465   2.185   2.270 -0.3648 -0.2240 -0.8489
14078TIP3    H263650   1.566   2.210   2.160  1.3964 -0.1417  0.7403
14079TIP3   OH263651   6.231   0.109   1.460 -0.3489  0.3771 -0.1856
14079TIP3    H163652   6.237   0.175   1.529  0.3576 -1.2480  1.3739
14079TIP3    H263653   6.320   0.103   1.425 -0.2364 -0.3003  0.2156
14080TIP3   OH263654   1.378   0.652   5.032  0.0279  0.5786  0.6536
14080TIP3    H163655   1.370   0.739   4.994  0.5031  1.3995  2.3295
14080TIP3    H263656   1.458   0.656   5.085  0.7806 -1.2855 -0.2390
14081TIP3   OH263657   0.400   3.262   6.333  0.4059  0.1784 -0.8650
14081TIP3    H163658   0.415   3.291   6.243 -2.2973 -2.9660 -2.5380
14081TIP3    H263659   0.319   3.306   6.359  1.6123  1.7425  0.4923
14082TIP3   OH263660   0.256   5.602  10.403  0.0184 -0.1198  0.2097
14082TIP3    H163661   0.282   5.516  10.437 -0.9456  0.0804  1.5328
14082TIP3    H263662   0.198   5.582  10.330 -0.2186 -0.5996  0.5242
14083TIP3   OH263663   5.269   0.406   2.613  0.1865  0.0662  0.0813
14083TIP3    H163664   5.302   0.385   2.526 -1.6617  1.2556 -0.9666
14083TIP3    H263665   5.214   0.331   2.637 -0.0444  0.1503 -0.1839
14084TIP3   OH263666   1.571   2.612  14.956 -0.0279 -0.1235  0.2466
14084TIP3    H163667   1.651   2.627  14.905 -0.5566  1.5646 -0.1328
14084TIP3    H263668   1.526   2.542  14.910 -0.5462  1.4243 -1.7426
14085TIP3   OH263669   1.076   2.349  12.449  0.3487 -0.1904 -0.3581
14085TIP3    H163670   1.086   2.427  12.395  0.9324  0.1148  0.1747
14085TIP3    H263671   0.990   2.314  12.425  1.2572 -1.0153 -2.7125
14086TIP3   OH263672   6.419   4.400   5.311  0.1239 -0.8226 -0.1654
14086TIP3    H163673   6.360   4.474   5.299 -0.3363 -1.2840 -0.7707
14086TIP3    H263674   6.396   4.365   5.397  2.1133  1.3022  1.3775
14087TIP3   OH263675   3.686   2.842   3.308  0.0542  0.1794 -0.0016
14087TIP3    H163676   3.741   2.803   3.240 -0.6508  0.4052 -0.7211
14087TIP3    H263677   3.745   2.853   3.383  0.7077 -0.5842 -0.3866
14088TIP3   OH263678   5.028   5.791  14.693 -0.1195 -0.1954  0.3225
14088TIP3    H163679   5.091   5.722  14.674  0.5800  0.6621 -0.5786
14088TIP3    H263680   5.074   5.849  14.754  0.0296  0.4888 -0.4200
14089TIP3   OH263681   4.031   0.561  10.757  0.0595 -0.0165 -0.0955
14089TIP3    H163682   4.046   0.623  10.685  0.5965 -0.7717 -0.6492
14089TIP3    H263683   3.953   0.512  10.729 -0.0150  0.0090  0.0687
14090TIP3   OH263684   2.838   1.623   5.358  0.2720 -0.1162  0.6123
14090TIP3    H163685   2.842   1.597   5.451  0.2577  1.5261  1.0995
14090TIP3    H263686   2.927   1.611   5.326  0.3681 -0.3229  0.9505
14091TIP3   OH263687   3.109   2.878   0.235 -0.1377  0.3450 -0.1632
14091TIP3    H163688   3.106   2.783   0.225 -1.5666  0.2544  0.8697
14091TIP3    H263689   3.189   2.895   0.284  0.8119 -0.1835 -1.4699
14092TIP3   OH263690   2.099   2.746   6.054 -0.3346 -0.4000  0.9264
14092TIP3    H163691   2.174   2.751   5.995  1.1008  2.8014  2.7472
14092TIP3    H263692   2.137   2.756   6.142 -2.8586  1.8257  1.9148
14093TIP3   OH263693   4.471   0.565  15.093 -0.4741  0.4091  0.1118
14093TIP3    H163694   4.417   0.523  15.160 -0.4260  0.3650  0.1227
14093TIP3    H263695   4.545   0.602  15.141 -0.4910  0.4640  0.0964
14094TIP3   OH263696   5.223   2.685  11.059  0.3187 -0.1774 -0.2830
14094TIP3    H163697   5.308   2.644  11.072 -0.7626 -2.4156  0.0963
14094TIP3    H263698   5.197   2.662  10.970  1.3951  3.1475 -1.6246
14095TIP3   OH263699   5.931   3.920  12.029 -0.0730 -0.3026 -0.4206
14095TIP3    H163700   6.000   3.879  12.081  0.5536 -0.9728 -1.7350
14095TIP3    H263701   5.851   3.899  12.076  0.5425 -0.0418  0.8050
14096TIP3   OH263702   5.717   4.849   1.734 -0.3793  0.1057 -0.2217
14096TIP3    H163703   5.690   4.917   1.673 -1.8407 -0.1840  0.0671
14096TIP3    H263704   5.677   4.875   1.817  0.2897 -0.3296  0.2445
14097TIP3   OH263705   2.491   1.848   5.814  0.4128  0.4046  0.3449
14097TIP3    H163706   2.503   1.776   5.876  0.1325  0.4411  0.4456
14097TIP3    H263707   2.410   1.826   5.768 -0.0196  0.9604  0.8113
14098TIP3   OH263708   0.179   0.618  13.778  0.0582  0.1600 -0.3852
14098TIP3    H163709   0.114   0.590  13.842  0.2768 -0.1077 -0.2799
14098TIP3    H263710   0.127   0.652  13.705 -0.1874  0.5598 -0.0287
14099TIP3   OH263711   5.875   1.663   4.559 -0.1485 -0.1234  0.1328
14099TIP3    H163712   5.905   1.753   4.547  1.8357 -0.5747  1.1924
14099TIP3    H263713   5.790   1.659   4.516 -0.1315  2.1658 -0.1987
14100TIP3   OH263714   0.092   2.428   5.500  0.0915 -0.1205  0.1093
14100TIP3    H163715   0.130   2.349   5.460  1.6184  1.0253 -0.7924
14100TIP3    H263716  -0.002   2.419   5.482  0.2553 -1.5948 -0.2208
14101TIP3   OH263717   4.160   6.552  16.927 -0.5850  0.1754  0.1307
14101TIP3    H163718   4.253   6.555  16.951 -0.2036 -3.1546 -0.4498
14101TIP3    H263719   4.143   6.636  16.885  2.6729  0.2323 -1.3881
14102TIP3   OH263720   1.161   0.870  13.882 -0.5157 -0.4053  0.5377
14102TIP3    H163721   1.164   0.961  13.909 -0.2363  0.1356 -1.1685
14102TIP3    H263722   1.077   0.838  13.915 -2.3242  1.5187 -1.7636
14103TIP3   OH263723   5.608   0.807  11.560  0.2840  0.0373  0.4497
14103TIP3    H163724   5.524   0.852  11.560  0.0727 -0.3285  1.7027
14103TIP3    H263725   5.592   0.727  11.608  1.7058  0.6670  2.0505
14104TIP3   OH263726   4.291   2.018   4.681  0.0916  0.8351 -0.0887
14104TIP3    H163727   4.340   2.003   4.600 -1.0310  0.1081 -0.6578
14104TIP3    H263728   4.240   1.938   4.693  1.4898  0.2013  2.2689
14105TIP3   OH263729   3.405   6.123  10.585  0.1843  0.0534  0.1374
14105TIP3    H163730   3.311   6.111  10.574  0.4445 -1.3567 -0.7367
14105TIP3    H263731   3.434   6.044  10.630  1.0485  0.1870 -0.1685
14106TIP3   OH263732   3.471   6.491   0.482  0.0863 -0.5887 -0.2529
14106TIP3    H163733   3.449   6.474   0.390 -2.2226  0.2181  0.0759
14106TIP3    H263734   3.427   6.574   0.502  1.1566 -0.3734  1.3857
14107TIP3   OH263735   6.324   6.236  13.469  0.2121  0.1920  0.2203
14107TIP3    H163736   6.328   6.224  13.374 -1.6550  1.7029 -0.1028
14107TIP3    H263737   6.283   6.155  13.501 -0.0306  0.0793 -0.3663
14108TIP3   OH263738   5.022   4.923   3.329  0.4924 -0.8621  0.4910
14108TIP3    H163739   5.089   4.907   3.262  0.0570 -1.7565  0.2474
14108TIP3    H263740   4.986   5.009   3.308 -1.0784 -1.9542 -1.7475
14109TIP3   OH263741   6.674   2.727  17.052  0.0541  0.4475 -0.1836
14109TIP3    H163742   6.631   2.803  17.013 -0.9530  0.4875  0.9077
14109TIP3    H263743   6.636   2.652  17.006 -1.0785  0.4957  0.6209
14110TIP3   OH263744   2.804   6.039   0.687 -0.0635 -0.8102 -0.6907
14110TIP3    H163745   2.737   5.973   0.708 -0.6345  0.0563  0.2714
14110TIP3    H263746   2.843   6.061   0.771 -0.1340  0.3582 -0.9506
14111TIP3   OH263747   3.949   2.980   6.280  0.0865 -0.2169 -0.1014
14111TIP3    H163748   3.876   2.954   6.337  0.7437 -1.1490  0.3418
14111TIP3    H263749   4.022   2.995   6.340 -0.0052  1.7836 -0.4432
14112TIP3   OH263750   6.686   0.605   2.034  0.0525 -0.3519  0.4466
14112TIP3    H163751   6.759   0.597   2.095 -1.1320  0.4665  2.0412
14112TIP3    H263752   6.668   0.699   2.030 -2.4225 -0.6765  1.9892
14113TIP3   OH263753   1.482   4.120   1.994  0.3954  0.3239  0.5068
14113TIP3    H163754   1.573   4.139   2.013 -0.0570  1.0087  2.1238
14113TIP3    H263755   1.432   4.180   2.049 -1.0422 -0.5729  0.2465
14114TIP3   OH263756   4.462   4.975  10.742 -0.7251  0.5119 -0.4264
14114TIP3    H163757   4.455   5.069  10.754  1.3402  0.6713 -0.0530
14114TIP3    H263758   4.387   4.939  10.789 -1.2458  1.9274 -0.1203
14115TIP3   OH263759   2.947   4.515   6.094  0.4686 -0.3297  1.0607
14115TIP3    H163760   2.900   4.444   6.050 -2.4912  0.4669  2.6171
14115TIP3    H263761   3.009   4.470   6.152 -0.6350 -1.6480  1.2736
14116TIP3   OH263762   0.512   3.813   2.952 -0.0002  0.0717  0.3814
14116TIP3    H163763   0.522   3.888   2.893 -2.3981  0.5206  0.4840
14116TIP3    H263764   0.484   3.850   3.035 -0.2047 -0.8599  0.7471
14117TIP3   OH263765   6.389   0.211  10.597  0.0393  0.0504 -0.3340
14117TIP3    H163766   6.422   0.299  10.579 -2.4089  1.0393 -0.2567
14117TIP3    H263767   6.389   0.204  10.692  1.2240 -0.4903 -0.3457
14118TIP3   OH263768   5.329   0.116  11.850  0.0424 -0.2103  0.1306
14118TIP3    H163769   5.282   0.187  11.805 -0.6788 -0.6591  0.1623
14118TIP3    H263770   5.265   0.080  11.910  1.0183  0.4439  1.6219
14119TIP3   OH263771   5.313   1.759   6.111  0.2381  0.0412  0.1216
14119TIP3    H163772   5.229   1.762   6.157 -0.8384 -0.7336 -1.6640
14119TIP3    H263773   5.374   1.803   6.169 -1.9425  3.0211  0.3878
14120TIP3   OH263774   3.382   6.150  12.247  0.1015  0.0992 -0.3693
14120TIP3    H163775   3.405   6.225  12.301 -1.4117  1.4680 -1.5085
14120TIP3    H263776   3.352   6.188  12.164 -3.1624 -1.5559 -0.1048
14121TIP3   OH263777   2.371   5.852  11.083 -0.3478 -0.6172 -0.0790
14121TIP3    H163778   2.452   5.823  11.041  0.4860  1.8447 -0.3615
14121TIP3    H263779   2.302   5.832  11.019  0.3175 -0.8930 -0.7213
14122TIP3   OH263780   5.456   1.086  14.322  0.1762 -0.7625 -0.0232
14122TIP3    H163781   5.398   1.158  14.298  0.2567 -0.1344  1.5431
14122TIP3    H263782   5.517   1.079  14.249 -0.5359  0.0149 -0.7051
14123TIP3   OH263783   5.494   0.388   5.540  0.0096 -0.3812  0.3072
14123TIP3    H163784   5.564   0.418   5.481  0.5490  0.1678  1.1880
14123TIP3    H263785   5.418   0.439   5.514  0.5789  0.8173  0.9033
14124TIP3   OH263786   6.146   6.648   1.650  0.5507  0.4796 -0.4816
14124TIP3    H163787   6.137   6.583   1.581 -0.9529  1.4201 -1.2190
14124TIP3    H263788   6.187   6.723   1.606 -0.8192  1.2473 -0.4929
14125TIP3   OH263789   1.186   3.850   5.492 -0.6187  0.3459  0.1730
14125TIP3    H163790   1.115   3.857   5.556 -0.2090  1.3010  0.5508
14125TIP3    H263791   1.249   3.918   5.519  1.7458 -2.1336  1.4294
14126TIP3   OH263792   0.343   0.094   1.207 -0.0094  0.3719  0.5254
14126TIP3    H163793   0.332   0.054   1.121  1.6861  2.5266 -0.8394
14126TIP3    H263794   0.255   0.119   1.234 -0.6275 -0.7729 -0.3547
14127TIP3   OH263795   4.748   5.948   3.597  0.4187 -0.7151  0.4423
14127TIP3    H163796   4.842   5.948   3.579  0.3389 -2.5640 -0.2879
14127TIP3    H263797   4.736   5.876   3.659 -0.5428 -0.7578  0.2266
14128TIP3   OH263798   5.847   5.472  16.190  0.7308  0.5256  0.6213
14128TIP3    H163799   5.817   5.451  16.279 -1.4369  0.6299 -0.0308
14128TIP3    H263800   5.915   5.407  16.172 -0.2271 -0.8121  1.6236
14129TIP3   OH263801   0.670   6.353  13.674 -0.2343  0.0614 -0.3544
14129TIP3    H163802   0.694   6.430  13.623  0.4475 -0.7744 -1.3258
14129TIP3    H263803   0.596   6.382  13.728  0.1322  1.4387 -0.5597
14130TIP3   OH263804   4.850   2.003   3.580  0.3373  0.3693  0.3513
14130TIP3    H163805   4.786   2.038   3.518 -1.7066 -0.1093  2.0831
14130TIP3    H263806   4.829   1.909   3.584  1.2441  0.1820  0.8655
14131TIP3   OH263807   1.406   4.008   5.957  0.1315 -0.1088  0.4157
14131TIP3    H163808   1.453   3.929   5.931 -0.6265 -0.4120 -0.0585
14131TIP3    H263809   1.323   4.004   5.910 -0.9396 -0.2435  2.2112
14132TIP3   OH263810   5.391   2.163  10.843  0.2747 -0.5949 -0.2569
14132TIP3    H163811   5.405   2.227  10.773 -0.2656 -1.5196 -1.2565
14132TIP3    H263812   5.363   2.215  10.918  1.6384  0.5069 -0.4700
14133TIP3   OH263813   3.106   1.424   4.148  0.5003 -0.4208 -0.1893
14133TIP3    H163814   3.049   1.472   4.208  0.9076 -0.0975 -0.0646
14133TIP3    H263815   3.125   1.485   4.077  1.2780 -0.2881  0.1303
14134TIP3   OH263816   5.075   0.700   6.141 -0.8908 -0.5105 -0.0162
14134TIP3    H163817   5.150   0.756   6.159 -0.0343 -1.4328 -0.6421
14134TIP3    H263818   5.020   0.751   6.081 -1.3772  0.6340  1.3325
14135TIP3   OH263819   4.464   2.699   2.477  0.0028  0.0664 -0.0032
14135TIP3    H163820   4.389   2.717   2.419 -0.5008  3.0973  1.3825
14135TIP3    H263821   4.540   2.706   2.420 -0.5819  1.0935 -0.6987
14136TIP3   OH263822   5.653   6.629  11.694  0.3300 -0.7882  0.1218
14136TIP3    H163823   5.654   6.542  11.734 -2.4191 -0.7464  0.4879
14136TIP3    H263824   5.611   6.616  11.609 -0.3150  0.1759  0.2701
14137TIP3   OH263825   2.602   2.907  13.548  0.6723  0.2408  0.7463
14137TIP3    H163826   2.593   2.896  13.642 -3.0581 -0.7030  0.4218
14137TIP3    H263827   2.512   2.910  13.515  1.7790 -1.9821 -3.0470
14138TIP3   OH263828   1.264   6.771   3.110  0.0125 -0.1735  0.1766
14138TIP3    H163829   1.350   6.790   3.148  0.0910  1.0449 -0.5508
14138TIP3    H263830   1.212   6.739   3.184  0.7818  0.0950  0.8532
14139TIP3   OH263831   2.651   0.286   1.047 -0.0020 -0.5643  0.3293
14139TIP3    H163832   2.616   0.374   1.037  3.5182  0.7561 -2.1525
14139TIP3    H263833   2.644   0.268   1.141  0.7142  3.0871  1.2353
14140TIP3   OH263834   2.607   1.389  12.953  0.1969  0.0590  0.1042
14140TIP3    H163835   2.569   1.399  13.040 -1.6274 -0.1124 -0.6260
14140TIP3    H263836   2.701   1.383  12.969 -0.1015 -0.2141  2.0699
14141TIP3   OH263837   4.927   4.741   3.517 -0.4745  0.5601 -0.2337
14141TIP3    H163838   4.973   4.661   3.490 -1.6983  0.0106 -0.7927
14141TIP3    H263839   4.977   4.812   3.478  1.0435  0.1396  0.8445
14142TIP3   OH263840   6.050   2.170  17.026  0.1009  0.1501  0.1156
14142TIP3    H163841   6.121   2.208  17.078  0.5054  0.9458 -1.0056
14142TIP3    H263842   6.093   2.107  16.969 -0.0126  1.0256 -0.9530
14143TIP3   OH263843   1.368   3.910  11.125 -0.4812 -0.7175  0.5158
14143TIP3    H163844   1.306   3.974  11.159  1.2986  2.5662 -1.9060
14143TIP3    H263845   1.339   3.893  11.036  0.0498 -2.0510  0.5731
14144TIP3   OH263846   4.039   4.122  15.394 -0.5205 -0.1125  0.4276
14144TIP3    H163847   3.951   4.161  15.395 -0.4719  0.0045  0.2576
14144TIP3    H263848   4.024   4.028  15.405 -0.6679 -0.0931  0.3969
14145TIP3   OH263849   3.671   4.259  12.443 -0.0581 -0.2535  0.8278
14145TIP3    H163850   3.605   4.207  12.487 -0.1539 -0.7187  0.1532
14145TIP3    H263851   3.626   4.296  12.367  0.5417 -0.8967  0.1386
14146TIP3   OH263852   5.712   2.788   0.963 -0.7262 -0.1428  0.0125
14146TIP3    H163853   5.697   2.824   0.876 -2.2588 -1.6271 -0.3929
14146TIP3    H263854   5.645   2.828   1.018  0.7038  1.3634  0.7275
14147TIP3   OH263855   2.289   3.284  14.014 -0.0205 -0.5817 -0.3935
14147TIP3    H163856   2.259   3.219  14.077 -0.4312 -0.3744 -0.3735
14147TIP3    H263857   2.365   3.325  14.057 -0.0488 -0.7223 -0.2080
14148TIP3   OH263858   5.184   0.603  15.381 -0.0782  0.4150  0.0394
14148TIP3    H163859   5.227   0.658  15.315 -0.1266 -0.5646 -0.8396
14148TIP3    H263860   5.102   0.576  15.340 -0.9863  1.2515  1.2235
14149TIP3   OH263861   2.040   1.903  15.517  0.2330 -0.4867 -0.1525
14149TIP3    H163862   2.006   1.836  15.458 -0.2070 -0.5419  0.1549
14149TIP3    H263863   1.964   1.929  15.569  1.1841 -2.6098  2.5196
14150TIP3   OH263864   6.631   2.837   2.269  0.2567 -0.1035 -0.3342
14150TIP3    H163865   6.590   2.768   2.321  0.2528 -0.8676 -1.3231
14150TIP3    H263866   6.565   2.862   2.204  0.8332 -0.3312 -1.0228
14151TIP3   OH263867   6.225   6.405   2.151 -0.0197 -0.7685  0.3067
14151TIP3    H163868   6.304   6.360   2.184  0.2172  0.2115  1.1284
14151TIP3    H263869   6.251   6.438   2.065  0.9639  0.7635  1.1550
14152TIP3   OH263870   3.122   5.756   4.957  0.1555 -0.5740 -0.0636
14152TIP3    H163871   3.141   5.781   4.867 -1.3243  1.1807  0.0526
14152TIP3    H263872   3.202   5.712   4.987  1.4905  0.7247 -1.5495
14153TIP3   OH263873   6.574   5.986   1.717 -0.0615 -0.4526  0.8430
14153TIP3    H163874   6.604   5.911   1.665 -0.1248  0.2000 -0.1606
14153TIP3    H263875   6.494   6.015   1.674  1.9136  2.5645 -1.2181
14154TIP3   OH263876   3.761   5.770  13.671  0.5836 -0.6077 -0.7731
14154TIP3    H163877   3.856   5.762  13.669  0.7902  1.4898 -1.9574
14154TIP3    H263878   3.742   5.849  13.621 -1.8204 -1.1400 -0.8491
14155TIP3   OH263879   5.069   4.525  12.966 -0.5717 -0.1024 -0.5833
14155TIP3    H163880   5.139   4.544  12.904 -0.3655  0.4803 -0.1865
14155TIP3    H263881   4.988   4.538  12.916 -0.4193 -2.2976 -1.4909
14156TIP3   OH263882   5.929   0.248  14.048 -0.2412 -0.5708  0.3721
14156TIP3    H163883   5.946   0.312  13.980 -0.2280 -0.8563  0.1023
14156TIP3    H263884   5.964   0.286  14.128 -1.3675  0.3238  0.4653
14157TIP3   OH263885   3.536   4.295   6.412 -0.0452  0.0043 -0.1695
14157TIP3    H163886   3.608   4.352   6.440  0.1767 -0.4309  0.1643
14157TIP3    H263887   3.457   4.342   6.438  0.0382  1.2732 -2.0216
14158TIP3   OH263888   0.571   3.272  14.577  0.4035 -0.0947 -0.0745
14158TIP3    H163889   0.662   3.293  14.598  0.6756 -1.3462  0.0832
14158TIP3    H263890   0.520   3.311  14.649  0.9199 -0.3741  0.4529
14159TIP3   OH263891   3.189   2.860   5.972  0.1184  0.0706  0.4558
14159TIP3    H163892   3.259   2.796   5.979 -2.4537 -2.8999  1.5403
14159TIP3    H263893   3.151   2.863   6.060 -2.4275 -0.1217 -0.5591
14160TIP3   OH263894   1.187   3.045   4.234  0.2276  0.1304 -0.2869
14160TIP3    H163895   1.098   3.047   4.198  1.3653 -0.4006 -3.4430
14160TIP3    H263896   1.182   2.984   4.307 -2.5754  2.4017  1.6704
14161TIP3   OH263897   3.878   3.964   5.944  0.3909  0.1238 -0.4473
14161TIP3    H163898   3.874   3.963   5.849 -0.8591 -2.1555 -0.4204
14161TIP3    H263899   3.971   3.950   5.964  0.6014  0.2410 -1.2968
14162TIP3   OH263900   0.043   2.089   2.148  0.0052 -0.0796  0.2414
14162TIP3    H163901   0.127   2.118   2.183  0.5495  1.2578 -1.9771
14162TIP3    H263902  -0.012   2.167   2.149 -0.3913 -0.3340 -0.5753
14163TIP3   OH263903   3.463   6.097   1.197  0.2821 -0.6642 -0.1779
14163TIP3    H163904   3.455   6.158   1.124  0.8927 -0.1830  0.1464
14163TIP3    H263905   3.546   6.052   1.181  2.0273  1.6110  1.7821
14164TIP3   OH263906   1.674   0.296   2.359  0.6996  0.2464 -0.1531
14164TIP3    H163907   1.713   0.284   2.446 -0.5284 -0.6483  0.3038
14164TIP3    H263908   1.680   0.210   2.318 -0.0666  0.2866 -0.3661
14165TIP3   OH263909   5.672   3.919   6.048  0.1203  0.0491 -0.2385
14165TIP3    H163910   5.747   3.925   5.988  0.0942  0.2489 -0.2529
14165TIP3    H263911   5.623   3.842   6.019  1.7864 -1.7856  1.4421
14166TIP3   OH263912   2.464   2.239  11.388  0.6940 -0.1012  0.1198
14166TIP3    H163913   2.450   2.328  11.422  0.3725 -0.0344 -0.1838
14166TIP3    H263914   2.494   2.253  11.298 -1.6712 -0.3348 -0.7678
14167TIP3   OH263915   6.521   0.464  10.094 -0.4408  0.7533 -0.1446
14167TIP3    H163916   6.615   0.479  10.104 -0.4124 -0.0271  0.8005
14167TIP3    H263917   6.482   0.505  10.171 -0.9744  1.7786 -0.9233
14168TIP3   OH263918   4.437   4.456  15.631  0.0159 -0.1573  0.2180
14168TIP3    H163919   4.413   4.470  15.723  1.2260 -0.2427  0.5679
14168TIP3    H263920   4.360   4.483  15.582 -1.1864 -1.4531  1.3150
14169TIP3   OH263921   4.645   1.264   1.811  0.5279  0.3163  0.0547
14169TIP3    H163922   4.652   1.233   1.720  0.9645 -0.1985  0.2555
14169TIP3    H263923   4.705   1.338   1.815  1.5320 -0.4845  0.2544
14170TIP3   OH263924   2.685   6.179   2.234  0.5779  0.5298 -0.1217
14170TIP3    H163925   2.649   6.268   2.229  1.7201  0.9594 -1.5907
14170TIP3    H263926   2.780   6.192   2.239  0.8327 -0.5895 -1.3844
14171TIP3   OH263927   0.260   6.522  13.900 -0.2313  0.2479 -0.1430
14171TIP3    H163928   0.350   6.514  13.868 -0.1129 -0.3560  0.3258
14171TIP3    H263929   0.214   6.451  13.856  0.3594 -1.9064  2.4515
14172TIP3   OH263930   4.589   4.018  11.706 -0.0567 -0.3419  0.2534
14172TIP3    H163931   4.541   4.008  11.789 -3.3176 -0.7039 -1.4923
14172TIP3    H263932   4.624   3.930  11.689 -0.7006 -0.6724  0.5578
14173TIP3   OH263933   1.434   1.278  11.417  0.0208  0.3023  0.5019
14173TIP3    H163934   1.502   1.282  11.484  0.2399  0.8437  0.2522
14173TIP3    H263935   1.462   1.209  11.357  0.6609  0.9324  0.0663
14174TIP3   OH263936   3.827   4.467   1.682  0.2618 -0.2191  0.7519
14174TIP3    H163937   3.850   4.414   1.758  2.6775  1.2142  1.1097
14174TIP3    H263938   3.896   4.533   1.677 -0.6687  0.6701 -1.8062
14175TIP3   OH263939   0.865   3.888  12.423 -0.0838 -0.1225 -0.0998
14175TIP3    H163940   0.847   3.956  12.359  0.2447  1.2715  1.2399
14175TIP3    H263941   0.786   3.834  12.424 -1.2297  1.4931  0.3124
14176TIP3   OH263942   6.442   0.410   5.279 -0.7210  0.4397  0.0622
14176TIP3    H163943   6.355   0.411   5.320 -0.8394  0.9542 -0.1991
14176TIP3    H263944   6.430   0.456   5.196 -0.1371  0.7424  0.1435
14177TIP3   OH263945   1.727   3.190  13.905 -0.0974  0.1152  0.0884
14177TIP3    H163946   1.734   3.258  13.837 -0.9751 -0.0445 -0.1699
14177TIP3    H263947   1.818   3.174  13.932  0.1977  0.7133 -0.5229
14178TIP3   OH263948   4.414   5.510  13.311  0.4088  0.2032 -0.2304
14178TIP3    H163949   4.452   5.443  13.367  0.4171  1.8689  1.8669
14178TIP3    H263950   4.489   5.548  13.264  0.2106 -2.4229 -2.9380
14179TIP3   OH263951   3.718   6.619  14.178 -0.1317  0.1347  0.0162
14179TIP3    H163952   3.761   6.682  14.120  1.1736 -0.3405  0.4109
14179TIP3    H263953   3.625   6.626  14.158  0.0974  1.4199 -0.6914
14180TIP3   OH263954   6.657   3.155  13.667 -0.5858 -0.5277  0.0200
14180TIP3    H163955   6.597   3.081  13.662 -1.1466 -0.0616 -0.1921
14180TIP3    H263956   6.624   3.208  13.740 -0.7757  0.0229 -0.4616
14181TIP3   OH263957   0.499   2.236   1.627  0.3551  0.0155  0.0195
14181TIP3    H163958   0.504   2.163   1.565  2.6726 -0.7873  1.0635
14181TIP3    H263959   0.435   2.296   1.587 -0.7989 -2.0317 -1.4100
14182TIP3   OH263960   0.514   4.246   5.071  0.3600 -0.3302  0.4615
14182TIP3    H163961   0.524   4.171   5.129 -1.8799  0.0669  1.4686
14182TIP3    H263962   0.469   4.211   4.994 -0.7566 -0.0531  0.9656
14183TIP3   OH263963   5.155   4.215   2.942  0.1012  0.0562  0.3029
14183TIP3    H163964   5.113   4.239   2.860  0.8069 -1.6619 -0.5853
14183TIP3    H263965   5.171   4.300   2.985 -0.3432  0.9814 -1.2630
14184TIP3   OH263966   4.936   0.379  17.068  0.2449 -0.1087  0.3837
14184TIP3    H163967   4.921   0.418  17.154 -0.4150 -0.1425  0.2816
14184TIP3    H263968   4.861   0.322  17.053  0.0085  0.4160 -0.5193
14185TIP3   OH263969   1.647   1.698   1.256  0.0694 -0.1994 -0.1404
14185TIP3    H163970   1.667   1.606   1.240  1.4352 -0.0240  0.4158
14185TIP3    H263971   1.653   1.708   1.351  0.2556  0.5236 -0.2178
14186TIP3   OH263972   0.116   2.590  16.372  0.2446  0.2517  0.0594
14186TIP3    H163973   0.112   2.613  16.464 -1.4248  5.1538 -0.9470
14186TIP3    H263974   0.030   2.614  16.338  1.0577 -0.6252 -2.9280
14187TIP3   OH263975   6.742   1.426   0.788 -0.2127 -0.0845  0.8694
14187TIP3    H163976   6.657   1.468   0.793  0.5446  2.0295 -1.6416
14187TIP3    H263977   6.751   1.400   0.696  1.5380 -0.9501  1.2304
14188TIP3   OH263978   2.207   2.678   2.327 -0.0742 -0.1972 -0.0005
14188TIP3    H163979   2.296   2.708   2.306 -0.4706  1.2242  0.2400
14188TIP3    H263980   2.162   2.757   2.358 -1.7957 -0.6338 -1.2552
14189TIP3   OH263981   6.602   0.335   1.949 -0.1514  0.0880  0.1018
14189TIP3    H163982   6.663   0.406   1.969 -0.7675  0.4495  0.7303
14189TIP3    H263983   6.564   0.360   1.865  0.9753 -0.4269 -0.5753
14190TIP3   OH263984   6.123   1.462  15.318  0.5326 -0.0339  0.3328
14190TIP3    H163985   6.061   1.509  15.375 -0.7039 -1.0820 -0.0913
14190TIP3    H263986   6.096   1.370  15.324  0.0308 -0.1406 -2.2735
14191TIP3   OH263987   1.474   0.330  15.931  0.1038 -0.4937 -0.3392
14191TIP3    H163988   1.547   0.361  15.984 -0.4759  1.0595 -0.3862
14191TIP3    H263989   1.509   0.324  15.842  0.4718 -0.8597 -0.1698
14192TIP3   OH263990   4.454   0.727   0.358 -0.4618 -0.0627  0.2812
14192TIP3    H163991   4.466   0.739   0.264 -0.3121  1.7780  0.5014
14192TIP3    H263992   4.418   0.639   0.367 -2.1039  0.3596 -1.6329
14193TIP3   OH263993   5.855   1.917   4.933 -0.4197  0.0420 -0.2604
14193TIP3    H163994   5.824   1.831   4.904  0.0101 -0.7374  1.4526
14193TIP3    H263995   5.786   1.948   4.993 -0.0307  0.3565  0.0282
14194TIP3   OH263996   1.817   1.180  17.000 -0.4922  0.4092 -0.2477
14194TIP3    H163997   1.830   1.210  16.910  0.4192 -0.4632 -0.4314
14194TIP3    H263998   1.891   1.217  17.049  0.6400 -1.3892 -0.4780
14195TIP3   OH263999   6.171   0.291  16.596 -0.2470  0.1304  0.3468
14195TIP3    H164000   6.085   0.323  16.623 -0.7184 -1.1368  0.4300
14195TIP3    H264001   6.234   0.344  16.646 -0.9194  1.8189 -0.5384
14196TIP3   OH264002   4.997   4.937   6.254 -0.1046 -0.2960  0.1820
14196TIP3    H164003   4.935   4.999   6.217  0.2532  0.0457  0.1412
14196TIP3    H264004   5.000   4.959   6.347  0.8218  0.4667 -0.0118
14197TIP3   OH264005   4.121   5.788  11.696  0.4789 -0.0020  0.1174
14197TIP3    H164006   4.038   5.779  11.743  0.9891  0.1003  1.0785
14197TIP3    H264007   4.106   5.746  11.612 -0.4029 -0.4017  0.4606
14198TIP3   OH264008   2.653   3.725   4.795 -0.5737  0.2448 -0.0299
14198TIP3    H164009   2.627   3.808   4.834 -0.4576  0.1248  0.3083
14198TIP3    H264010   2.612   3.724   4.708  0.7780  1.3968 -0.7302
14199TIP3   OH264011   0.752   5.501   0.515 -0.3171 -0.0354  0.2364
14199TIP3    H164012   0.843   5.528   0.507 -0.1090 -0.4248  1.1372
14199TIP3    H264013   0.702   5.582   0.512  0.1534  0.2858  0.9833
14200TIP3   OH264014   2.402   3.120  13.124 -0.1598 -0.0758  0.1059
14200TIP3    H164015   2.329   3.069  13.159  0.0231 -0.0494  0.5315
14200TIP3    H264016   2.472   3.055  13.111  0.0176  0.0366  0.4905
14201TIP3   OH264017   1.059   3.074  16.133  0.1550  0.3983 -0.5094
14201TIP3    H164018   1.015   3.036  16.057 -0.0353  1.8165 -1.1518
14201TIP3    H264019   1.152   3.054  16.119 -0.1242 -1.7514  0.3516
14202TIP3   OH264020   4.976   5.344   2.170  0.4144  0.0401  0.7553
14202TIP3    H164021   4.935   5.306   2.248  1.0307 -1.0955  0.5450
14202TIP3    H264022   5.000   5.268   2.116  2.0340  0.6925  0.5004
14203TIP3   OH264023   5.935   5.868   1.224 -0.7551  0.0780 -0.0372
14203TIP3    H164024   6.030   5.868   1.224 -0.6865 -2.0094 -1.2412
14203TIP3    H264025   5.911   5.779   1.251 -2.3562  0.5083  0.0602
14204TIP3   OH264026   3.065   4.552   0.907 -0.2057 -0.7287 -0.4036
14204TIP3    H164027   3.136   4.515   0.959  0.9918  1.9084  0.0266
14204TIP3    H264028   3.105   4.569   0.821 -0.3523  0.5057 -0.2489
14205TIP3   OH264029   3.823   1.092  12.812 -0.1006  0.4447  0.3524
14205TIP3    H164030   3.915   1.069  12.806 -0.1532  0.0953  0.8107
14205TIP3    H264031   3.784   1.023  12.865 -0.4372  1.0995  0.9840
14206TIP3   OH264032   1.410   1.683  11.473 -0.4644 -0.5699 -0.0292
14206TIP3    H164033   1.496   1.669  11.433 -0.6036 -0.5486 -0.3384
14206TIP3    H264034   1.367   1.745  11.416 -0.2442  0.3476  0.7728
14207TIP3   OH264035   1.447   0.252  10.564  0.2698 -0.6060 -0.2900
14207TIP3    H164036   1.508   0.181  10.545  1.3009 -0.1809  1.2028
14207TIP3    H264037   1.495   0.308  10.625 -1.4007  0.0858  0.4421
14208TIP3   OH264038   4.904   3.500  11.563 -0.7113 -0.1950  0.5181
14208TIP3    H164039   4.840   3.524  11.630 -1.1366  0.7583 -0.2069
14208TIP3    H264040   4.922   3.582  11.517  0.3857 -0.6292  0.1590
14209TIP3   OH264041   1.614   1.365  11.787  0.2407  0.1675 -0.5174
14209TIP3    H164042   1.655   1.403  11.710  1.3714  0.5043  0.2170
14209TIP3    H264043   1.628   1.431  11.856 -0.6380 -0.1756 -0.0040
14210TIP3   OH264044   5.809   3.997   0.762 -0.0179  0.0052  0.0202
14210TIP3    H164045   5.775   3.922   0.712 -0.6867 -0.5722  1.3007
14210TIP3    H264046   5.769   4.073   0.722  0.4487 -0.3325 -1.1291
14211TIP3   OH264047   2.087   3.417  12.303 -0.0394  0.6784 -0.0995
14211TIP3    H164048   2.113   3.506  12.329  0.6571  0.5695 -0.3850
14211TIP3    H264049   1.993   3.414  12.318 -0.1043  1.5307 -0.2688
14212TIP3   OH264050   4.115   3.267   4.803 -0.4648  1.1448 -0.1033
14212TIP3    H164051   4.026   3.252   4.773 -0.9697 -0.2309  1.8623
14212TIP3    H264052   4.138   3.187   4.851  1.1936  2.1295  0.8571
14213TIP3   OH264053   0.701   3.322   1.503  0.4874  0.4442  0.2018
14213TIP3    H164054   0.613   3.336   1.466  1.1525  0.0835 -1.6227
14213TIP3    H264055   0.719   3.403   1.551  0.3680  1.8892 -2.0134
14214TIP3   OH264056   1.165   6.066   5.501 -0.1289  0.2127 -0.4084
14214TIP3    H164057   1.177   6.104   5.414 -2.2309 -0.8185 -1.2116
14214TIP3    H264058   1.106   6.126   5.547  0.0541  0.1595 -0.0946
14215TIP3   OH264059   1.047   4.081  14.984 -0.0543 -0.1713  0.3353
14215TIP3    H164060   1.087   4.110  15.066  1.5662  1.0586 -0.8147
14215TIP3    H264061   1.106   4.012  14.952 -1.3523 -1.5395  0.7532
14216TIP3   OH264062   3.319   5.831   0.487  0.0701 -0.4498  0.6526
14216TIP3    H164063   3.305   5.820   0.393 -2.1113 -4.8131  1.2412
14216TIP3    H264064   3.284   5.918   0.506  1.1292  0.8366 -2.5459
14217TIP3   OH264065   3.975   0.954   5.106  0.2342 -0.6245  0.0066
14217TIP3    H164066   3.962   0.859   5.111  0.3937 -0.6661 -0.3666
14217TIP3    H264067   4.036   0.974   5.177  0.4899 -0.8522 -0.1508
14218TIP3   OH264068   2.180   1.377  16.087 -0.4088 -0.2196 -0.9424
14218TIP3    H164069   2.127   1.316  16.138 -0.0010  0.2379  0.0637
14218TIP3    H264070   2.261   1.329  16.067  0.9007  0.6382  1.7865
14219TIP3   OH264071   2.815   2.647  12.335 -0.3640 -1.0994 -0.3715
14219TIP3    H164072   2.877   2.687  12.395 -0.4226 -1.4038 -0.1013
14219TIP3    H264073   2.868   2.620  12.260 -0.6030  1.1320 -1.4174
14220TIP3   OH264074   0.521   5.506  16.525  0.6459 -0.0804  0.2681
14220TIP3    H164075   0.434   5.545  16.520  2.0016  3.0509 -1.3422
14220TIP3    H264076   0.547   5.518  16.616  0.0776  0.5183  0.3567
14221TIP3   OH264077   2.019   4.396   2.797  0.1449  0.1199 -0.0337
14221TIP3    H164078   1.982   4.483   2.789 -0.1438 -0.0671 -0.8445
14221TIP3    H264079   1.949   4.337   2.770  0.5259 -0.3256 -0.0753
14222TIP3   OH264080   6.015   3.172  16.845  0.6546  0.1046 -0.0570
14222TIP3    H164081   6.054   3.195  16.761  0.4241 -3.3671 -1.2716
14222TIP3    H264082   5.921   3.175  16.829  0.6142 -2.0674 -0.4751
14223TIP3   OH264083   5.525   0.464  14.070 -0.0375  0.9679  0.6595
14223TIP3    H164084   5.438   0.482  14.107 -0.6763  1.7824 -1.1260
14223TIP3    H264085   5.543   0.539  14.014  1.1031  0.0393 -0.2553
14224TIP3   OH264086   1.229   1.491  12.703  0.0482  0.6540 -0.3856
14224TIP3    H164087   1.150   1.465  12.750  0.5268  0.7314  0.4868
14224TIP3    H264088   1.250   1.578  12.738  1.7773 -0.2957  1.0918
14225TIP3   OH264089   0.526   1.971  16.308 -0.4059 -0.0373  0.3447
14225TIP3    H164090   0.578   2.045  16.339  1.0909  0.2629 -2.5528
14225TIP3    H264091   0.566   1.894  16.350 -0.0090  0.5113  0.9955
14226TIP3   OH264092   1.876   5.950   3.239 -0.1598 -0.0172 -0.4696
14226TIP3    H164093   1.853   5.859   3.222 -0.4598 -0.2615  1.0723
14226TIP3    H264094   1.958   5.945   3.289  0.8555  0.6543 -1.9975
14227TIP3   OH264095   5.237   3.938  13.492  0.1647  0.0106  0.7816
14227TIP3    H164096   5.307   3.963  13.553  0.7742  0.2573  0.0013
14227TIP3    H264097   5.221   4.016  13.440 -0.1379 -0.2852  0.4275
14228TIP3   OH264098   6.422   5.556  11.917  0.3970  0.2301 -0.1833
14228TIP3    H164099   6.442   5.539  12.009 -2.0219 -1.9323  0.0701
14228TIP3    H264100   6.386   5.645  11.917  2.5347  1.1682  0.4985
14229TIP3   OH264101   6.295   1.539   0.454  0.4597 -0.1587  0.5172
14229TIP3    H164102   6.307   1.450   0.419  3.1889  0.9583 -1.8260
14229TIP3    H264103   6.213   1.569   0.415  1.3149 -0.4663 -1.6921
14230TIP3   OH264104   0.974   6.250   4.732 -0.2959 -0.2715  0.3264
14230TIP3    H164105   1.037   6.321   4.723  0.0849 -0.3429  2.0394
14230TIP3    H264106   0.935   6.264   4.819 -3.0296  0.0785 -0.8431
14231TIP3   OH264107   4.703   5.629   1.620  0.7049  0.2916 -0.5197
14231TIP3    H164108   4.646   5.621   1.697  1.9187 -0.7077  0.3209
14231TIP3    H264109   4.733   5.720   1.622 -0.5813  0.7471 -0.8048
14232TIP3   OH264110   0.196   3.283   1.834 -0.5136 -1.1334  0.0416
14232TIP3    H164111   0.169   3.366   1.796 -0.6722 -1.9897 -1.7932
14232TIP3    H264112   0.284   3.268   1.798  0.1034 -1.1133  1.4683
14233TIP3   OH264113   2.253   6.037   4.150  0.2111 -0.3112  0.1298
14233TIP3    H164114   2.313   5.966   4.174 -1.1797 -1.4168  0.4060
14233TIP3    H264115   2.287   6.114   4.196  0.0276 -1.4528  2.2749
14234TIP3   OH264116   0.400   3.931  13.385 -0.1143 -0.1597  0.7056
14234TIP3    H164117   0.319   3.981  13.399  0.0142 -0.0235  0.9740
14234TIP3    H264118   0.385   3.884  13.304 -0.2009  0.3943  0.3941
14235TIP3   OH264119   0.060   3.041  15.872  0.1030 -0.7309 -1.1581
14235TIP3    H164120   0.072   2.970  15.810 -0.5916 -1.4666 -0.4737
14235TIP3    H264121  -0.031   3.068  15.860  0.5035  0.4135 -1.7769
14236TIP3   OH264122   6.118   6.031  15.585  0.2200  0.4651  0.2712
14236TIP3    H164123   6.177   6.059  15.655 -1.1925  1.0623  1.2844
14236TIP3    H264124   6.133   5.937  15.576  1.9262  0.7456 -0.1169
14237TIP3   OH264125   6.586   1.323   2.320  0.8347 -0.6178 -0.0916
14237TIP3    H164126   6.627   1.317   2.234 -0.4405  2.9763 -1.1577
14237TIP3    H264127   6.657   1.347   2.380  1.2054  0.1707 -0.8316
14238TIP3   OH264128   4.748   6.203  15.644 -0.4679  0.0752  0.1471
14238TIP3    H164129   4.703   6.206  15.560  0.8741 -0.4488 -0.6055
14238TIP3    H264130   4.799   6.122  15.642  1.0869  1.0016  0.6492
14239TIP3   OH264131   0.944   3.921   0.160  0.2914 -0.2675 -0.1817
14239TIP3    H164132   0.989   3.992   0.207  1.6948 -1.1358 -0.1491
14239TIP3    H264133   0.861   3.960   0.132 -0.3668  0.4739  2.4880
14240TIP3   OH264134   2.705   1.187   5.473  0.3064 -0.5485  0.1644
14240TIP3    H164135   2.734   1.261   5.420  1.2236 -0.9027  0.1496
14240TIP3    H264136   2.725   1.110   5.419 -2.3596 -0.7798 -0.6548
14241TIP3   OH264137   4.280   2.450  13.610 -0.2637  0.4148  0.0166
14241TIP3    H164138   4.335   2.527  13.625 -0.9772  1.1272 -0.8805
14241TIP3    H264139   4.202   2.465  13.662  0.7309 -1.0754  2.1044
14242TIP3   OH264140   2.534   6.471  15.430 -0.1631 -0.2195  0.2755
14242TIP3    H164141   2.498   6.436  15.511  1.1568  0.4594  1.1755
14242TIP3    H264142   2.613   6.419  15.414  0.6393  0.8974  0.4819
14243TIP3   OH264143   4.255   0.021  14.981 -0.3574 -0.1057  0.3438
14243TIP3    H164144   4.306  -0.019  15.051 -0.6791  1.2836  1.4243
14243TIP3    H264145   4.298   0.105  14.965  0.4612 -0.8987 -2.0363
14244TIP3   OH264146   5.422   1.557  16.926 -0.3040  0.0845 -0.0829
14244TIP3    H164147   5.436   1.603  17.009 -0.9600  0.4054 -0.1408
14244TIP3    H264148   5.384   1.624  16.868  1.4603  0.2931 -1.1158
14245TIP3   OH264149   2.387   5.651  14.997  0.5211 -0.1201 -0.1658
14245TIP3    H164150   2.458   5.707  15.028  0.5467 -1.5659  2.6422
14245TIP3    H264151   2.340   5.706  14.934  2.8769  1.5864 -0.5885
14246TIP3   OH264152   6.053   2.618  12.015 -0.0502  0.0774 -0.1836
14246TIP3    H164153   6.007   2.584  12.092  0.1668  0.7171  0.2401
14246TIP3    H264154   6.047   2.548  11.950  2.0195 -1.5799  1.2755
14247TIP3   OH264155   6.310   6.705   4.037 -0.3029 -0.1151  0.1704
14247TIP3    H164156   6.348   6.628   4.081 -0.3782 -0.3774 -0.2168
14247TIP3    H264157   6.378   6.733   3.975 -0.5150 -0.2430 -0.1226
14248TIP3   OH264158   4.593   5.039  11.264  0.2978  0.1601  0.2979
14248TIP3    H164159   4.685   5.046  11.237  0.3758 -0.7569  0.2768
14248TIP3    H264160   4.544   5.064  11.185  0.5217  1.1796  0.4726
14249TIP3   OH264161   2.811   4.713  14.163  0.3785 -0.4918  0.3172
14249TIP3    H164162   2.887   4.764  14.136  1.7469 -2.1430  0.8978
14249TIP3    H264163   2.740   4.778  14.168  1.8288  1.1940  0.2666
14250TIP3   OH264164   4.329   5.487  14.666  0.3891 -0.3066 -0.1267
14250TIP3    H164165   4.337   5.521  14.755 -0.8717 -2.3184  0.8100
14250TIP3    H264166   4.255   5.535  14.629 -1.6054 -2.0971  1.3068
14251TIP3   OH264167   4.147   3.757  12.883  0.3517 -0.3949  0.2077
14251TIP3    H164168   4.230   3.801  12.899  0.6362 -0.7253 -0.3177
14251TIP3    H264169   4.171   3.666  12.866 -0.2918 -0.9728  2.1099
14252TIP3   OH264170   1.258   5.457  14.103 -0.4956  0.6080  0.4281
14252TIP3    H164171   1.251   5.476  14.196 -0.8688 -2.1574  1.0367
14252TIP3    H264172   1.350   5.436  14.089 -0.2281  2.0152 -0.0798
14253TIP3   OH264173   5.809   1.355   4.829 -0.0336  0.2429  0.2305
14253TIP3    H164174   5.902   1.338   4.846 -0.3876 -2.3640 -0.0069
14253TIP3    H264175   5.763   1.304   4.896 -1.3266  1.6414  0.4524
14254TIP3   OH264176   0.522   2.014   5.146 -0.1967 -0.7196 -0.1907
14254TIP3    H164177   0.546   2.074   5.075 -0.2463  1.1102  1.2555
14254TIP3    H264178   0.430   1.995   5.132 -0.9032  1.6988  0.7484
14255TIP3   OH264179   6.699   0.617  11.268 -0.2224 -0.0776  0.0581
14255TIP3    H164180   6.650   0.643  11.346 -0.4605  0.0479 -0.1317
14255TIP3    H264181   6.706   0.522  11.275  0.9002  0.0458  0.9002
14256TIP3   OH264182   0.982   2.628  12.889  0.0608  0.4505  0.3736
14256TIP3    H164183   1.060   2.602  12.841  1.4776  1.0999  2.2034
14256TIP3    H264184   0.955   2.549  12.936 -0.3283  0.2618 -0.1545
14257TIP3   OH264185   6.046   3.553  12.088 -0.5220  0.0411  0.2834
14257TIP3    H164186   5.997   3.562  12.169 -0.0161  1.1643  0.4845
14257TIP3    H264187   6.138   3.558  12.114 -0.3108 -0.8094 -0.2319
14258TIP3   OH264188   0.787   3.653   1.430 -0.2732  0.0317 -0.3438
14258TIP3    H164189   0.693   3.661   1.446 -0.6714 -0.9954 -1.9156
14258TIP3    H264190   0.823   3.739   1.450 -1.4720  0.3228  0.6782
14259TIP3   OH264191   6.640   4.339  12.557 -0.0007 -0.4448  0.3948
14259TIP3    H164192   6.560   4.314  12.510 -0.0899 -0.7730  0.7174
14259TIP3    H264193   6.623   4.313  12.647  0.5572 -0.7067  0.4266
14260TIP3   OH264194   3.940   1.857  13.549 -0.2082  0.0721 -0.2839
14260TIP3    H164195   3.955   1.781  13.606  1.9318  2.3019  2.4283
14260TIP3    H264196   4.010   1.852  13.484  1.4900  0.8449  1.3640
14261TIP3   OH264197   5.976   6.355  13.415 -0.6158 -0.4961 -0.0719
14261TIP3    H164198   6.027   6.275  13.400  3.1820  1.4336  1.2475
14261TIP3    H264199   5.953   6.386  13.328  2.1883 -0.5436 -0.9099
14262TIP3   OH264200   6.514   3.428  16.731  0.6242  0.3695 -0.1683
14262TIP3    H164201   6.544   3.425  16.640  1.1496  0.7306 -0.0071
14262TIP3    H264202   6.547   3.512  16.764 -1.7080  1.4731 -0.3908
14263TIP3   OH264203   5.458   2.867   4.013  0.4964 -0.4024  0.3412
14263TIP3    H164204   5.527   2.896   4.072  0.2995 -1.0444  0.9030
14263TIP3    H264205   5.405   2.806   4.065  1.1050 -2.0528 -0.8727
14264TIP3   OH264206   0.120   5.751   5.362  0.4316  0.1825 -0.3682
14264TIP3    H164207   0.138   5.681   5.298  0.3246 -0.2410  0.0599
14264TIP3    H264208   0.031   5.779   5.342  0.0108 -0.6592  0.2391
14265TIP3   OH264209   5.433   1.978   1.804 -0.1684 -0.3279  0.1200
14265TIP3    H164210   5.390   2.014   1.727  0.9950  1.1537  0.1238
14265TIP3    H264211   5.368   1.917   1.841 -1.9461  1.2086 -0.3136
14266TIP3   OH264212   6.408   1.214   2.472 -0.1441 -0.0002  0.2729
14266TIP3    H164213   6.402   1.118   2.474  0.5633 -0.1209 -1.3311
14266TIP3    H264214   6.485   1.231   2.418  0.5600  1.4861  1.6538
14267TIP3   OH264215   5.543   2.444   2.643  0.0565  0.3730  0.3916
14267TIP3    H164216   5.473   2.379   2.645  1.0838 -0.8804 -1.3938
14267TIP3    H264217   5.581   2.441   2.731  0.5835 -2.0831  0.1417
14268TIP3   OH264218   0.558   1.929   2.590 -0.1998  0.4271 -0.5765
14268TIP3    H164219   0.511   1.886   2.519  0.8468 -2.6623  0.4021
14268TIP3    H264220   0.620   1.862   2.621 -0.3552  1.7193  2.9900
14269TIP3   OH264221   1.168   3.607  13.135 -0.5077  0.4041 -0.0187
14269TIP3    H164222   1.205   3.521  13.116 -1.2568 -0.2495  1.3168
14269TIP3    H264223   1.199   3.628  13.223  0.0358  1.7232 -0.5005
14270TIP3   OH264224   5.602   1.034  12.486  0.1402  0.1513 -0.7165
14270TIP3    H164225   5.606   1.066  12.576 -1.4642  1.2138 -1.0021
14270TIP3    H264226   5.682   0.982  12.476 -0.0359 -0.6661  1.5673
14271TIP3   OH264227   4.231   0.553  11.907 -0.1999  0.5048 -0.1598
14271TIP3    H164228   4.163   0.619  11.889 -0.6802  0.5073  1.4976
14271TIP3    H264229   4.312   0.594  11.877 -0.7302  1.1117 -0.8160
14272TIP3   OH264230   5.944   5.799  14.112  0.0292 -0.5770  0.5188
14272TIP3    H164231   5.912   5.811  14.022  0.3191  1.3017  0.6385
14272TIP3    H264232   6.012   5.731  14.104  1.1231  0.6125 -0.9676
14273TIP3   OH264233   0.715   2.037  11.595 -0.1789 -0.6225  0.0068
14273TIP3    H164234   0.751   2.104  11.652 -1.3302  1.4681 -1.6033
14273TIP3    H264235   0.792   1.989  11.563  1.1796  2.6349 -2.0517
14274TIP3   OH264236   2.984   2.954   1.810  0.3481 -0.0034  0.1310
14274TIP3    H164237   2.939   2.954   1.725 -0.3683  0.1770  0.5001
14274TIP3    H264238   2.957   3.036   1.851 -1.1846 -1.1308  1.4918
14275TIP3   OH264239   3.588   1.176   1.086 -0.2746 -0.2725  0.5371
14275TIP3    H164240   3.571   1.082   1.087 -1.7591 -0.0176  0.6874
14275TIP3    H264241   3.603   1.199   1.178  0.1918 -0.3730  0.4885
14276TIP3   OH264242   1.180   0.665  14.159  0.0975 -0.1750 -0.4561
14276TIP3    H164243   1.182   0.760  14.164  1.2412 -0.2057 -0.1569
14276TIP3    H264244   1.147   0.637  14.244  0.5534 -0.0666 -0.2409
14277TIP3   OH264245   5.525   5.512  13.959 -0.7483  0.0317  0.1819
14277TIP3    H164246   5.562   5.477  13.877 -0.1829 -1.8463  1.1670
14277TIP3    H264247   5.431   5.500  13.949 -0.6161 -1.2335  0.2018
14278TIP3   OH264248   6.718   5.772  14.408  0.7904  0.2402 -0.0955
14278TIP3    H164249   6.700   5.863  14.428  2.4297  1.2296 -2.6393
14278TIP3    H264250   6.775   5.742  14.479  0.1759  1.1578  0.7979
14279TIP3   OH264251   2.566   1.139   1.868 -0.0764 -0.4066  0.3131
14279TIP3    H164252   2.636   1.080   1.894  0.4226  0.2316  0.4253
14279TIP3    H264253   2.581   1.219   1.918 -0.0136  0.2706 -0.7679
14280TIP3   OH264254   6.420   1.085  13.821  0.0284 -0.0647  0.0644
14280TIP3    H164255   6.391   1.174  13.800  0.5544  0.1850  0.3856
14280TIP3    H264256   6.397   1.074  13.914  1.3187  0.2844  0.4406
14281TIP3   OH264257   4.682   1.915  16.291  0.1849  1.0049 -0.3505
14281TIP3    H164258   4.690   1.837  16.346 -0.0587  0.9385 -0.4093
14281TIP3    H264259   4.746   1.902  16.222  0.4501  1.0598 -0.1182
14282TIP3   OH264260   5.370   6.708   2.078  0.2676  0.0239 -0.0743
14282TIP3    H164261   5.309   6.714   2.151 -0.5518 -0.9165 -0.6433
14282TIP3    H264262   5.338   6.634   2.026  1.2747  0.1823 -0.9692
14283TIP3   OH264263   5.388   0.065   1.731  0.0825 -0.1839 -0.4851
14283TIP3    H164264   5.382   0.125   1.657 -1.2843 -0.1424 -0.3672
14283TIP3    H264265   5.298   0.038   1.747  0.7282 -3.0213 -1.1107
14284TIP3   OH264266   6.639   4.379   2.635  0.1682 -0.5251 -0.4082
14284TIP3    H164267   6.713   4.334   2.674 -2.2675 -1.4079  3.9489
14284TIP3    H264268   6.667   4.470   2.627  2.4342 -1.2497 -1.2697
14285TIP3   OH264269   1.569   3.984   5.664 -0.6511  0.0181 -0.3042
14285TIP3    H164270   1.623   4.032   5.602 -0.6799  1.1821  0.5460
14285TIP3    H264271   1.630   3.954   5.731 -0.9984  1.1434  0.5403
14286TIP3   OH264272   3.846   6.015  11.619  0.3000  0.3742  0.1840
14286TIP3    H164273   3.830   5.957  11.545 -3.1579 -0.0647  1.1190
14286TIP3    H264274   3.853   5.957  11.694 -0.8956  0.9972  0.8099
14287TIP3   OH264275   0.610   5.224   5.437 -0.2820  0.3389 -0.0252
14287TIP3    H164276   0.536   5.177   5.399 -0.7702  0.9137  0.1973
14287TIP3    H264277   0.619   5.187   5.525 -0.1176  0.0685 -0.1543
14288TIP3   OH264278   5.783   4.146  15.011 -0.0224 -0.2000  0.1963
14288TIP3    H164279   5.837   4.070  15.034 -0.5205 -0.2060  1.4369
14288TIP3    H264280   5.846   4.217  14.998  0.3339 -0.3459  1.0530
14289TIP3   OH264281   3.171   2.273   2.046  0.9518 -0.3596 -0.3948
14289TIP3    H164282   3.260   2.264   2.080  0.4458 -0.2062  1.0365
14289TIP3    H264283   3.122   2.203   2.088 -0.0038  0.6841  0.2917
14290TIP3   OH264284   3.430   5.303   0.376  0.3094  0.5312  0.3865
14290TIP3    H164285   3.438   5.254   0.458  0.9456 -0.9800 -0.5524
14290TIP3    H264286   3.381   5.382   0.401 -1.5573 -0.9626  1.7872
14291TIP3   OH264287   4.174   1.835   3.328  0.8290 -0.1591 -0.0141
14291TIP3    H164288   4.080   1.819   3.317  0.6156 -1.0777  2.4808
14291TIP3    H264289   4.180   1.926   3.356  0.2103 -0.9922  3.3148
14292TIP3   OH264290   2.892   6.481  14.529  0.0888  0.0151 -0.1794
14292TIP3    H164291   2.872   6.484  14.622  0.5625 -4.1846  0.2653
14292TIP3    H264292   2.807   6.484  14.485 -0.0903  3.1868  0.1655
14293TIP3   OH264293   2.073   1.619  13.015  0.6381  0.5168 -0.1361
14293TIP3    H164294   2.066   1.617  13.110  2.0743 -0.8769 -0.0072
14293TIP3    H264295   2.013   1.550  12.985  1.4888 -0.2820 -0.0806
14294TIP3   OH264296   2.514   1.152  14.299 -0.2409 -0.0349 -0.0360
14294TIP3    H164297   2.520   1.237  14.255 -2.1983 -0.4109 -1.1286
14294TIP3    H264298   2.547   1.089  14.235  0.7263 -0.1784  0.5851
14295TIP3   OH264299   5.250   2.002  12.121 -0.3863 -0.0562 -0.2440
14295TIP3    H164300   5.291   1.916  12.110 -1.7340 -0.7808  0.1445
14295TIP3    H264301   5.300   2.060  12.064  1.5278 -0.7490  0.6424
14296TIP3   OH264302   0.798   1.938  17.192  0.1730  0.2117 -0.0397
14296TIP3    H164303   0.813   1.863  17.250 -0.0597  0.1973  0.0042
14296TIP3    H264304   0.859   1.924  17.119  0.1579 -0.0026 -0.0140
14297TIP3   OH264305   0.418   0.836  15.791  0.9040  0.3835  0.1499
14297TIP3    H164306   0.327   0.807  15.780  0.8778  0.3502  0.4608
14297TIP3    H264307   0.415   0.930  15.770  0.8001  0.3786  0.1392
14298TIP3   OH264308   5.876   5.299  13.558  0.2418 -0.0233 -0.5562
14298TIP3    H164309   5.953   5.313  13.613 -0.7926  0.3262  0.8620
14298TIP3    H264310   5.802   5.302  13.619 -0.9320  0.0318 -1.9273
14299TIP3   OH264311   5.587   3.240  11.728 -0.4931  0.1687  0.0592
14299TIP3    H164312   5.574   3.229  11.822  3.2872  1.4942  0.9170
14299TIP3    H264313   5.597   3.334  11.716  0.2284 -0.0704 -1.4618
14300TIP3   OH264314   0.638   4.366  11.796 -0.2115 -0.1303 -0.2784
14300TIP3    H164315   0.663   4.307  11.867  3.2400  0.2197 -1.0331
14300TIP3    H264316   0.614   4.447  11.840 -0.8542 -0.7607  0.5721
14301TIP3   OH264317   2.390   2.149  15.328  0.3178 -0.5457 -0.2371
14301TIP3    H164318   2.427   2.143  15.240 -0.8416  0.1413 -0.8081
14301TIP3    H264319   2.324   2.219  15.321 -0.2934 -0.9721  0.9833
14302TIP3   OH264320   6.384   5.755   0.100  0.1145  0.0167  0.2766
14302TIP3    H164321   6.313   5.808   0.065 -0.5117 -1.3913 -0.6494
14302TIP3    H264322   6.354   5.729   0.188 -0.7583 -0.9489 -0.2826
14303TIP3   OH264323   4.524   1.670   6.331  0.5123  0.3197 -0.8408
14303TIP3    H164324   4.564   1.681   6.417  2.4880 -0.2923 -1.6072
14303TIP3    H264325   4.562   1.740   6.278  0.4097 -0.1352 -1.5362
14304TIP3   OH264326   3.982   6.422  15.308  0.4223 -0.7484 -0.0717
14304TIP3    H164327   3.892   6.406  15.281  0.5505  0.8453 -1.5961
14304TIP3    H264328   4.031   6.348  15.271  0.3147  0.4675 -2.8805
14305TIP3   OH264329   2.254   2.715  13.089  0.2359  0.2021  0.2832
14305TIP3    H164330   2.253   2.763  13.006 -0.7071  0.0453  0.1901
14305TIP3    H264331   2.250   2.782  13.157 -0.0236  0.2984  0.1738
14306TIP3   OH264332   5.533   4.832   3.680  0.0811 -0.1356 -0.1797
14306TIP3    H164333   5.445   4.803   3.701 -0.0127 -1.0474 -1.6791
14306TIP3    H264334   5.524   4.925   3.661 -0.4863 -0.1378  0.0782
14307TIP3   OH264335   4.728   3.423   0.343  0.2148  0.7865 -0.5658
14307TIP3    H164336   4.659   3.410   0.408  0.2656 -0.2151 -0.6865
14307TIP3    H264337   4.791   3.480   0.386  0.7540 -0.6763  0.6911
14308TIP3   OH264338   0.665   4.427  11.120  0.0829 -0.2330  0.0241
14308TIP3    H164339   0.597   4.493  11.109 -0.3830 -0.3265  1.9168
14308TIP3    H264340   0.625   4.346  11.088 -0.7993 -0.3118  1.2360
14309TIP3   OH264341   1.597   2.049  13.624  0.4687 -0.0876  0.7127
14309TIP3    H164342   1.510   2.011  13.612 -0.3610  2.0091 -0.4846
14309TIP3    H264343   1.605   2.060  13.719 -0.2064 -1.0541  0.8987
14310TIP3   OH264344   4.022   3.516  14.291 -0.3230 -0.4522  0.4708
14310TIP3    H164345   3.941   3.558  14.262  0.6215  0.7975 -0.5194
14310TIP3    H264346   3.998   3.426  14.309 -1.8377 -0.2231 -0.2766
14311TIP3   OH264347   3.430   3.070   4.043 -0.5667 -0.1252 -0.0692
14311TIP3    H164348   3.338   3.045   4.035 -0.6429  0.6631 -2.0882
14311TIP3    H264349   3.478   2.994   4.010 -0.3960 -1.0093  2.0832
14312TIP3   OH264350   2.755   4.697  12.813 -0.0295  0.0138  0.0993
14312TIP3    H164351   2.695   4.714  12.885 -0.9219  1.5173 -0.9514
14312TIP3    H264352   2.724   4.753  12.742  3.4834  2.0317 -0.0421
14313TIP3   OH264353   4.100   0.477   2.194  0.0614 -0.0158 -0.6121
14313TIP3    H164354   4.120   0.541   2.262 -0.3545  0.8082 -1.2427
14313TIP3    H264355   4.142   0.511   2.115  2.9337 -2.3291 -0.2760
14314TIP3   OH264356   1.766   5.572   1.638  0.4389  0.4259 -0.4994
14314TIP3    H164357   1.850   5.528   1.655  0.0824 -0.0647  0.0450
14314TIP3    H264358   1.791   5.660   1.611  1.1439  0.1847 -0.6721
14315TIP3   OH264359   1.954   3.290  14.162  0.2774  0.3086  0.3788
14315TIP3    H164360   2.042   3.300  14.199 -0.2661  0.2378  1.7700
14315TIP3    H264361   1.963   3.221  14.096  1.6023  1.5072 -0.7541
14316TIP3   OH264362   2.523   3.512   5.332  0.0555  0.3798  0.0397
14316TIP3    H164363   2.583   3.481   5.399 -1.1650  1.7197  1.8409
14316TIP3    H264364   2.579   3.553   5.266  1.3119 -1.4677 -0.1157
14317TIP3   OH264365   6.090   1.380   5.224  0.4971  0.2879 -0.5162
14317TIP3    H164366   6.167   1.357   5.171 -0.4411 -0.6712 -1.5155
14317TIP3    H264367   6.101   1.330   5.305  0.6995 -0.2302 -0.8543
14318TIP3   OH264368   4.117   4.039   1.579 -0.3339 -0.9213 -0.2184
14318TIP3    H164369   4.156   4.108   1.524  1.1667 -2.8397 -1.7240
14318TIP3    H264370   4.024   4.042   1.559 -0.4479  1.1775  0.3890
14319TIP3   OH264371   1.328   6.042   2.315 -0.6516 -0.4657  0.3402
14319TIP3    H164372   1.367   6.011   2.233 -0.3392  3.3670 -1.1317
14319TIP3    H264373   1.234   6.045   2.297 -1.0434 -2.9761  1.4827
14320TIP3   OH264374   2.285   1.004   4.991  0.1721 -0.5398  0.4853
14320TIP3    H164375   2.251   1.080   5.039 -0.3229 -0.6551  0.3245
14320TIP3    H264376   2.207   0.962   4.955  0.5660  0.0326 -1.1634
14321TIP3   OH264377   2.500   5.392   0.459  0.3192 -0.2340 -0.3135
14321TIP3    H164378   2.424   5.434   0.498  0.6346  0.6752 -0.6411
14321TIP3    H264379   2.573   5.417   0.515  0.1595 -2.7278  1.1722
14322TIP3   OH264380   5.038   5.311   2.913  0.2165 -0.0116  0.3483
14322TIP3    H164381   5.039   5.323   2.818  0.8642  0.8566  0.4515
14322TIP3    H264382   5.014   5.397   2.948  2.5108  0.4160  1.0519
14323TIP3   OH264383   5.323   1.640  10.641  0.5254 -0.2741  0.4475
14323TIP3    H164384   5.364   1.639  10.728 -0.1591 -0.1195  0.7783
14323TIP3    H264385   5.381   1.695  10.588 -0.6726  2.2956  1.6336
14324TIP3   OH264386   0.213   6.502  16.605  0.4113  0.2117 -0.4731
14324TIP3    H164387   0.295   6.530  16.645  1.1140  0.1886 -1.8625
14324TIP3    H264388   0.173   6.583  16.574 -0.6184  0.3506  1.0909
14325TIP3   OH264389   0.944   2.197  12.244 -0.1836  0.6798  0.4443
14325TIP3    H164390   1.003   2.146  12.188  0.0081  1.2480  0.1231
14325TIP3    H264391   0.858   2.187  12.204 -0.0143  1.2469 -0.0767
14326TIP3   OH264392   5.720   4.982  15.963 -0.3136  0.1077 -0.7731
14326TIP3    H164393   5.646   4.996  16.022 -0.5314 -0.7551 -0.8261
14326TIP3    H264394   5.787   4.942  16.019  0.1943  1.0667 -0.6799
14327TIP3   OH264395   0.607   2.629  14.531  0.2520 -0.5861  0.2479
14327TIP3    H164396   0.522   2.671  14.519  1.3918  1.4495 -1.3262
14327TIP3    H264397   0.605   2.553  14.473 -0.4057 -0.4508  0.0841
14328TIP3   OH264398   3.608   1.425  12.831  0.5443 -0.1735 -0.2788
14328TIP3    H164399   3.646   1.345  12.795 -0.4231  0.2590 -2.3648
14328TIP3    H264400   3.681   1.487  12.833  0.9098 -0.5989 -0.2575
14329TIP3   OH264401   3.309   5.831  13.869  0.0721  0.0547  0.1677
14329TIP3    H164402   3.327   5.754  13.923  0.2163 -0.2487 -0.3093
14329TIP3    H264403   3.230   5.869  13.908  0.6207  0.2935  1.0750
14330TIP3   OH264404   1.613   2.274  17.027 -0.1078 -0.3589  0.1587
14330TIP3    H164405   1.550   2.261  17.097 -0.1415 -2.1400 -0.1656
14330TIP3    H264406   1.657   2.356  17.049 -0.8792 -0.3270  1.6576
14331TIP3   OH264407   1.068   3.675   5.323  0.7071 -0.5652 -0.1427
14331TIP3    H164408   1.108   3.593   5.349 -0.5948 -0.6454  1.8407
14331TIP3    H264409   1.127   3.743   5.355  1.2713 -0.6925 -0.8838
14332TIP3   OH264410   0.334   4.474  10.746 -0.2054 -0.0526  0.7202
14332TIP3    H164411   0.297   4.556  10.778  0.5233  0.5624  0.0417
14332TIP3    H264412   0.262   4.411  10.749 -0.8208  0.6613  1.0665
14333TIP3   OH264413   6.614   5.796  14.138  0.0873  0.5741 -0.2708
14333TIP3    H164414   6.687   5.806  14.199 -1.3578  1.0892  1.4750
14333TIP3    H264415   6.640   5.844  14.060  1.4435  1.0714  0.4669
14334TIP3   OH264416   3.180   3.974  17.165 -0.6156 -0.2383 -0.5112
14334TIP3    H164417   3.143   4.030  17.233 -1.0857  0.1220 -1.0513
14334TIP3    H264418   3.196   4.033  17.091  0.6716 -0.4627 -0.4409
14335TIP3   OH264419   6.501   1.420  13.365  0.0418 -0.0163  0.1282
14335TIP3    H164420   6.471   1.364  13.436  0.8982  2.1403  2.3417
14335TIP3    H264421   6.520   1.360  13.293 -0.1898 -2.3885  1.9329
14336TIP3   OH264422   2.507   0.879  11.529 -0.2729  0.4457  0.0115
14336TIP3    H164423   2.486   0.839  11.444 -2.8568  1.2076  0.2170
14336TIP3    H264424   2.566   0.951  11.508  0.0258 -0.0649 -0.9792
14337TIP3   OH264425   0.247   5.211  12.425 -0.3011  0.7413 -0.1963
14337TIP3    H164426   0.290   5.172  12.349 -1.7373 -0.7584 -0.2906
14337TIP3    H264427   0.302   5.287  12.447  1.9174 -0.5885 -0.7829
14338TIP3   OH264428   4.440   2.872  11.852 -0.4025  0.0906 -0.7587
14338TIP3    H164429   4.428   2.782  11.821 -0.2612 -0.5432  0.9203
14338TIP3    H264430   4.529   2.875  11.886 -1.5909 -0.4159  2.9012
14339TIP3   OH264431   2.441   2.772  10.345  0.4074 -0.5855 -0.0863
14339TIP3    H164432   2.423   2.728  10.262  1.2682 -2.2012  0.5363
14339TIP3    H264433   2.526   2.737  10.373  1.3979  1.8598  0.2377
14340TIP3   OH264434   4.354   5.315   1.703 -0.3763  0.1001 -0.9412
14340TIP3    H164435   4.348   5.252   1.775  0.6509  1.2220  0.1677
14340TIP3    H264436   4.329   5.264   1.626  0.6701 -1.7582 -0.1400
14341TIP3   OH264437   5.687   2.358  11.193 -0.4317  0.1790 -0.0970
14341TIP3    H164438   5.736   2.434  11.225  1.1850 -1.1726  0.8609
14341TIP3    H264439   5.751   2.307  11.143 -1.1079 -1.1520  0.3239
14342TIP3   OH264440   3.725   2.533   5.530 -0.7219  0.2403 -0.4560
14342TIP3    H164441   3.678   2.608   5.494 -1.4242  0.4031  0.7550
14342TIP3    H264442   3.782   2.571   5.598  0.2456 -0.1179 -1.0353
14343TIP3   OH264443   3.369   4.342   5.492 -0.7670 -0.0126 -0.2432
14343TIP3    H164444   3.359   4.267   5.434  1.4777 -0.6555  0.0851
14343TIP3    H264445   3.357   4.306   5.580 -0.8382  0.2440 -0.1476
14344TIP3   OH264446   1.751   2.983   3.030 -0.2857  0.4232 -0.1225
14344TIP3    H164447   1.724   2.912   3.088 -0.0311 -0.6286 -1.2601
14344TIP3    H264448   1.708   2.964   2.946 -1.1921  2.2867 -0.1188
14345TIP3   OH264449   2.209   6.254  14.710 -0.4697 -0.2027 -0.4321
14345TIP3    H164450   2.268   6.180  14.693 -0.2865 -0.2364  0.3015
14345TIP3    H264451   2.265   6.331  14.705 -0.7185 -0.0709 -1.4975
14346TIP3   OH264452   4.586   6.681  16.393  0.2453 -0.0639  0.8252
14346TIP3    H164453   4.507   6.679  16.340  0.6720  0.7781  0.1144
14346TIP3    H264454   4.657   6.662  16.331  0.6436 -0.2601  1.3330
14347TIP3   OH264455   2.497   1.606  17.126  0.4025  0.1433 -0.0731
14347TIP3    H164456   2.502   1.602  17.221  1.0201  1.3430 -0.0348
14347TIP3    H264457   2.469   1.519  17.099  2.3498 -0.8920  1.0629
14348TIP3   OH264458   5.227   6.416  12.800  0.0342  0.2379 -0.4660
14348TIP3    H164459   5.206   6.493  12.854  0.8529  0.5957 -0.6459
14348TIP3    H264460   5.142   6.375  12.785 -0.0533 -1.5453  3.5191
14349TIP3   OH264461   1.362   1.411   5.848 -0.3935 -0.1797  0.1621
14349TIP3    H164462   1.281   1.364   5.826 -0.3461  0.0128 -0.4589
14349TIP3    H264463   1.375   1.393   5.941 -0.4189 -1.3410 -0.0323
14350TIP3   OH264464   2.539   0.359  12.789 -0.0709 -0.4924  0.2207
14350TIP3    H164465   2.557   0.303  12.864  0.9319  0.8529  1.0256
14350TIP3    H264466   2.625   0.386  12.757 -0.5069  0.8529  0.0942
14351TIP3   OH264467   2.031   5.310   4.575  0.2963 -0.5103 -0.0895
14351TIP3    H164468   2.116   5.271   4.554  0.7231 -0.1086  0.8199
14351TIP3    H264469   1.983   5.239   4.620  0.5267 -0.4461  0.2668
14352TIP3   OH264470   6.369   1.726   2.639  0.0292  0.2791  0.2506
14352TIP3    H164471   6.407   1.757   2.557 -3.5454 -0.4609 -1.9140
14352TIP3    H264472   6.386   1.632   2.640  0.5809  0.3745  0.7226
14353TIP3   OH264473   3.366   0.989  14.235 -0.1500  0.0354 -0.4007
14353TIP3    H164474   3.412   0.917  14.192  0.2092 -1.0822  1.7099
14353TIP3    H264475   3.273   0.966  14.226 -0.1453  0.3775 -1.4615
14354TIP3   OH264476   5.059   1.741  14.624 -0.5240 -0.2712 -0.3892
14354TIP3    H164477   5.005   1.818  14.604  0.1812  0.6512  1.0731
14354TIP3    H264478   4.998   1.678  14.661 -0.8448  0.2096 -0.0892
14355TIP3   OH264479   6.313   2.779   3.688 -0.2413 -0.0959 -0.2302
14355TIP3    H164480   6.318   2.875   3.694  1.0966 -0.1860  0.6560
14355TIP3    H264481   6.379   2.748   3.750 -0.6958 -1.6059 -0.4591
14356TIP3   OH264482   6.657   1.994   0.533  0.3781  0.0129 -0.6174
14356TIP3    H164483   6.574   2.031   0.502  0.3394 -0.7500 -1.4686
14356TIP3    H264484   6.636   1.902   0.553  1.3689 -0.6894 -2.5017
14357TIP3   OH264485   4.916   6.652  15.746 -0.0735 -0.3331  0.0013
14357TIP3    H164486   5.002   6.639  15.707 -0.3532 -2.4409 -0.0221
14357TIP3    H264487   4.934   6.698  15.828  1.1151 -0.9739  0.1191
14358TIP3   OH264488   1.326   5.093   3.658 -0.0067 -0.2316 -0.1116
14358TIP3    H164489   1.382   5.092   3.735 -0.8130  1.0672  0.5288
14358TIP3    H264490   1.245   5.053   3.687 -0.2758  0.1669 -0.3041
14359TIP3   OH264491   4.850   0.678  11.814  0.0605  0.5095 -0.3816
14359TIP3    H164492   4.839   0.747  11.878 -0.1375 -1.3859  1.7668
14359TIP3    H264493   4.900   0.610  11.860  0.4343 -0.7108 -2.4402
14360TIP3   OH264494   3.635   0.597  12.515  0.2144 -0.5125 -1.0462
14360TIP3    H164495   3.623   0.515  12.468 -0.1184  0.5281 -2.8774
14360TIP3    H264496   3.621   0.665  12.449  1.7256  1.0090  0.1110
14361TIP3   OH264497   5.346   4.651   2.430  0.3870  0.1413 -0.3148
14361TIP3    H164498   5.275   4.665   2.493  0.8847  2.5545 -0.1772
14361TIP3    H264499   5.302   4.632   2.347 -0.2997 -1.7250  0.4309
14362TIP3   OH264500   3.797   4.324  11.981  0.5731  0.2013 -0.3079
14362TIP3    H164501   3.742   4.295  11.909  0.0228 -0.4598  0.3570
14362TIP3    H264502   3.746   4.393  12.024  0.9006  0.5962 -0.5422
14363TIP3   OH264503   4.066   4.495   3.111  0.9236  0.0624 -0.3545
14363TIP3    H164504   3.982   4.460   3.082  1.0479 -0.6038  0.0738
14363TIP3    H264505   4.043   4.579   3.153  0.0394 -1.5239  2.5991
14364TIP3   OH264506   0.332   3.068   3.352  0.1043  0.8786 -0.1442
14364TIP3    H164507   0.326   3.007   3.427 -2.2509 -0.2477 -1.1529
14364TIP3    H264508   0.417   3.110   3.363  0.8458 -0.9285  1.8998
14365TIP3   OH264509   6.293   3.101  15.723 -0.2785 -0.2428  0.2720
14365TIP3    H164510   6.302   3.193  15.745  0.2293 -0.5968  1.6707
14365TIP3    H264511   6.251   3.100  15.637  1.0893  1.3139 -0.4761
14366TIP3   OH264512   6.364   1.423   5.527  0.4341  0.3579 -0.2073
14366TIP3    H164513   6.409   1.452   5.448  0.6900 -1.2561 -0.6937
14366TIP3    H264514   6.316   1.345   5.500 -1.6014  1.2500  0.6346
14367TIP3   OH264515   0.982   3.431   0.209 -0.1468  0.2979 -0.6742
14367TIP3    H164516   0.987   3.361   0.273  0.4185  0.8444 -0.1093
14367TIP3    H264517   0.995   3.512   0.260  0.6695  0.7167 -1.5178
14368TIP3   OH264518   5.200   6.495  12.262 -0.3137 -0.0325 -0.0466
14368TIP3    H164519   5.117   6.449  12.249 -0.7097  0.6500 -0.0240
14368TIP3    H264520   5.226   6.523  12.174 -0.4265  0.2799  0.0169
14369TIP3   OH264521   1.264   4.069   1.729  0.5916 -0.0397  0.2059
14369TIP3    H164522   1.242   4.107   1.644 -0.0419 -1.4607 -0.2827
14369TIP3    H264523   1.262   4.144   1.789 -0.0644  0.8020 -0.8238
14370TIP3   OH264524   5.533   1.981  12.588 -0.0645  0.5053 -0.0552
14370TIP3    H164525   5.517   2.005  12.679  0.6903  0.4832  0.0891
14370TIP3    H264526   5.466   1.915  12.568  0.9435 -0.9118  1.0678
14371TIP3   OH264527   3.111   5.790  11.727  0.0985 -0.3942 -0.0054
14371TIP3    H164528   3.148   5.702  11.718  0.4621 -0.0526 -2.5256
14371TIP3    H264529   3.174   5.847  11.683 -1.4745  0.7451 -0.8499
14372TIP3   OH264530   1.372   2.997  14.978  0.2831  0.2617  0.0126
14372TIP3    H164531   1.453   2.950  14.994 -0.2925 -0.4311  1.0436
14372TIP3    H264532   1.305   2.929  14.972 -0.3348  0.8597 -0.1221
14373TIP3   OH264533   2.659   6.075  15.075  0.0018 -0.3026  0.3922
14373TIP3    H164534   2.754   6.061  15.075 -0.0078 -1.0558 -2.2947
14373TIP3    H264535   2.623   5.995  15.115  0.4626 -0.8632 -0.2894
14374TIP3   OH264536   0.005   5.841  15.490  0.1882 -0.1072  0.2506
14374TIP3    H164537  -0.073   5.807  15.447  1.3872 -1.5646 -0.8946
14374TIP3    H264538  -0.022   5.925  15.527 -2.2411 -1.1402  0.9938
14375TIP3   OH264539   3.642   6.243  12.882  0.9569  0.3052 -0.4472
14375TIP3    H164540   3.654   6.219  12.790  1.2029 -0.9064 -0.1077
14375TIP3    H264541   3.662   6.337  12.884  0.1566  0.5300 -1.7671
14376TIP3   OH264542   6.641   5.181  15.911 -0.2060  0.0455 -0.4155
14376TIP3    H164543   6.727   5.217  15.935 -0.1579 -0.4310  0.1622
14376TIP3    H264544   6.629   5.207  15.819  1.3414 -1.3157 -1.0612
14377TIP3   OH264545   3.460   5.732  16.670  0.0617 -0.0984  0.2884
14377TIP3    H164546   3.520   5.786  16.619 -1.3136 -1.3771 -2.9334
14377TIP3    H264547   3.385   5.789  16.687 -0.1734 -0.1380 -0.5966
14378TIP3   OH264548   6.293   5.842  15.287  0.4261  0.0302 -0.2586
14378TIP3    H164549   6.223   5.813  15.229  0.2760  1.1610 -0.6597
14378TIP3    H264550   6.306   5.934  15.266  1.3791  0.0862  0.4846
14379TIP3   OH264551   6.398   4.768  15.060  0.1743 -0.3432 -0.0957
14379TIP3    H164552   6.329   4.764  15.126 -0.5319 -1.8636 -0.8686
14379TIP3    H264553   6.365   4.829  14.994 -0.1329 -0.5453 -0.1305
14380TIP3   OH264554   5.543   0.688   0.724  0.1198  0.5644 -0.0585
14380TIP3    H164555   5.506   0.715   0.808 -1.1340  0.7564 -0.6522
14380TIP3    H264556   5.497   0.741   0.659  0.6710  0.0230 -0.9077
14381TIP3   OH264557   5.902   6.541  13.597 -0.5078 -0.0838 -0.4834
14381TIP3    H164558   5.917   6.471  13.533 -3.1213 -1.9439  0.7315
14381TIP3    H264559   5.841   6.600  13.554  0.4741  0.6306 -0.9324
14382TIP3   OH264560   3.753   1.641   3.775  0.4319  0.0177 -0.3328
14382TIP3    H164561   3.789   1.586   3.845 -1.3977 -2.3551 -1.0986
14382TIP3    H264562   3.794   1.608   3.695  2.3139  2.5362 -0.5064
14383TIP3   OH264563   4.384   3.931   6.238 -0.9572 -0.3606 -0.3986
14383TIP3    H164564   4.475   3.919   6.266 -0.6763  1.1399 -0.5781
14383TIP3    H264565   4.372   3.867   6.168  0.2141 -0.0809 -0.8853
14384TIP3   OH264566   5.388   4.874   0.135  0.2208 -0.1136 -0.7071
14384TIP3    H164567   5.410   4.802   0.076  0.4496 -1.1170  0.5394
14384TIP3    H264568   5.293   4.867   0.147  0.4395 -1.2176  0.6143
14385TIP3   OH264569   1.715   3.253   4.924 -0.9189 -0.6425  0.3822
14385TIP3    H164570   1.633   3.207   4.910 -0.8405 -0.8717  0.6644
14385TIP3    H264571   1.743   3.281   4.837 -0.0918 -2.6036 -0.0316
14386TIP3   OH264572   0.586   3.146  14.204  0.4693  0.3057  0.5550
14386TIP3    H164573   0.494   3.159  14.183 -0.3410 -1.1601  2.7725
14386TIP3    H264574   0.605   3.211  14.272  0.0461 -1.4650  2.4712
14387TIP3   OH264575   6.753   5.811   2.610  0.9909  0.3056  0.3624
14387TIP3    H164576   6.678   5.850   2.655  0.0760 -0.1640 -0.7027
14387TIP3    H264577   6.721   5.795   2.521  1.5262 -2.2296  0.5596
14388TIP3   OH264578   6.061   5.061  15.428  0.1708 -0.4560  0.5246
14388TIP3    H164579   6.010   5.009  15.365  1.9978 -3.3701  1.2376
14388TIP3    H264580   6.123   5.109  15.374 -0.8402  0.2042 -0.0961
14389TIP3   OH264581   4.637   5.137  16.094  0.0371 -0.0657  0.6568
14389TIP3    H164582   4.690   5.132  16.014  0.1769  0.9931  0.6722
14389TIP3    H264583   4.549   5.112  16.065  0.6689 -2.8247  0.8209
14390TIP3   OH264584   6.638   5.782   0.195 -0.4370 -0.7086  0.3812
14390TIP3    H164585   6.546   5.774   0.171 -0.4250 -0.7048  0.3343
14390TIP3    H264586   6.676   5.697   0.173  0.0050 -0.0944 -1.4567
14391TIP3   OH264587   4.691   3.244   4.540 -0.6088  0.4842 -0.1524
14391TIP3    H164588   4.628   3.316   4.527 -1.3440 -0.0180  0.5589
14391TIP3    H264589   4.654   3.171   4.490 -0.2205  0.3991 -0.3144
14392TIP3   OH264590   1.173   2.413   5.320 -0.4141 -0.0183  0.3067
14392TIP3    H164591   1.108   2.373   5.378  0.2253 -2.0066 -0.2629
14392TIP3    H264592   1.228   2.340   5.291  0.5421  1.2240 -1.1909
14393TIP3   OH264593   4.195   3.326   2.078 -0.4414 -0.1580  0.3815
14393TIP3    H164594   4.181   3.237   2.110  1.1574  0.3697  2.8568
14393TIP3    H264595   4.286   3.346   2.101 -0.9006  2.2756  0.4069
14394TIP3   OH264596   6.310   5.041   3.794 -0.1724  0.1274 -0.3759
14394TIP3    H164597   6.406   5.043   3.790  0.0624 -1.5955  2.1988
14394TIP3    H264598   6.285   5.133   3.799  1.2642  0.6383 -1.7044
14395TIP3   OH264599   5.272   3.353  14.693  0.4535  0.3729  0.8081
14395TIP3    H164600   5.188   3.389  14.720 -0.6328 -1.9729  0.8351
14395TIP3    H264601   5.256   3.318  14.605  1.7706  0.9920  0.2984
14396TIP3   OH264602   3.862   0.064  13.970  0.1901 -0.0889  0.1644
14396TIP3    H164603   3.874   0.101  14.057  0.9880 -0.4363  0.2209
14396TIP3    H264604   3.767   0.057  13.958  0.0798 -0.6721  1.2845
14397TIP3   OH264605   5.984   5.099  12.175 -0.4119  0.0867  0.5137
14397TIP3    H164606   5.917   5.076  12.111  1.4970 -0.2593 -1.4872
14397TIP3    H264607   6.020   5.015  12.203  0.6976  0.3054 -0.1873
14398TIP3   OH264608   0.293   6.165   5.700 -0.1899 -0.1129  0.0787
14398TIP3    H164609   0.325   6.113   5.774 -0.8386 -1.5447 -0.5932
14398TIP3    H264610   0.273   6.100   5.633  0.0616  1.1234 -1.2466
14399TIP3   OH264611   5.022   3.246  13.684  0.7473 -0.5274 -0.2279
14399TIP3    H164612   5.099   3.213  13.638  0.3573 -0.1210 -1.2053
14399TIP3    H264613   5.014   3.337  13.655  0.3960 -0.3013  0.5329
14400TIP3   OH264614   6.622   2.244   0.808 -0.0942  0.5468 -0.3217
14400TIP3    H164615   6.604   2.156   0.776  0.2533 -0.0510  1.0381
14400TIP3    H264616   6.715   2.257   0.791 -0.4935  1.3613 -2.0918
14401TIP3   OH264617   3.363   0.448  11.391  0.3586 -0.5838  0.2735
14401TIP3    H164618   3.351   0.435  11.297  1.3034 -0.6370  0.1480
14401TIP3    H264619   3.457   0.434  11.405  0.3560  0.1474  1.1041
14402TIP3   OH264620   2.333   0.550  11.964  0.1162  0.0438 -0.3000
14402TIP3    H164621   2.333   0.493  12.041 -0.8034  1.0092  0.4460
14402TIP3    H264622   2.254   0.525  11.916 -0.3766  0.7656  0.1116
14403TIP3   OH264623   6.682   5.720   6.567 -0.5947 -1.2592  0.1245
14403TIP3    H164624   6.625   5.720   6.644  0.2791 -0.8383  0.7881
14403TIP3    H264625   6.760   5.767   6.595 -0.0481 -1.5481 -0.8681
14404TIP3   OH264626   5.647   2.555   5.690 -0.2454 -0.2731  0.3509
14404TIP3    H164627   5.678   2.584   5.604 -0.3004 -0.4414  0.2736
14404TIP3    H264628   5.706   2.596   5.752  1.3435 -2.1084  0.1312
14405TIP3   OH264629   2.115   2.991  12.896  0.4756 -0.1920  0.2610
14405TIP3    H164630   2.130   3.030  12.982 -0.6052 -0.0842  0.4172
14405TIP3    H264631   2.195   2.942  12.877  0.6590 -0.3639  1.4135
14406TIP3   OH264632   1.845   4.548   4.853 -0.0626  0.0419 -0.2824
14406TIP3    H164633   1.820   4.460   4.880  2.6088 -0.7010  0.0762
14406TIP3    H264634   1.918   4.534   4.793  0.3172  2.0251 -0.3354
14407TIP3   OH264635   3.847   6.222   3.412 -0.0086  0.2471  0.6954
14407TIP3    H164636   3.770   6.245   3.465 -1.3549 -0.3964 -0.8827
14407TIP3    H264637   3.903   6.300   3.417 -2.7201  2.5944 -1.4974
14408TIP3   OH264638   4.493   0.529  12.480  0.1018 -0.4844 -0.0626
14408TIP3    H164639   4.443   0.562  12.555 -0.9029 -1.8888 -0.0710
14408TIP3    H264640   4.439   0.550  12.404  1.6433  1.9555 -0.5795
14409TIP3   OH264641   3.568   0.985  15.670  0.3643  0.2605  0.1055
14409TIP3    H164642   3.612   0.933  15.602  2.5840  0.4096  1.3222
14409TIP3    H264643   3.582   0.935  15.750 -2.6160 -0.1498  0.4491
14410TIP3   OH264644   1.415   2.399   2.876  0.4112  0.0851  0.1131
14410TIP3    H164645   1.490   2.452   2.901  0.6743  0.0452 -0.5657
14410TIP3    H264646   1.374   2.447   2.804  0.6388 -0.6111 -0.4950
14411TIP3   OH264647   4.551   1.639   4.233 -0.2062 -0.0272 -0.8165
14411TIP3    H164648   4.629   1.673   4.190 -0.8084  0.3603 -1.6240
14411TIP3    H264649   4.540   1.550   4.198  0.2770 -0.3562 -0.1523
14412TIP3   OH264650   6.166   4.687  14.180  0.5169  0.0140  0.2489
14412TIP3    H164651   6.076   4.659  14.193  0.1017  0.1931 -1.9143
14412TIP3    H264652   6.214   4.607  14.161  0.2962  0.1798 -1.0783
14413TIP3   OH264653   3.351   5.073   4.016 -0.3181  0.6346  0.2164
14413TIP3    H164654   3.374   5.164   4.002 -0.6285  1.0650  2.1779
14413TIP3    H264655   3.402   5.025   3.951  0.1722  2.1617 -0.5679
14414TIP3   OH264656   5.295   3.386  13.092 -0.2283  0.5134  0.6903
14414TIP3    H164657   5.360   3.414  13.028  0.5677  1.6393  1.9401
14414TIP3    H264658   5.276   3.464  13.143 -0.0831 -0.5504  2.4770
14415TIP3   OH264659   1.584   2.347   2.017 -0.1449  0.2650  0.3756
14415TIP3    H164660   1.517   2.387   2.071  0.7138 -0.7401  2.2733
14415TIP3    H264661   1.655   2.411   2.016  0.3868 -0.2724  1.6447
14416TIP3   OH264662   5.014   1.858   0.996  0.0767 -0.5519 -0.3016
14416TIP3    H164663   5.074   1.918   0.952  0.3415  0.3441  1.1971
14416TIP3    H264664   4.986   1.906   1.074  0.3151 -2.3926  0.9827
14417TIP3   OH264665   5.349   6.239  16.157 -0.3032  0.5811  0.1649
14417TIP3    H164666   5.412   6.310  16.146  0.0397  0.4612  1.3241
14417TIP3    H264667   5.403   6.159  16.160 -0.5590  0.4267  0.5974
14418TIP3   OH264668   5.580   5.769  13.642 -0.5011  0.3893 -0.1093
14418TIP3    H164669   5.523   5.762  13.718 -2.5354  1.9728 -1.3827
14418TIP3    H264670   5.537   5.834  13.586  2.0389  0.8682 -1.6373
14419TIP3   OH264671   5.207   2.681   5.198  0.0358 -0.3810 -0.0634
14419TIP3    H164672   5.170   2.594   5.180  0.3026 -0.7246  0.9401
14419TIP3    H264673   5.276   2.664   5.262 -1.9233  0.8718  2.5768
14420TIP3   OH264674   4.479   4.261  12.625 -0.0819 -0.1061  0.0639
14420TIP3    H164675   4.554   4.272  12.683  1.1556 -0.7344 -1.3251
14420TIP3    H264676   4.494   4.175  12.584 -1.3739 -0.0700 -0.5187
14421TIP3   OH264677   2.225   1.602   1.140  0.1419  0.3784 -0.1446
14421TIP3    H164678   2.192   1.617   1.228  0.7711  1.8098 -0.1166
14421TIP3    H264679   2.203   1.511   1.121 -1.7905  0.6129  0.7054
14422TIP3   OH264680   1.954   0.871   5.356 -0.2227  0.5262 -0.2141
14422TIP3    H164681   2.009   0.923   5.414 -0.4024 -0.5100  0.9304
14422TIP3    H264682   1.887   0.932   5.325  0.3552  1.2932  0.0136
14423TIP3   OH264683   4.278   4.644  15.460 -0.3288 -0.4141  0.6529
14423TIP3    H164684   4.313   4.731  15.441 -0.5051 -0.3209  0.7504
14423TIP3    H264685   4.197   4.639  15.410  0.0870 -0.8303  0.0169
14424TIP3   OH264686   1.703   3.966  13.830 -0.7562 -0.5717 -0.2141
14424TIP3    H164687   1.746   4.051  13.824  0.6387 -0.9626  2.6935
14424TIP3    H264688   1.627   3.974  13.772  0.7647  1.6688 -2.1125
14425TIP3   OH264689   2.010   3.219  17.011  0.1671 -0.1345 -0.6281
14425TIP3    H164690   1.921   3.243  17.037 -0.7719 -2.3984 -1.5345
14425TIP3    H264691   2.044   3.167  17.084 -0.3649 -1.6941 -1.4508
14426TIP3   OH264692   5.922   5.074   3.553 -0.1263 -0.3834 -0.0665
14426TIP3    H164693   5.852   5.035   3.607  0.8246  0.0374  1.5196
14426TIP3    H264694   5.905   5.168   3.556 -0.3155 -0.3752 -0.9142
14427TIP3   OH264695   6.728   1.800  15.533 -0.1447  0.5221 -0.0146
14427TIP3    H164696   6.658   1.860  15.556  0.7871  0.6982  2.6786
14427TIP3    H264697   6.704   1.767  15.446 -2.7405  1.7109  0.1683
14428TIP3   OH264698   5.615   5.808   1.152 -0.3646  0.1219  0.0474
14428TIP3    H164699   5.627   5.735   1.092  3.1637  0.9084 -0.4373
14428TIP3    H264700   5.629   5.886   1.098 -1.8467  1.0911  0.9850
14429TIP3   OH264701   0.851   3.466   1.695  0.0088 -0.4920  0.3295
14429TIP3    H164702   0.942   3.438   1.687  0.5211  1.1980 -0.1693
14429TIP3    H264703   0.852   3.560   1.675 -1.6967 -0.2149  1.2526
14430TIP3   OH264704   0.366   4.415  15.660 -0.3185 -0.6062  0.1947
14430TIP3    H164705   0.311   4.405  15.737 -0.3136  0.8689  0.4163
14430TIP3    H264706   0.369   4.509  15.644 -1.0726 -0.9092 -2.1739
14431TIP3   OH264707   2.184   5.672  13.483 -0.6352  0.4186  0.0762
14431TIP3    H164708   2.150   5.684  13.394 -0.7173 -0.9423 -0.1010
14431TIP3    H264709   2.105   5.663  13.537 -0.5817  0.5480  0.1755
14432TIP3   OH264710   0.986   2.550  17.013 -0.4317  0.0212  0.2168
14432TIP3    H164711   0.971   2.491  17.087 -0.0376  0.0274  0.3043
14432TIP3    H264712   0.899   2.579  16.987 -0.5249  0.7656  1.2935
14433TIP3   OH264713   6.354   6.418  11.250  0.3046  0.1381 -0.9185
14433TIP3    H164714   6.385   6.386  11.165  1.8360  0.4064 -0.4839
14433TIP3    H264715   6.265   6.384  11.257  0.0156  0.4055 -2.7844
14434TIP3   OH264716   2.373   3.041   5.805  0.0958 -0.0563  0.1196
14434TIP3    H164717   2.441   3.108   5.809 -1.3607  1.4519  1.3502
14434TIP3    H264718   2.340   3.045   5.716  1.0254 -0.1807 -0.2358
14435TIP3   OH264719   6.043   0.502   3.284  0.1321  0.3335 -0.2135
14435TIP3    H164720   5.982   0.534   3.218  0.5660 -0.9012 -1.2633
14435TIP3    H264721   6.115   0.566   3.284 -0.1794  0.6834 -0.4684
14436TIP3   OH264722   5.894   0.016  11.693 -0.2668  0.3418 -0.5387
14436TIP3    H164723   5.875   0.092  11.747 -1.2170 -1.1595  1.3554
14436TIP3    H264724   5.810  -0.027  11.681  0.4318 -1.1430 -0.3688
14437TIP3   OH264725   2.318   3.834   2.143 -0.2040  0.6063 -0.9596
14437TIP3    H164726   2.389   3.850   2.205 -0.7435  0.0844 -0.1823
14437TIP3    H264727   2.351   3.865   2.059  2.6382 -3.3949 -1.5708
14438TIP3   OH264728   3.967   1.438  14.652  0.0153  0.0271  0.0582
14438TIP3    H164729   3.928   1.436  14.739 -1.1514 -0.3470 -0.4542
14438TIP3    H264730   3.926   1.365  14.605  1.2330 -0.2885 -0.5647
14439TIP3   OH264731   1.542   5.540  15.321  0.1677 -0.2976 -0.3308
14439TIP3    H164732   1.523   5.618  15.268  1.0752  0.7027  0.7404
14439TIP3    H264733   1.501   5.468  15.274 -2.0869  1.0421 -0.5596
14440TIP3   OH264734   2.476   4.682   4.735  0.5381 -0.6411 -0.4603
14440TIP3    H164735   2.558   4.698   4.689  0.0624 -0.0033 -1.1123
14440TIP3    H264736   2.448   4.596   4.705  1.2511 -1.1116  0.2038
14441TIP3   OH264737   1.647   0.407  14.530  0.1022  0.4263 -0.8025
14441TIP3    H164738   1.730   0.452  14.514 -0.2668  1.8820  0.9746
14441TIP3    H264739   1.649   0.385  14.623 -1.6298  0.8320 -0.6305
14442TIP3   OH264740   6.117   2.305   2.276  0.5670  0.2594 -0.3728
14442TIP3    H164741   6.090   2.375   2.217 -0.5691 -0.7637 -1.1154
14442TIP3    H264742   6.036   2.256   2.293  1.3296 -0.8627  0.1248
14443TIP3   OH264743   1.883   5.831  11.644 -0.2393 -0.9495 -0.3533
14443TIP3    H164744   1.821   5.880  11.590 -1.1657  0.3297  1.7483
14443TIP3    H264745   1.931   5.777  11.582 -1.5069  0.1337 -2.3894
14444TIP3   OH264746   0.581   6.344  14.102 -0.7583  0.6176 -0.2644
14444TIP3    H164747   0.522   6.419  14.102 -0.6577  0.7175  0.7475
14444TIP3    H264748   0.528   6.272  14.136  0.4080  1.3833  3.7054
14445TIP3   OH264749   6.645   2.587   2.137 -0.3105  0.0878 -0.2648
14445TIP3    H164750   6.574   2.626   2.086 -0.7998 -1.2341 -0.6169
14445TIP3    H264751   6.654   2.645   2.213 -1.5244  0.4848 -0.3976
14446TIP3   OH264752   1.102   4.624  13.997 -0.1077  0.0594  0.3853
14446TIP3    H164753   1.053   4.674  13.931  0.2976  0.8788  0.6896
14446TIP3    H264754   1.036   4.601  14.063 -0.6486 -1.3143 -0.5976
14447TIP3   OH264755   5.462   1.640   2.003 -0.0091  0.3024 -0.3494
14447TIP3    H164756   5.404   1.653   2.078 -1.9640 -1.0023 -1.5532
14447TIP3    H264757   5.506   1.557   2.020 -0.7920 -0.2209 -0.8256
14448TIP3   OH264758   2.051   5.055  16.421  0.7088 -0.3797 -0.0460
14448TIP3    H164759   2.038   5.037  16.514  0.6224 -0.1400 -0.0122
14448TIP3    H264760   2.147   5.057  16.411  0.7197 -0.6028 -0.0017
14449TIP3   OH264761   5.969   2.279  14.256  0.0218 -0.1911 -0.2865
14449TIP3    H164762   5.978   2.228  14.336  0.1874 -0.9866 -0.7955
14449TIP3    H264763   6.026   2.235  14.193 -2.7093 -1.7296 -1.8860
14450TIP3   OH264764   4.195   5.236  13.741  0.1807 -0.3519  0.1240
14450TIP3    H164765   4.247   5.157  13.751  2.1898  1.0886  1.9964
14450TIP3    H264766   4.124   5.226  13.804  1.2147 -0.1215  1.3637
14451TIP3   OH264767   3.260   0.912  16.988  0.2077  0.0298 -0.1550
14451TIP3    H164768   3.300   0.999  16.988  0.2380  0.0566 -2.1927
14451TIP3    H264769   3.204   0.910  16.911 -1.1146 -1.2089  0.7631
14452TIP3   OH264770   1.957   1.770  11.688 -0.6164 -0.4263  0.4926
14452TIP3    H164771   1.999   1.683  11.692  0.1081 -0.0425  2.0195
14452TIP3    H264772   1.995   1.818  11.762 -0.2314  1.5565 -0.9299
14453TIP3   OH264773   4.546   3.898  16.198 -0.1982  0.6908 -0.3599
14453TIP3    H164774   4.621   3.845  16.224  0.7578  1.7712 -0.8357
14453TIP3    H264775   4.577   3.951  16.125 -1.0872  1.9444  0.1122
14454TIP3   OH264776   3.474   3.792  14.118 -0.1603  0.3020 -0.0654
14454TIP3    H164777   3.473   3.852  14.043 -2.9149  1.0880  0.4985
14454TIP3    H264778   3.493   3.706  14.081  1.8976  1.1502 -1.1470
14455TIP3   OH264779   3.030   1.821   0.504  0.5798  0.0883  0.0194
14455TIP3    H164780   3.032   1.833   0.599 -0.1967 -0.2492  0.0887
14455TIP3    H264781   3.039   1.909   0.468 -4.0863  1.0018  0.4871
14456TIP3   OH264782   5.944   6.049   3.520 -0.3926 -0.0840  0.2170
14456TIP3    H164783   5.997   6.063   3.598  1.0750  0.0076 -0.7632
14456TIP3    H264784   5.855   6.069   3.548  0.2943  1.4478  1.4838
14457TIP3   OH264785   5.097   1.127   3.806  0.2189 -0.0992  0.3865
14457TIP3    H164786   5.129   1.055   3.860 -0.0868 -0.0378  0.6522
14457TIP3    H264787   5.160   1.198   3.819  0.0679 -0.0366  0.7767
14458TIP3   OH264788   0.323   2.526  13.202  0.1691  0.3307  0.0880
14458TIP3    H164789   0.315   2.441  13.245  1.8565  0.1329  0.0580
14458TIP3    H264790   0.359   2.584  13.269 -0.4032  0.8926 -0.0739
14459TIP3   OH264791   2.299   1.646  15.788 -0.4692  0.2951 -0.1388
14459TIP3    H164792   2.275   1.738  15.779 -1.3900 -0.0919 -2.1770
14459TIP3    H264793   2.383   1.638  15.743 -0.8156 -0.0135 -0.7426
14460TIP3   OH264794   1.815   2.461  12.447 -0.1105 -0.3850  0.5019
14460TIP3    H164795   1.828   2.381  12.499 -0.0000  0.5524  1.9780
14460TIP3    H264796   1.731   2.495  12.478  0.1415  0.3971  0.3259
14461TIP3   OH264797   1.181   6.364  11.549 -0.4895 -0.3342  0.2501
14461TIP3    H164798   1.089   6.372  11.573 -0.9384 -1.1542 -1.1185
14461TIP3    H264799   1.184   6.387  11.456  0.8828  0.8559  0.5585
14462TIP3   OH264800   2.814   5.595   0.956 -0.2026  0.3443 -0.2591
14462TIP3    H164801   2.739   5.608   1.013  0.6920 -0.4455  1.1446
14462TIP3    H264802   2.777   5.558   0.876 -1.1783 -1.4582  0.9587
14463TIP3   OH264803   4.634   0.694   5.277 -0.2186  0.1211 -0.3144
14463TIP3    H164804   4.678   0.763   5.226  3.0067 -1.5166 -0.0381
14463TIP3    H264805   4.585   0.741   5.344 -0.7623  2.1855 -2.0547
14464TIP3   OH264806   2.154   0.554   2.051 -0.2005 -0.0357  0.0839
14464TIP3    H164807   2.227   0.578   2.108 -0.9724  1.6970  0.3804
14464TIP3    H264808   2.083   0.614   2.075 -1.4304 -1.0597 -0.8411
14465TIP3   OH264809   6.344   1.184  12.731  0.0542 -0.0376  0.3198
14465TIP3    H164810   6.357   1.164  12.638 -2.6002 -2.1503  0.2828
14465TIP3    H264811   6.412   1.135  12.776  1.7406  1.4683 -0.4490
14466TIP3   OH264812   6.504   5.640  16.886  0.4576  0.0446  0.0691
14466TIP3    H164813   6.436   5.647  16.820 -0.5131 -0.9041  0.9166
14466TIP3    H264814   6.553   5.722  16.880  1.2732 -0.5450 -2.7126
14467TIP3   OH264815   5.032   3.686   4.997 -0.3395  0.1918 -0.0739
14467TIP3    H164816   4.987   3.729   4.924 -0.7617  1.6616  1.0037
14467TIP3    H264817   5.030   3.593   4.975 -2.4862  0.3745 -0.8424
14468TIP3   OH264818   1.172   6.073  16.245  0.2954 -0.0966  0.1350
14468TIP3    H164819   1.181   5.979  16.254 -0.2996 -0.1828 -0.0940
14468TIP3    H264820   1.210   6.109  16.326  0.5016 -0.5325  0.2322
14469TIP3   OH264821   1.864   5.369   0.035  0.6549  0.6147 -0.1517
14469TIP3    H164822   1.845   5.377   0.129  1.4668  1.1488 -0.0112
14469TIP3    H264823   1.960   5.372   0.031  0.6324  0.2828 -0.9765
14470TIP3   OH264824   0.841   5.158  15.489  0.4605  0.5666 -0.4881
14470TIP3    H164825   0.826   5.226  15.424 -0.8542  0.0842 -0.7170
14470TIP3    H264826   0.795   5.189  15.567  0.7476  0.4330 -0.2630
14471TIP3   OH264827   0.587   4.901  11.986  0.0599  0.2379 -0.6679
14471TIP3    H164828   0.619   4.881  11.898 -1.6998  1.9087 -1.8028
14471TIP3    H264829   0.573   4.996  11.984  1.0800  0.4918  1.8461
14472TIP3   OH264830   1.943   3.082   1.460  0.1367  0.1777  0.3849
14472TIP3    H164831   2.022   3.117   1.420  0.3793 -0.3311  0.4144
14472TIP3    H264832   1.958   2.988   1.465  0.0524  0.2038  1.5130
14473TIP3   OH264833   6.304   4.670   3.621 -0.0870 -0.1874  0.6034
14473TIP3    H164834   6.317   4.646   3.713 -0.0164 -1.1026  0.3676
14473TIP3    H264835   6.227   4.727   3.621 -0.9030 -1.2513  1.0842
14474TIP3   OH264836   4.076   3.499   2.671  0.4398  0.4153  0.3097
14474TIP3    H164837   4.124   3.580   2.686  0.6535  0.5367 -0.9716
14474TIP3    H264838   4.143   3.434   2.650  0.3129 -0.2341  1.7281
14475TIP3   OH264839   6.434   3.669  14.845 -0.6921  0.5410  0.4071
14475TIP3    H164840   6.364   3.708  14.793  0.8600  1.3427 -1.1737
14475TIP3    H264841   6.391   3.643  14.927 -2.5669  2.0988 -0.0098
14476TIP3   OH264842   4.863   4.155   0.332 -0.5357  0.7389 -0.4354
14476TIP3    H164843   4.830   4.211   0.261 -0.4967  0.0499 -1.0033
14476TIP3    H264844   4.826   4.193   0.412 -2.4388  0.1992 -1.0198
14477TIP3   OH264845   3.729   6.157   4.809 -0.3229 -0.0820 -0.4332
14477TIP3    H164846   3.667   6.211   4.858  0.4154  0.0143  0.4270
14477TIP3    H264847   3.812   6.169   4.854  0.4465  0.1914 -1.8701
14478TIP3   OH264848   0.034   1.068   6.409  0.3419 -0.0036  0.1942
14478TIP3    H164849   0.121   1.029   6.398  0.1851 -0.7319  1.3437
14478TIP3    H264850  -0.027   0.994   6.396 -0.2776  0.9074 -2.8587
14479TIP3   OH264851   3.266   0.648   4.663  0.1177 -0.4676  0.0550
14479TIP3    H164852   3.199   0.588   4.697 -1.3613  1.0540 -0.0442
14479TIP3    H264853   3.238   0.666   4.573  1.5006 -0.9525 -0.4853
14480TIP3   OH264854   4.183   0.713  13.624  0.1573 -0.2334  0.6724
14480TIP3    H164855   4.203   0.734  13.532 -1.4472  0.1767  0.3795
14480TIP3    H264856   4.201   0.620  13.632 -1.0000 -0.5981 -0.4843
14481TIP3   OH264857   3.979   6.219  12.050  0.1753  0.3784  0.3159
14481TIP3    H164858   3.911   6.264  12.100  0.9363  1.0464  0.7913
14481TIP3    H264859   3.934   6.180  11.976 -1.1162 -1.1717  1.8202
14482TIP3   OH264860   0.758   6.383   2.279 -0.4632  0.1313 -0.1397
14482TIP3    H164861   0.816   6.314   2.248 -2.0880 -0.5623 -1.8027
14482TIP3    H264862   0.812   6.462   2.278  1.0430 -0.8652  0.4949
14483TIP3   OH264863   3.273   3.203  12.932 -0.1434 -0.0970  0.2018
14483TIP3    H164864   3.362   3.170  12.944  0.1567  1.1320  1.5073
14483TIP3    H264865   3.217   3.134  12.967  0.4037  0.1008  1.5054
14484TIP3   OH264866   4.293   2.378  15.168 -0.0148 -0.4668  0.6060
14484TIP3    H164867   4.320   2.461  15.129 -0.4057 -0.0760  1.1503
14484TIP3    H264868   4.374   2.339  15.200  0.3160 -0.7995 -0.5838
14485TIP3   OH264869   3.661   5.128   5.429  0.6638 -0.1590  0.0491
14485TIP3    H164870   3.601   5.202   5.434  0.3068 -0.5118  1.1822
14485TIP3    H264871   3.651   5.083   5.513 -0.0676 -2.2187 -1.0656
14486TIP3   OH264872   0.493   1.922  13.842  0.1549  0.3869 -0.0424
14486TIP3    H164873   0.500   2.010  13.879  1.3591  0.0555  0.5666
14486TIP3    H264874   0.511   1.863  13.915 -0.5809 -0.3695 -0.4568
14487TIP3   OH264875   1.715   6.248  12.483  0.0250 -0.0497  0.5921
14487TIP3    H164876   1.638   6.277  12.532 -1.0938 -0.3768 -0.9033
14487TIP3    H264877   1.760   6.329  12.460 -0.4105  0.2024  0.6187
14488TIP3   OH264878   2.981   6.324  15.273  0.1630  0.0090 -0.0778
14488TIP3    H164879   3.027   6.256  15.321  0.3459  0.1547 -0.0417
14488TIP3    H264880   3.049   6.388  15.251 -0.1196  0.5084  0.4654
14489TIP3   OH264881   0.237   0.818  11.885  0.6543 -0.0369  0.4169
14489TIP3    H164882   0.168   0.844  11.825  0.4577 -1.3520  0.0576
14489TIP3    H264883   0.215   0.729  11.912  2.0150 -0.3672  0.5546
14490TIP3   OH264884   0.591   1.567  17.228 -0.3649 -0.7569 -0.0271
14490TIP3    H164885   0.500   1.589  17.243 -0.0728  1.7624 -1.4830
14490TIP3    H264886   0.591   1.518  17.145 -0.2260  1.4257 -1.3841
14491TIP3   OH264887   1.794   0.086   1.032  0.4943 -0.6057 -0.0461
14491TIP3    H164888   1.813  -0.006   1.050  0.8577 -0.7161 -0.9414
14491TIP3    H264889   1.767   0.122   1.116  0.9466 -1.3846  0.4423
14492TIP3   OH264890   1.457   5.150   0.839  0.1429 -0.1618 -0.4281
14492TIP3    H164891   1.501   5.070   0.811  0.6727  0.2791 -0.8886
14492TIP3    H264892   1.369   5.122   0.864  0.6284 -1.0318  0.3446
14493TIP3   OH264893   2.181   1.991   1.071 -1.0443 -0.5159 -0.4387
14493TIP3    H164894   2.215   1.916   1.022 -2.4485 -1.5926  0.1591
14493TIP3    H264895   2.259   2.036   1.103 -0.1325 -0.7096 -2.2631
14494TIP3   OH264896   3.761   4.245  13.172  0.3751 -0.7398  0.3452
14494TIP3    H164897   3.686   4.186  13.166 -1.5971  1.6767 -0.6294
14494TIP3    H264898   3.781   4.251  13.265 -1.0486 -0.9989  0.6861
14495TIP3   OH264899   5.307   5.611  11.630  0.0469  0.4868  0.1364
14495TIP3    H164900   5.390   5.581  11.668  0.7713  0.2583 -1.5354
14495TIP3    H264901   5.330   5.692  11.584 -0.7589  0.6779  0.0611
14496TIP3   OH264902   2.035   4.716  16.350  0.4107  0.8067  0.2251
14496TIP3    H164903   1.948   4.755  16.345 -0.8640 -1.9746 -1.2455
14496TIP3    H264904   2.081   4.749  16.274 -0.7094 -0.5541 -1.0991
14497TIP3   OH264905   5.319   5.364  16.227 -0.0554  0.0048 -0.5830
14497TIP3    H164906   5.332   5.379  16.321 -1.2028 -1.0735 -0.2225
14497TIP3    H264907   5.257   5.433  16.200  0.8736  0.7958 -0.7387
14498TIP3   OH264908   5.527   1.390  16.712  0.1639 -0.1552 -0.5962
14498TIP3    H164909   5.484   1.454  16.769 -1.5202 -1.8893  0.1941
14498TIP3    H264910   5.621   1.405  16.725 -0.1564 -0.1014  2.2698
14499TIP3   OH264911   5.211   3.010   5.143 -0.4226 -0.2810  0.1521
14499TIP3    H164912   5.232   2.965   5.062  1.8558  0.9099 -0.0223
14499TIP3    H264913   5.156   3.084   5.116  0.2589  0.0656 -0.3409
14500TIP3   OH264914   1.489   2.174   2.594 -0.2784 -0.0795 -0.3745
14500TIP3    H164915   1.423   2.203   2.531 -1.1441  0.4707  0.7458
14500TIP3    H264916   1.440   2.121   2.657  0.5496 -0.5548 -0.1165
14501TIP3   OH264917   6.302   0.118  11.049 -0.4681 -0.4362  0.4869
14501TIP3    H164918   6.361   0.190  11.029 -0.7217 -0.3469  0.0604
14501TIP3    H264919   6.231   0.126  10.985 -0.4136 -1.1603  0.3355
14502TIP3   OH264920   3.871   0.986   1.675  0.0552  0.2031 -0.0910
14502TIP3    H164921   3.885   0.893   1.658 -1.6085 -0.0381 -0.3605
14502TIP3    H264922   3.908   1.030   1.599  1.1316 -0.1938  0.1818
14503TIP3   OH264923   0.107   2.228   3.390  0.0502  0.5898 -0.0240
14503TIP3    H164924   0.045   2.168   3.349  0.2913  0.5228 -0.2994
14503TIP3    H264925   0.110   2.201   3.481  0.3337  0.0239 -0.1972
14504TIP3   OH264926   5.251   0.680   2.515 -0.2702  0.2566 -0.1276
14504TIP3    H164927   5.208   0.603   2.552 -0.4256  0.4502  0.0962
14504TIP3    H264928   5.181   0.745   2.506  0.1771  1.0031  1.3860
14505TIP3   OH264929   0.230   4.083   4.385  0.5142  0.1016 -0.3856
14505TIP3    H164930   0.248   4.011   4.325  1.7212 -2.1730  2.4436
14505TIP3    H264931   0.313   4.127   4.395  0.5478 -0.0892  0.2307
14506TIP3   OH264932   0.707   6.470  16.256 -0.1621 -0.0834  0.2539
14506TIP3    H164933   0.737   6.544  16.307  2.3559 -1.3103  0.7061
14506TIP3    H264934   0.785   6.440  16.209 -0.9026 -2.8298  0.6047
14507TIP3   OH264935   5.566   6.487   6.062  0.3258  0.2722 -0.1155
14507TIP3    H164936   5.583   6.411   6.007 -1.9108 -0.8491  0.6251
14507TIP3    H264937   5.528   6.552   6.003 -1.0131 -0.5071 -0.1360
14508TIP3   OH264938   6.263   4.492  15.238 -0.7321  0.4296 -0.1090
14508TIP3    H164939   6.217   4.505  15.155  0.8890  2.9981 -0.7493
14508TIP3    H264940   6.352   4.466  15.211 -0.0244  1.8428  0.7234
14509TIP3   OH264941   5.576   4.996   2.889 -0.2425 -0.1203 -0.3641
14509TIP3    H164942   5.596   5.062   2.956  1.4449 -0.5863 -0.3671
14509TIP3    H264943   5.657   4.986   2.840 -0.6749 -1.7110 -0.8080
14510TIP3   OH264944   4.992   5.452  16.740 -0.4538  0.5515  0.3380
14510TIP3    H164945   4.913   5.438  16.688  1.1198  1.3433 -2.4592
14510TIP3    H264946   5.040   5.520  16.694  2.0870 -0.1976  1.6562
14511TIP3   OH264947   3.761   3.898   2.021 -0.0595 -0.3139  0.0757
14511TIP3    H164948   3.816   3.837   2.070  0.4051 -0.2844 -0.3961
14511TIP3    H264949   3.690   3.844   1.987  0.8136 -0.7938 -1.0711
14512TIP3   OH264950   0.034   1.611   4.587 -0.3288  0.2287  0.0129
14512TIP3    H164951   0.017   1.642   4.676  1.8503  2.4559 -0.2439
14512TIP3    H264952   0.129   1.620   4.576 -0.5711  0.3334 -2.6253
14513TIP3   OH264953   3.850   6.531  11.598  0.5044 -0.3943 -0.7294
14513TIP3    H164954   3.913   6.529  11.526 -0.1002  0.6307 -1.3122
14513TIP3    H264955   3.901   6.505  11.675  1.5432  0.0033 -1.2583
14514TIP3   OH264956   3.236   6.615  12.403  0.0777  0.2321 -0.1108
14514TIP3    H164957   3.257   6.686  12.342 -0.4321  0.3600 -0.1418
14514TIP3    H264958   3.181   6.555  12.352  0.0683  0.0827  0.0754
14515TIP3   OH264959   2.929   1.310  17.101 -0.5564 -1.1236 -0.4866
14515TIP3    H164960   2.920   1.377  17.033  0.3629 -1.5639 -1.0609
14515TIP3    H264961   2.927   1.359  17.183 -0.8841 -0.4984 -0.8553
14516TIP3   OH264962   2.420   3.912   2.988  0.2543 -0.1208  0.0938
14516TIP3    H164963   2.474   3.858   2.930  0.4065 -0.2441  0.3529
14516TIP3    H264964   2.466   3.997   2.990 -0.0179  0.0419 -0.3620
14517TIP3   OH264965   1.414   1.408   2.535 -0.6842 -0.0884  0.0311
14517TIP3    H164966   1.327   1.376   2.562 -0.4109 -0.1737  0.8483
14517TIP3    H264967   1.429   1.368   2.449 -1.0796 -0.7893  0.2829
14518TIP3   OH264968   2.335   2.509   5.480  0.7369  0.0607 -0.2925
14518TIP3    H164969   2.413   2.485   5.430  0.7568  0.3135 -0.3841
14518TIP3    H264970   2.305   2.591   5.439 -0.5599 -0.9189 -1.3644
14519TIP3   OH264971   6.338   2.867   0.763 -0.1708  0.5605 -0.0504
14519TIP3    H164972   6.396   2.832   0.695  1.0679 -1.9205  2.0757
14519TIP3    H264973   6.383   2.945   0.795 -0.8329  1.8369 -2.0425
14520TIP3   OH264974   6.307   1.466   1.262 -0.4118 -0.1851  0.0334
14520TIP3    H164975   6.328   1.423   1.345 -0.6019  1.0616  0.7512
14520TIP3    H264976   6.385   1.453   1.208  1.0542  1.7091  1.5604
14521TIP3   OH264977   0.048   6.700  16.509 -0.8715 -0.3881 -0.1622
14521TIP3    H164978   0.068   6.782  16.556 -0.4073 -0.1947 -0.6909
14521TIP3    H264979  -0.014   6.726  16.442 -1.8590 -0.7410  0.5920
14522TIP3   OH264980   6.652   5.386   3.366  0.2793  0.9077 -0.4790
14522TIP3    H164981   6.664   5.340   3.283 -0.7898 -1.9506  0.7884
14522TIP3    H264982   6.713   5.343   3.426 -1.6906  0.0785  1.0928
14523TIP3   OH264983   3.880   0.048   5.145 -0.4211  0.7916 -0.0857
14523TIP3    H164984   3.816   0.070   5.213  0.2420 -1.0424  1.2323
14523TIP3    H264985   3.961   0.092   5.173  0.1625 -0.8901  1.0234
14524TIP3   OH264986   6.047   3.725   5.259  0.1188 -0.0631 -0.5769
14524TIP3    H164987   6.122   3.712   5.316  0.6370  0.2192 -1.1810
14524TIP3    H264988   5.996   3.794   5.301 -0.4586 -1.1050  0.4721
14525TIP3   OH264989   3.966   0.762   2.359 -0.3652  0.5385 -0.0108
14525TIP3    H164990   3.973   0.772   2.264  0.8701 -0.5785 -0.0800
14525TIP3    H264991   4.057   0.764   2.390 -0.6429 -0.4821  0.9629
14526TIP3   OH264992   3.909   1.082  15.220 -0.1963  0.3190  0.0843
14526TIP3    H164993   3.819   1.105  15.241 -0.4381  0.4063 -0.9590
14526TIP3    H264994   3.911   1.080  15.124  1.2873  1.7756  0.0464
14527TIP3   OH264995   6.647   0.709  16.007 -0.2461 -0.0921 -0.2616
14527TIP3    H164996   6.569   0.661  16.035  0.3548 -0.3878  0.9868
14527TIP3    H264997   6.647   0.702  15.911 -0.9981 -1.2855 -0.1962
14528TIP3   OH264998   0.018   0.945  16.129 -0.2323  0.6787  0.0450
14528TIP3    H164999   0.107   0.978  16.120 -0.8986  2.1764 -1.8183
14528TIP3    H265000   0.025   0.851  16.112  1.2698  0.3110  2.2908
14529TIP3   OH265001   3.702   3.078  12.460  0.5342 -0.2750 -0.0223
14529TIP3    H165002   3.765   3.054  12.393  0.9973  1.8597 -0.4254
14529TIP3    H265003   3.637   3.131  12.414 -0.4434 -0.7419  0.7863
14530TIP3   OH265004   2.783   0.335  14.409  0.0558 -0.3342  0.0170
14530TIP3    H165005   2.820   0.298  14.489  0.0058 -2.7210 -1.0045
14530TIP3    H265006   2.797   0.268  14.342  0.2283  1.6448 -2.0477
14531TIP3   OH265007   3.454   0.226   3.746 -0.7947  0.1452 -0.5692
14531TIP3    H165008   3.539   0.212   3.787 -1.1439  0.7937  0.3913
14531TIP3    H265009   3.431   0.316   3.766 -0.9238  0.5409 -2.3212
14532TIP3   OH265010   3.849   6.731   0.969 -0.3930 -0.2002 -0.0805
14532TIP3    H165011   3.905   6.654   0.970 -1.2105 -0.8211 -0.7173
14532TIP3    H265012   3.850   6.763   1.060  0.2346 -0.7398  0.1071
14533TIP3   OH265013   4.181   1.690  12.233 -0.1817  0.2537 -0.1802
14533TIP3    H165014   4.145   1.675  12.146 -1.1694 -0.3709  0.3065
14533TIP3    H265015   4.153   1.778  12.256 -0.9811 -0.0296 -0.0220
14534TIP3   OH265016   3.933   6.534  11.884  0.3157  0.0778 -0.2196
14534TIP3    H165017   3.854   6.585  11.903  0.6357  0.6483 -0.4038
14534TIP3    H265018   3.900   6.447  11.863 -0.2110  0.0939  0.5045
14535TIP3   OH265019   6.013   6.630  13.221 -0.3202 -0.0848 -0.3335
14535TIP3    H165020   5.959   6.698  13.182  0.6930  1.0433  0.1839
14535TIP3    H265021   5.956   6.589  13.286 -0.7976  0.5620 -0.3371
14536TIP3   OH265022   0.300   3.297   5.576  0.1459 -0.0914  0.1249
14536TIP3    H165023   0.214   3.305   5.617  0.3061  0.4763  0.3682
14536TIP3    H265024   0.346   3.377   5.602 -0.5240  1.4897 -3.0260
14537TIP3   OH265025   5.501   0.706   2.681 -0.0788 -0.7152  0.1690
14537TIP3    H165026   5.472   0.675   2.595 -2.1140 -1.6787  1.1372
14537TIP3    H265027   5.470   0.796   2.687 -1.1973 -1.0933  0.3938
14538TIP3   OH265028   2.556   0.358  15.380 -0.0904  0.4486  0.0400
14538TIP3    H165029   2.493   0.429  15.394 -0.6958 -0.5914  3.3606
14538TIP3    H265030   2.514   0.281  15.417  1.2121 -1.3952 -2.0558
14539TIP3   OH265031   3.955   0.335   1.097  0.1204  0.1928  0.0692
14539TIP3    H165032   3.917   0.387   1.026 -1.8006  1.2435  1.7568
14539TIP3    H265033   3.961   0.397   1.171  3.0444 -0.5590  0.5946
14540TIP3   OH265034   4.001   1.576  15.055  0.0632 -0.0335 -0.6591
14540TIP3    H165035   4.042   1.600  14.971 -0.0439  1.1044 -0.4040
14540TIP3    H265036   4.044   1.632  15.119  0.1812 -0.9398  0.0745
14541TIP3   OH265037   2.291   6.017  11.303  0.4014 -0.0961 -0.3315
14541TIP3    H165038   2.299   5.954  11.232 -0.1362 -1.3661  0.7012
14541TIP3    H265039   2.372   6.009  11.353  0.1313 -0.3034  0.0736
14542TIP3   OH265040   0.719   2.623  13.574  0.6281 -0.0235  0.1419
14542TIP3    H165041   0.720   2.691  13.506  0.5647 -0.5677 -0.4064
14542TIP3    H265042   0.743   2.543  13.528  1.7441 -0.1956  0.9919
14543TIP3   OH265043   1.231   3.346  13.024 -0.7395 -0.0533 -0.3449
14543TIP3    H165044   1.169   3.311  12.959 -1.6164 -0.1178  0.4998
14543TIP3    H265045   1.267   3.268  13.066  0.5892 -0.0425 -1.4249
14544TIP3   OH265046   2.736   1.098  15.864  0.6381 -0.2125  0.8103
14544TIP3    H165047   2.812   1.048  15.893  1.5086  0.9151  0.5553
14544TIP3    H265048   2.729   1.170  15.928 -0.9139 -0.9182  1.4862
14545TIP3   OH265049   4.650   5.081   0.312 -0.0824  0.6917 -0.0348
14545TIP3    H165050   4.599   5.113   0.238  0.6192  2.0917  0.0520
14545TIP3    H265051   4.585   5.047   0.373 -0.8739  1.8458 -0.2006
14546TIP3   OH265052   0.886   5.755  14.668 -0.4999  0.1285 -0.7383
14546TIP3    H165053   0.976   5.729  14.688 -0.9390 -1.0270 -0.1877
14546TIP3    H265054   0.891   5.792  14.579  0.3144 -1.0442 -1.2047
14547TIP3   OH265055   0.624   2.449  16.696 -0.2739 -0.8393 -0.1099
14547TIP3    H165056   0.624   2.482  16.606  0.8216 -3.6661 -1.2370
14547TIP3    H265057   0.540   2.403  16.704 -0.1470 -1.0205  0.1684
14548TIP3   OH265058   0.025   5.220  16.385  0.1974 -0.1557  0.1759
14548TIP3    H165059   0.001   5.140  16.338  2.3566 -0.6751 -0.1449
14548TIP3    H265060  -0.040   5.227  16.455 -1.3513 -0.9493 -1.1116
14549TIP3   OH265061   6.229   0.534  16.848 -0.0899  0.5277  0.4236
14549TIP3    H165062   6.322   0.540  16.873  0.1378  0.4071 -0.3889
14549TIP3    H265063   6.204   0.624  16.826  0.0474  0.4350 -0.1129
14550TIP3   OH265064   0.728   3.610  14.430  0.1703 -0.4330  0.1611
14550TIP3    H165065   0.755   3.631  14.519  0.0112  0.7573 -0.0623
14550TIP3    H265066   0.638   3.642  14.423  0.5461  0.4980 -0.7502
14551TIP3   OH265067   5.839   2.210  16.838 -0.1914 -0.9826  0.0685
14551TIP3    H165068   5.861   2.144  16.772 -0.4005 -1.0202  0.0322
14551TIP3    H265069   5.918   2.220  16.891  0.5700  0.3040 -1.2459
14552TIP3   OH265070   6.100   0.992   5.183  0.3769  0.4925  0.9082
14552TIP3    H165071   6.030   0.934   5.211  1.4777 -2.1946 -1.3671
14552TIP3    H265072   6.169   0.980   5.249  0.3879 -0.4323  0.7454
14553TIP3   OH265073   4.257   0.862  14.792 -0.3459 -0.5769  0.2768
14553TIP3    H165074   4.265   0.830  14.881 -0.6132 -1.8223 -0.1242
14553TIP3    H265075   4.347   0.868  14.760 -0.2498 -0.1068  0.6253
14554TIP3   OH265076   4.218   2.404   1.515 -0.0964 -0.2248 -0.0371
14554TIP3    H165077   4.263   2.444   1.441 -1.7893  0.9107 -0.5108
14554TIP3    H265078   4.167   2.333   1.477  0.5454 -0.9000  0.3479
14555TIP3   OH265079   5.540   0.683   1.904  0.5187  0.5641  0.0705
14555TIP3    H165080   5.620   0.703   1.952  0.3952 -1.3514  1.1764
14555TIP3    H265081   5.557   0.599   1.863  0.2228  1.6649 -2.4782
14556TIP3   OH265082   4.098   3.905   4.814  0.5512 -0.1873 -0.3793
14556TIP3    H165083   4.183   3.870   4.790  1.1154  0.0501  1.1369
14556TIP3    H265084   4.037   3.832   4.802  1.1654 -0.7033 -0.3934
14557TIP3   OH265085   5.124   2.900   0.913 -0.2080 -0.3413  0.0693
14557TIP3    H165086   5.189   2.970   0.918 -0.5750 -0.0351  3.5805
14557TIP3    H265087   5.167   2.830   0.865  0.9235  1.4793 -1.7616
14558TIP3   OH265088   6.492   1.033  17.106 -0.7099  0.3300  0.2169
14558TIP3    H165089   6.572   0.983  17.089 -0.3582  0.4064  1.5536
14558TIP3    H265090   6.453   1.045  17.019  0.5026 -0.0697 -0.4145
14559TIP3   OH265091   3.268   4.491  14.305 -0.1476  0.5791  0.2949
14559TIP3    H165092   3.205   4.440  14.254  0.6784 -0.7120  0.5201
14559TIP3    H265093   3.297   4.430  14.373  0.4954  1.5277  0.8742
14560TIP3   OH265094   1.651   5.831  14.532  0.1378 -0.1200 -0.1102
14560TIP3    H165095   1.611   5.745  14.545 -0.4547  0.3374  1.3249
14560TIP3    H265096   1.665   5.865  14.621  0.3627  1.2603 -0.6440
14561TIP3   OH265097   0.183   5.440   0.375  0.0802  0.3203  0.2543
14561TIP3    H165098   0.194   5.528   0.410  1.7637  0.6963 -1.1246
14561TIP3    H265099   0.272   5.404   0.372 -0.2765 -0.5024 -1.5014
14562TIP3   OH265100   3.591   6.585   5.221  0.3005  0.2243  0.1040
14562TIP3    H165101   3.526   6.527   5.180  1.0586 -1.0174  0.5930
14562TIP3    H265102   3.563   6.673   5.197 -1.8665 -0.2218  0.7116
14563TIP3   OH265103   4.873   3.995  10.385  0.2811  0.3764 -0.1242
14563TIP3    H165104   4.836   4.083  10.381 -0.8359  0.0058  1.0086
14563TIP3    H265105   4.967   4.008  10.382  0.1356  1.6249  0.1335
14564TIP3   OH265106   0.618   4.088   3.192  0.0911 -0.1015 -0.6690
14564TIP3    H165107   0.565   4.073   3.113  0.6145  1.5686 -1.4055
14564TIP3    H265108   0.658   4.174   3.177  0.5444  0.0688  1.2507
14565TIP3   OH265109   3.186   5.165  11.331 -0.1482  0.0612  0.5196
14565TIP3    H165110   3.180   5.079  11.372  1.1120 -1.1442 -1.6496
14565TIP3    H265111   3.121   5.163  11.261 -0.2131  0.9475  0.5436
14566TIP3   OH265112   4.703   5.239   5.737 -0.7112  0.0811 -0.5902
14566TIP3    H165113   4.712   5.178   5.810 -1.9132  1.0151  0.3647
14566TIP3    H265114   4.616   5.222   5.702 -0.4532  0.1961 -1.3162
14567TIP3   OH265115   4.247   2.214   4.299 -0.0556 -0.8015  0.5450
14567TIP3    H165116   4.202   2.222   4.383  0.9998 -2.9305  1.3947
14567TIP3    H265117   4.210   2.135   4.259 -0.2732 -0.0291 -0.8398
14568TIP3   OH265118   2.555   1.393  16.878 -0.7462  0.4758  0.0945
14568TIP3    H165119   2.567   1.323  16.942 -0.4818  1.0968  0.7468
14568TIP3    H265120   2.461   1.395  16.861 -0.7374 -0.1213 -0.0267
14569TIP3   OH265121   2.216   2.165   4.755  0.1837  0.3549  0.4442
14569TIP3    H165122   2.262   2.124   4.828  1.5302  0.5442 -0.2605
14569TIP3    H265123   2.161   2.096   4.718 -1.2209  0.4992  2.1724
14570TIP3   OH265124   0.540   2.060  14.565  0.1364  0.3366  0.2467
14570TIP3    H165125   0.479   2.134  14.568 -1.3680 -0.7335 -1.4141
14570TIP3    H265126   0.624   2.099  14.539 -0.1482  1.6750  1.2452
14571TIP3   OH265127   6.544   4.037  13.429  0.7879  0.6377 -0.6198
14571TIP3    H165128   6.526   4.090  13.507 -2.0237 -0.7912 -0.1806
14571TIP3    H265129   6.595   3.963  13.461 -0.3785  0.0439 -0.0554
14572TIP3   OH265130   0.107   1.430   6.311  0.1627 -0.2478 -0.6180
14572TIP3    H165131   0.068   1.415   6.397 -1.6155  0.3482 -1.2724
14572TIP3    H265132   0.150   1.515   6.318 -2.3181  1.1338 -1.0197
14573TIP3   OH265133   6.309   3.215   3.939  0.1785 -0.0086 -0.0431
14573TIP3    H165134   6.328   3.294   3.887  0.7351 -0.9508 -1.3255
14573TIP3    H265135   6.394   3.171   3.946 -0.5478 -1.7672 -1.5355
14574TIP3   OH265136   4.006   0.176   1.653  0.3578  0.0851  0.1040
14574TIP3    H165137   3.992   0.244   1.718  0.4177  1.0056 -0.8290
14574TIP3    H265138   3.947   0.105   1.680 -0.9807  1.1612  0.1612
14575TIP3   OH265139   4.199   0.334  14.579 -0.8868 -0.2804 -0.6954
14575TIP3    H165140   4.203   0.292  14.493 -1.0862 -0.6495 -0.5288
14575TIP3    H265141   4.139   0.408  14.567  1.0305  1.2222 -1.5026
14576TIP3   OH265142   3.746   5.352  14.483  0.2233  0.1663  0.3879
14576TIP3    H165143   3.837   5.383  14.477  0.4763 -0.6693 -0.5500
14576TIP3    H265144   3.743   5.302  14.565  0.5786  0.3203  0.4978
14577TIP3   OH265145   6.416   5.281   3.956 -0.1297 -0.0508  0.3677
14577TIP3    H165146   6.485   5.343   3.935 -0.8947  1.0659  1.0246
14577TIP3    H265147   6.378   5.313   4.038 -1.9757 -0.1137 -0.3932
14578TIP3   OH265148   3.328   0.556  13.920  0.2185  0.4876 -0.1058
14578TIP3    H165149   3.268   0.630  13.905  0.8296  1.3387  1.4593
14578TIP3    H265150   3.305   0.523  14.007 -1.2026 -2.3384 -1.4005
14579TIP3   OH265151   4.991   6.259  13.801  0.0458 -0.0542  0.3713
14579TIP3    H165152   4.917   6.207  13.833  1.4625 -3.7746 -1.7172
14579TIP3    H265153   5.057   6.252  13.870 -0.9304  2.1380  1.6391
14580TIP3   OH265154   6.692   2.251  16.783  0.0499 -0.2869 -0.3042
14580TIP3    H165155   6.658   2.295  16.861 -0.0838 -1.2284  0.1737
14580TIP3    H265156   6.787   2.264  16.788  0.1339 -1.1404  0.5179
14581TIP3   OH265157   4.514   4.448  13.404 -0.1411 -0.3757 -0.1561
14581TIP3    H165158   4.463   4.402  13.471  0.9581 -1.1640  0.1550
14581TIP3    H265159   4.578   4.384  13.373  0.0030  0.2794 -1.2804
14582TIP3   OH265160   6.305   0.458  15.143 -0.0769 -0.1773 -0.1315
14582TIP3    H165161   6.306   0.554  15.146 -0.8925 -0.0764 -2.1235
14582TIP3    H265162   6.393   0.434  15.115  0.0344 -0.0041  0.0640
14583TIP3   OH265163   6.139   0.320  10.425  0.8378 -0.5063 -0.2795
14583TIP3    H165164   6.181   0.328  10.511  0.1877  2.4083 -0.1160
14583TIP3    H265165   6.052   0.359  10.437  0.2836 -1.1118 -1.9894
14584TIP3   OH265166   1.887   6.423  13.903 -0.1946 -0.1412 -0.0793
14584TIP3    H165167   1.944   6.498  13.919  1.4875 -1.1481 -1.0651
14584TIP3    H265168   1.852   6.438  13.815 -1.2459  0.3111  0.3963
14585TIP3   OH265169   1.689   0.154   1.626 -0.2951 -0.1271 -0.0882
14585TIP3    H165170   1.707   0.135   1.718  0.8444  1.8851  0.1550
14585TIP3    H265171   1.770   0.134   1.580 -0.6835 -0.5814 -0.6047
14586TIP3   OH265172   0.121   1.260   2.056  0.0691  0.4433 -0.2069
14586TIP3    H165173   0.069   1.186   2.086 -0.7077  1.6448  1.6354
14586TIP3    H265174   0.061   1.311   2.001 -0.1751  0.8878  0.4484
14587TIP3   OH265175   6.003   4.711  16.434 -0.4921 -0.3914  0.3827
14587TIP3    H165176   6.046   4.756  16.362  2.2912 -2.0886  0.8420
14587TIP3    H265177   6.041   4.749  16.513  1.0437 -2.5485  0.7867
14588TIP3   OH265178   4.768   3.716  14.118  0.0265  0.2344  0.0271
14588TIP3    H165179   4.818   3.735  14.198 -0.2270  0.0684  0.2261
14588TIP3    H265180   4.686   3.679  14.150 -0.3683  0.8396 -0.2885
14589TIP3   OH265181   2.471   3.316   4.134 -0.7136  0.1202 -0.1829
14589TIP3    H165182   2.405   3.247   4.124 -1.3488  0.4916  1.2119
14589TIP3    H265183   2.548   3.271   4.168 -0.9526 -0.0001  0.2121
14590TIP3   OH265184   1.518   0.555  13.203 -0.2323  0.2734  0.3356
14590TIP3    H165185   1.551   0.482  13.150  1.5563  0.3879  1.2174
14590TIP3    H265186   1.440   0.521  13.246 -1.8532  0.2082 -2.3972
14591TIP3   OH265187   4.577   4.580   3.922 -0.2327 -0.0259 -0.3130
14591TIP3    H165188   4.655   4.540   3.883 -0.1395 -0.6060  0.4451
14591TIP3    H265189   4.505   4.556   3.864  0.0306 -0.1750 -0.5804
14592TIP3   OH265190   3.620   2.819  12.528  0.7344  0.3284 -0.0630
14592TIP3    H165191   3.602   2.908  12.496  0.1667 -0.0806 -0.9250
14592TIP3    H265192   3.547   2.799  12.586  1.6259  0.9666  1.3371
14593TIP3   OH265193   6.307   3.859   1.283 -0.0536 -0.8375 -0.0950
14593TIP3    H165194   6.231   3.836   1.336  0.9492  0.2201  1.8971
14593TIP3    H265195   6.279   3.933   1.230 -0.3281 -0.2523  0.8601
14594TIP3   OH265196   1.093   5.249   1.062  0.4800  0.0573 -0.2352
14594TIP3    H165197   1.147   5.327   1.048  0.2035  0.1243 -0.9451
14594TIP3    H265198   1.054   5.262   1.149 -0.8564  1.4992 -1.0046
14595TIP3   OH265199   2.728   6.237   3.637  0.5420  0.2710 -0.0350
14595TIP3    H165200   2.775   6.301   3.691  2.7055  0.2984 -1.8256
14595TIP3    H265201   2.644   6.280   3.618  0.7047  1.2561  1.3032
14596TIP3   OH265202   2.592   2.270  11.137  0.2622 -0.4987  0.2476
14596TIP3    H165203   2.686   2.275  11.156  0.7249 -0.9010 -1.6750
14596TIP3    H265204   2.585   2.299  11.045 -1.0625 -3.4926 -0.7147
14597TIP3   OH265205   2.732   6.626   0.620 -0.0919 -0.2143  0.0725
14597TIP3    H165206   2.659   6.579   0.659  0.5920  0.1009  1.7928
14597TIP3    H265207   2.697   6.658   0.536 -2.9367  2.3832  2.0139
14598TIP3   OH265208   0.749   5.294   3.455  0.2476 -0.0712  0.1816
14598TIP3    H165209   0.761   5.380   3.414 -0.6233 -0.4447 -0.9270
14598TIP3    H265210   0.809   5.237   3.408  0.8919 -0.0577  0.9803
14599TIP3   OH265211   0.266   1.589  15.565 -0.2094  0.2628 -0.1019
14599TIP3    H165212   0.322   1.606  15.641 -1.1566  0.2701  0.6280
14599TIP3    H265213   0.313   1.524  15.513  0.5036  0.3335  0.4454
14600TIP3   OH265214   6.394   1.691  14.354  0.5480  1.0730 -0.0744
14600TIP3    H165215   6.378   1.597  14.349 -0.3740  1.0860  1.7535
14600TIP3    H265216   6.487   1.698  14.378  0.9022  0.6923 -1.2639
14601TIP3   OH265217   2.694   3.604  12.768 -0.2598  0.2615 -0.1890
14601TIP3    H165218   2.635   3.546  12.719 -1.4066  1.5032 -0.3378
14601TIP3    H265219   2.776   3.554  12.775 -1.4611 -1.7583  0.5076
14602TIP3   OH265220   5.033   4.381   0.130 -0.0453  0.3171 -0.2976
14602TIP3    H165221   5.053   4.401   0.038  0.4781  0.5189 -0.1395
14602TIP3    H265222   4.938   4.389   0.136 -0.3926 -2.0773 -1.4081
14603TIP3   OH265223   4.672   3.623   3.892  0.1663  0.0888 -0.1425
14603TIP3    H165224   4.636   3.577   3.968 -0.0216 -0.8799 -0.8048
14603TIP3    H265225   4.595   3.643   3.838  0.1376  1.9259  0.4975
14604TIP3   OH265226   5.545   2.377  16.653  0.5554  0.0804 -0.5620
14604TIP3    H165227   5.634   2.367  16.618  0.6049  1.7106 -0.9589
14604TIP3    H265228   5.489   2.378  16.576  0.2191 -0.5385 -0.3329
14605TIP3   OH265229   5.433   2.593  13.790  0.7620 -1.1258  0.2367
14605TIP3    H165230   5.404   2.589  13.881  0.1782 -1.0433  0.0627
14605TIP3    H265231   5.468   2.681  13.779 -2.3742  0.1710 -0.5151
14606TIP3   OH265232   1.215   3.080   2.730  0.4709  0.0549  0.3685
14606TIP3    H165233   1.134   3.098   2.682  0.0269  2.6981  1.9661
14606TIP3    H265234   1.194   3.004   2.785  0.2430 -1.4761 -1.7072
14607TIP3   OH265235   3.218   6.361   0.672  0.6132 -0.0664 -0.2053
14607TIP3    H165236   3.220   6.441   0.620  0.5244  0.6895  0.9153
14607TIP3    H265237   3.309   6.331   0.674  1.0041  1.0558  0.8888
14608TIP3   OH265238   0.383   4.326   4.528  0.1037 -0.0148 -0.4308
14608TIP3    H165239   0.352   4.416   4.515 -0.6050 -0.2160 -0.1353
14608TIP3    H265240   0.307   4.278   4.559  0.8882 -0.3559  1.0363
14609TIP3   OH265241   0.975   2.624   4.560 -0.6769  0.0159 -0.0655
14609TIP3    H165242   0.905   2.577   4.515 -0.1068 -1.3791  0.4617
14609TIP3    H265243   1.041   2.639   4.492 -0.5609 -0.5645 -0.0822
14610TIP3   OH265244   5.896   3.642  13.560 -0.0918  0.6646 -0.0325
14610TIP3    H165245   5.920   3.601  13.642 -0.2132 -0.3998 -0.5138
14610TIP3    H265246   5.954   3.718  13.553  0.6655  0.1465  0.5121
14611TIP3   OH265247   3.836   3.767  11.208  0.8268  0.3028  0.4738
14611TIP3    H165248   3.770   3.740  11.144 -0.3258 -0.9250  2.0842
14611TIP3    H265249   3.895   3.692  11.215  0.7898  0.3217  1.0341
14612TIP3   OH265250   3.001   1.861  11.690 -0.2350 -0.7058 -0.8162
14612TIP3    H165251   3.028   1.854  11.598  1.4522 -1.3550 -0.3161
14612TIP3    H265252   3.077   1.828  11.740  0.2405  2.6529  0.9673
14613TIP3   OH265253   6.279   1.759  14.086  0.2422 -0.1789  0.1194
14613TIP3    H165254   6.200   1.727  14.128 -0.6878 -0.3393 -1.6660
14613TIP3    H265255   6.340   1.685  14.089 -0.4418 -0.7789 -0.3510
14614TIP3   OH265256   5.606   2.955  11.981 -0.2024  0.0802  0.2954
14614TIP3    H165257   5.528   2.900  11.983 -0.0292 -0.1638  0.3404
14614TIP3    H265258   5.677   2.895  11.958 -0.0996  0.3875 -0.1990
14615TIP3   OH265259   1.750   2.836  12.651  0.2859 -0.1689  0.4532
14615TIP3    H165260   1.831   2.852  12.699  0.4809  0.6402 -0.1220
14615TIP3    H265261   1.702   2.919  12.657 -0.1114 -0.3667  0.0586
14616TIP3   OH265262   2.378   6.703   1.803 -0.3528 -0.1919 -0.0155
14616TIP3    H165263   2.429   6.673   1.879 -1.1039  0.0849  0.6035
14616TIP3    H265264   2.408   6.793   1.789  1.2722 -0.8892 -1.3386
14617TIP3   OH265265   2.564   5.982  11.418  0.2790 -0.0792  0.6867
14617TIP3    H165266   2.594   5.903  11.373 -0.2603 -0.4747  1.0184
14617TIP3    H265267   2.558   5.957  11.510 -0.0150  0.3117  0.7790
14618TIP3   OH265268   5.290   3.356   0.945 -0.2477 -0.0389  0.2585
14618TIP3    H165269   5.234   3.408   0.887 -1.8262 -1.5491  0.3652
14618TIP3    H265270   5.341   3.301   0.887  0.4911  0.6703  0.2076
14619TIP3   OH265271   0.364   3.403  13.834  0.5208 -0.0525  0.0257
14619TIP3    H165272   0.311   3.368  13.763  1.2589  1.7370 -1.4867
14619TIP3    H265273   0.302   3.414  13.907 -1.0589  1.2297 -1.4163
14620TIP3   OH265274   0.514   6.496  13.862 -0.0287  0.2895  0.5150
14620TIP3    H165275   0.544   6.587  13.852  0.1121  0.7526  3.8502
14620TIP3    H265276   0.543   6.472  13.950 -1.8498 -2.3020  0.4920
14621TIP3   OH265277   6.032   5.809  11.424  0.0115  0.4287 -0.1225
14621TIP3    H165278   5.977   5.744  11.467 -0.0671 -1.0998 -2.3538
14621TIP3    H265279   6.104   5.824  11.485 -0.2529 -1.3703  0.7008
14622TIP3   OH265280   4.821   3.693   1.668  0.4880 -1.0171  0.2135
14622TIP3    H165281   4.787   3.621   1.615 -0.1249 -0.9382  0.4960
14622TIP3    H265282   4.809   3.664   1.758 -1.2363  0.0780  0.3757
14623TIP3   OH265283   1.083   6.396   5.530  0.3837  0.7432 -0.2457
14623TIP3    H165284   1.097   6.373   5.622  2.9279  0.9071 -0.5326
14623TIP3    H265285   1.154   6.457   5.509 -1.3136  2.3250 -1.7971
14624TIP3   OH265286   3.895   4.110   4.571 -0.4372 -0.0110  0.0859
14624TIP3    H165287   3.872   4.137   4.482 -0.0543 -0.1143 -0.0455
14624TIP3    H265288   3.899   4.014   4.568 -0.0899 -0.0007  0.1282
14625TIP3   OH265289   5.402   1.422   5.528  0.6111 -0.1029 -0.4391
14625TIP3    H165290   5.482   1.420   5.580 -1.2406 -0.2593  2.6592
14625TIP3    H265291   5.376   1.330   5.521 -0.4608  0.0948  0.6331
14626TIP3   OH265292   0.632   5.991  15.948 -0.2146  0.0463 -0.2580
14626TIP3    H165293   0.578   5.920  15.913  0.5251 -0.4217 -0.4820
14626TIP3    H265294   0.574   6.040  16.006 -0.6439 -0.9303  0.1471
14627TIP3   OH265295   6.426   1.240   5.878  0.3566  0.4177 -0.2101
14627TIP3    H165296   6.375   1.287   5.812  0.2373  1.1772  0.4086
14627TIP3    H265297   6.362   1.183   5.920 -0.0185  1.3771  0.5712
14628TIP3   OH265298   0.712   0.466   1.079  0.4812  0.4505  0.3826
14628TIP3    H165299   0.688   0.413   1.155  2.0409  0.6643  1.0468
14628TIP3    H265300   0.789   0.515   1.107  2.7568 -1.4362 -2.1787
14629TIP3   OH265301   5.018   6.134  11.136  0.5169  0.8803 -0.2843
14629TIP3    H165302   4.998   6.227  11.125 -0.9814  0.4213 -1.7126
14629TIP3    H265303   5.044   6.104  11.049  3.2190  0.4034  0.5997
14630TIP3   OH265304   3.543   2.207  14.390  0.1563  0.0185 -0.1110
14630TIP3    H165305   3.462   2.257  14.381 -0.2262 -0.8363 -1.8470
14630TIP3    H265306   3.535   2.164  14.475 -0.9443  0.4246  0.0092
14631TIP3   OH265307   6.057   0.704   6.211  0.2122 -0.3650  0.1377
14631TIP3    H165308   6.069   0.650   6.133  1.2953  0.2782 -0.1574
14631TIP3    H265309   5.968   0.684   6.240  0.0870 -1.2329 -0.7801
14632TIP3   OH265310   6.707   0.713   2.453 -0.1115 -0.0924  0.1510
14632TIP3    H165311   6.735   0.748   2.369  1.0805 -0.7431  0.2429
14632TIP3    H265312   6.745   0.625   2.456  2.6318  1.0063  2.6452
14633TIP3   OH265313   5.207   1.442  11.548 -0.1811  0.1557  0.3011
14633TIP3    H165314   5.114   1.421  11.541 -0.1734  0.1637  0.1679
14633TIP3    H265315   5.216   1.524  11.499 -0.3320  0.8256  1.3664
14634TIP3   OH265316   1.896   2.271  17.092  0.5942 -0.5143 -0.2372
14634TIP3    H165317   1.929   2.218  17.165  0.9232  2.3604  1.8688
14634TIP3    H265318   1.811   2.233  17.071  0.9065 -1.9802  0.9988
14635TIP3   OH265319   5.218   5.113  15.457 -0.5133  0.5519  0.3236
14635TIP3    H165320   5.174   5.094  15.374  0.4942  0.2464 -0.1514
14635TIP3    H265321   5.304   5.148  15.432  0.4007 -0.9140  1.2208
14636TIP3   OH265322   0.093   6.112  14.224  0.0370 -0.5590  0.0814
14636TIP3    H165323   0.065   6.193  14.180 -0.7319 -0.4125  0.8193
14636TIP3    H265324   0.052   6.116  14.310  1.8257 -0.6430  0.9931
14637TIP3   OH265325   1.158   6.438  15.853 -1.0234  0.2068  0.8378
14637TIP3    H165326   1.142   6.364  15.795 -0.3985  2.6398 -2.7373
14637TIP3    H265327   1.079   6.491  15.848  0.0180  1.7570  0.0318
14638TIP3   OH265328   2.361   2.772   2.017  0.2862  0.2185 -0.0009
14638TIP3    H165329   2.349   2.820   2.099  0.4070 -1.9473  1.3533
14638TIP3    H265330   2.448   2.798   1.986  0.0304  1.4412  0.2659
14639TIP3   OH265331   2.812   6.697   0.097  0.9530 -0.1258 -0.6526
14639TIP3    H165332   2.807   6.779   0.047  0.1008 -0.3509 -0.9649
14639TIP3    H265333   2.741   6.644   0.061  0.1120 -0.1782  1.0378
14640TIP3   OH265334   0.982   5.861  13.077  0.2230 -0.1919 -0.2588
14640TIP3    H165335   0.938   5.793  13.024 -1.1172 -0.6428  1.3485
14640TIP3    H265336   1.011   5.815  13.155  2.6413  0.3648 -0.7670
14641TIP3   OH265337   0.353   2.874   2.120  0.2746  0.4018 -0.2190
14641TIP3    H165338   0.322   2.830   2.040 -0.1097 -2.3940  1.3586
14641TIP3    H265339   0.277   2.872   2.178  0.5958  2.2858  0.3154
14642TIP3   OH265340   6.662   6.534   5.094  0.4097  0.3753 -0.1258
14642TIP3    H165341   6.610   6.525   5.014  0.9013  0.0751 -0.4172
14642TIP3    H265342   6.712   6.453   5.099  0.0709  0.2052  0.7179
14643TIP3   OH265343   4.106   0.638   3.013  0.3772  0.1162  0.3040
14643TIP3    H165344   4.169   0.583   2.967  1.2675  0.9852  0.4573
14643TIP3    H265345   4.158   0.710   3.049 -0.7906  1.2238 -0.1333
14644TIP3   OH265346   1.928   1.895   1.509  0.8692 -0.1968  0.3590
14644TIP3    H165347   1.959   1.926   1.424  1.8116  0.9704  1.0953
14644TIP3    H265348   1.955   1.963   1.570  0.3270 -1.0799  1.6156
14645TIP3   OH265349   4.348   6.181  15.443  0.3364 -0.0860 -0.0724
14645TIP3    H165350   4.383   6.188  15.532  0.5819  1.1408 -0.2576
14645TIP3    H265351   4.410   6.124  15.397  1.7876  1.5121 -0.2082
14646TIP3   OH265352   6.672   0.616   3.106 -0.7496 -0.2192 -0.2154
14646TIP3    H165353   6.630   0.553   3.046 -2.1317  0.9477 -0.5224
14646TIP3    H265354   6.664   0.575   3.192 -0.8455 -0.8552 -0.5152
14647TIP3   OH265355   0.629   0.332  10.949 -0.3398 -0.4903  0.8561
14647TIP3    H165356   0.564   0.304  10.885 -1.5638  0.6390  1.5430
14647TIP3    H265357   0.641   0.426  10.932  0.4497 -0.4936  1.3105
14648TIP3   OH265358   5.930   3.544   4.181  0.0981 -0.0587 -0.1036
14648TIP3    H165359   6.016   3.503   4.186 -0.2414 -0.8305 -0.4909
14648TIP3    H265360   5.869   3.472   4.167 -0.2856  0.6999 -3.0157
14649TIP3   OH265361   6.308   1.785   3.827 -0.2360 -0.2325  0.0715
14649TIP3    H165362   6.402   1.778   3.814 -0.1313  0.0603  0.6281
14649TIP3    H265363   6.297   1.861   3.884 -0.9206  0.5782 -1.1002
14650TIP3   OH265364   0.103   2.966  15.185  0.0335  0.7767  0.1459
14650TIP3    H165365   0.042   2.904  15.144  1.2774  0.8143 -1.9310
14650TIP3    H265366   0.146   3.009  15.111  1.8294  1.5034  1.5449
14651TIP3   OH265367   1.469   2.444   5.778  0.1748 -0.4435 -0.5219
14651TIP3    H165368   1.443   2.380   5.711 -0.0842 -0.4284 -0.4364
14651TIP3    H265369   1.560   2.424   5.796  0.0051 -0.9875 -0.2700
14652TIP3   OH265370   5.576   5.094  14.152  0.2445  0.0150 -0.2023
14652TIP3    H165371   5.590   5.023  14.214  2.7828  1.2722  0.8169
14652TIP3    H265372   5.611   5.060  14.069 -1.6350 -1.0660 -0.6071
14653TIP3   OH265373   3.085   1.455  14.445 -0.3834 -0.0120  0.3156
14653TIP3    H165374   3.012   1.518  14.440  0.0999  0.6480  1.1969
14653TIP3    H265375   3.151   1.490  14.385 -0.3592 -0.0085  0.3444
14654TIP3   OH265376   1.343   1.003  12.393 -0.5920  0.2661 -0.0615
14654TIP3    H165377   1.402   1.069  12.357 -1.1801  0.7786 -0.1219
14654TIP3    H265378   1.257   1.046  12.392 -0.6729  0.2196  1.7614
14655TIP3   OH265379   4.657   0.836  12.213  0.1395 -0.1556  0.1282
14655TIP3    H165380   4.681   0.755  12.257  1.8673  0.0997 -0.2692
14655TIP3    H265381   4.652   0.813  12.120  1.5689  0.3522 -0.1006
14656TIP3   OH265382   1.759   4.207   0.077 -0.0047  0.0219  0.1734
14656TIP3    H165383   1.769   4.213   0.172  0.2602 -0.2039  0.1613
14656TIP3    H265384   1.698   4.276   0.055  0.3388  0.4176  0.4466
14657TIP3   OH265385   1.343   1.472   5.591 -0.3786 -0.4453  0.2665
14657TIP3    H165386   1.353   1.567   5.588 -2.9033 -0.1408 -0.8694
14657TIP3    H265387   1.342   1.451   5.685 -3.2807  1.1567  0.6980
14658TIP3   OH265388   3.813   6.365  16.105  0.0223  0.0562  0.0983
14658TIP3    H165389   3.764   6.441  16.137  0.1742  0.6084 -0.9520
14658TIP3    H265390   3.762   6.334  16.030  0.5178 -0.2561 -0.1097
14659TIP3   OH265391   3.279   0.494  15.801 -0.2687  0.2316 -0.0059
14659TIP3    H165392   3.326   0.535  15.873  1.7884 -1.1391 -0.4834
14659TIP3    H265393   3.311   0.538  15.722 -1.2345  0.5579 -0.2365
14660TIP3   OH265394   5.113   0.907  11.406  0.6756  0.2205 -0.0793
14660TIP3    H165395   5.097   0.901  11.312  0.9660  0.0741 -0.1195
14660TIP3    H265396   5.081   0.823  11.440  1.3676 -0.0809 -0.1616
14661TIP3   OH265397   6.541   1.860  16.205  0.0508 -0.6568  0.0598
14661TIP3    H165398   6.453   1.868  16.167 -0.2019  0.6921  0.8625
14661TIP3    H265399   6.534   1.786  16.266 -0.9971  0.3989  1.2795
14662TIP3   OH265400   1.728   6.049  17.024 -0.6592 -0.0464 -0.5241
14662TIP3    H165401   1.693   5.999  16.951 -1.7932  1.0478 -0.7627
14662TIP3    H265402   1.651   6.091  17.063 -0.1643 -0.9561  1.5874
14663TIP3   OH265403   4.830   4.503  17.222 -0.3318  0.1106  0.3203
14663TIP3    H165404   4.863   4.490  17.133  1.2254 -0.5860  0.9716
14663TIP3    H265405   4.780   4.585  17.217  2.0020  1.5857 -0.6245
14664TIP3   OH265406   0.583   4.689   1.948  0.6086 -0.3633 -0.1368
14664TIP3    H165407   0.568   4.734   2.031  0.7893  0.2317 -0.4228
14664TIP3    H265408   0.512   4.625   1.942  0.1328  0.1355  0.0981
14665TIP3   OH265409   3.579   0.193   1.281  0.0362 -0.5673  0.2399
14665TIP3    H165410   3.666   0.153   1.277  1.0520  1.4488  0.9591
14665TIP3    H265411   3.591   0.272   1.334 -1.9072  0.5826 -0.9082
14666TIP3   OH265412   1.831   4.744  11.252  0.2386 -0.1445  0.4178
14666TIP3    H165413   1.768   4.754  11.323  0.7980  1.2501  0.7403
14666TIP3    H265414   1.794   4.795  11.180 -0.2821 -1.4791 -0.3089
14667TIP3   OH265415   3.112   3.345   1.397 -0.2888 -0.3820 -0.2265
14667TIP3    H165416   3.069   3.430   1.384  1.1849  0.6427  1.1817
14667TIP3    H265417   3.063   3.305   1.469  1.0187  0.8146  1.4243
14668TIP3   OH265418   5.521   0.129   2.839  0.2509 -0.0452 -0.2687
14668TIP3    H165419   5.581   0.143   2.913 -0.9092 -3.2797  1.5202
14668TIP3    H265420   5.520   0.034   2.827 -2.6007  0.0791 -1.8643
14669TIP3   OH265421   4.384   0.418   4.402 -0.0311 -0.2472  0.4848
14669TIP3    H165422   4.470   0.377   4.400 -0.3132 -0.8639  0.8132
14669TIP3    H265423   4.381   0.465   4.486  0.3538  0.6006  0.0369
14670TIP3   OH265424   0.251   3.987  14.877 -0.0783  0.7150  0.4312
14670TIP3    H165425   0.286   3.905  14.844 -0.6712  0.8479 -0.5698
14670TIP3    H265426   0.182   3.961  14.939 -0.8215  0.4397 -0.4892
14671TIP3   OH265427   5.644   4.813  11.864 -0.0235  0.7553  0.3153
14671TIP3    H165428   5.594   4.732  11.859 -1.0769  1.4165 -0.1810
14671TIP3    H265429   5.677   4.827  11.775  1.6884 -0.0380  0.7760
14672TIP3   OH265430   0.973   3.301  14.143 -0.5933  0.0923 -0.1732
14672TIP3    H165431   1.014   3.387  14.137 -0.5646  0.0161 -1.2194
14672TIP3    H265432   0.904   3.312  14.208  0.6889  0.3730  1.1863
14673TIP3   OH265433   2.461   6.011   5.525  0.0189 -0.0774 -0.5307
14673TIP3    H165434   2.383   5.989   5.474  0.3880  1.7616 -1.9696
14673TIP3    H265435   2.434   6.086   5.579  0.3134 -0.5276  0.2623
14674TIP3   OH265436   1.361   6.084  11.840  0.0928  0.7058  0.0401
14674TIP3    H165437   1.407   6.011  11.882 -0.9479 -0.9604 -1.5512
14674TIP3    H265438   1.333   6.139  11.913  0.9941 -0.4247  1.3067
14675TIP3   OH265439   6.737   0.536  12.759  0.6342 -0.3873  0.3828
14675TIP3    H165440   6.727   0.610  12.818 -0.7234  0.0299 -0.3292
14675TIP3    H265441   6.832   0.521  12.755  0.7582 -0.8291  3.1003
14676TIP3   OH265442   3.660   5.451  14.073  0.0926  0.2181 -0.1299
14676TIP3    H165443   3.626   5.496  14.150 -1.1376  0.0695 -0.5631
14676TIP3    H265444   3.642   5.510  14.001 -2.1606 -1.1733 -0.8108
14677TIP3   OH265445   5.037   4.077  15.645  0.2885  0.0438  0.5843
14677TIP3    H165446   4.956   4.086  15.695 -0.0368  2.4098 -0.2082
14677TIP3    H265447   5.009   4.074  15.553  0.9289 -3.3172  0.3789
14678TIP3   OH265448   4.774   5.330   4.912 -0.0007 -0.3068 -0.3017
14678TIP3    H165449   4.806   5.412   4.875 -0.7953 -0.4674 -1.3809
14678TIP3    H265450   4.821   5.321   4.995 -0.3931  1.5843  0.1812
14679TIP3   OH265451   5.374   1.853   0.854  0.0879 -1.0800 -0.0952
14679TIP3    H165452   5.310   1.809   0.798 -0.2093 -0.1770 -0.4858
14679TIP3    H265453   5.329   1.932   0.883  0.1831 -1.5931  1.5577
14680TIP3   OH265454   1.272   1.919   2.449  0.2650  0.4186 -0.3253
14680TIP3    H165455   1.298   1.842   2.399  0.1912 -0.2906  0.6817
14680TIP3    H265456   1.266   1.887   2.540  2.1394  2.0452  0.4321
14681TIP3   OH265457   5.146   5.208   6.410 -0.6204  0.0712 -0.0429
14681TIP3    H165458   5.064   5.253   6.431  0.4433  0.8754  2.8807
14681TIP3    H265459   5.138   5.122   6.450 -0.3915 -0.1901 -0.5504
14682TIP3   OH265460   5.503   6.620   4.610 -0.4862  0.1230 -0.2530
14682TIP3    H165461   5.509   6.591   4.519 -0.4291 -0.4624 -0.0644
14682TIP3    H265462   5.533   6.711   4.608  0.4598 -0.1843 -0.6631
14683TIP3   OH265463   2.342   4.521  12.728 -0.1082  0.2408  0.3561
14683TIP3    H165464   2.318   4.612  12.715 -0.9743  0.1582  1.2310
14683TIP3    H265465   2.388   4.496  12.648 -2.8863  0.4577 -1.4634
14684TIP3   OH265466   4.281   5.316  14.125 -0.1718  0.0573 -0.2171
14684TIP3    H165467   4.196   5.296  14.085 -0.4894  2.7044 -1.0794
14684TIP3    H265468   4.261   5.330  14.218 -0.5998  0.1659 -0.3222
14685TIP3   OH265469   6.384   1.432   2.007 -0.5571  0.2575 -0.4398
14685TIP3    H165470   6.461   1.448   2.062 -0.9828  1.4862 -0.1764
14685TIP3    H265471   6.311   1.430   2.069 -0.5359 -3.5464 -0.3077
14686TIP3   OH265472   6.510   5.992   3.877  0.4565 -0.2056 -0.3649
14686TIP3    H165473   6.530   6.061   3.941 -1.0438 -0.4716  0.4335
14686TIP3    H265474   6.520   6.035   3.792  1.4793  0.4424  0.0575
14687TIP3   OH265475   6.427   2.527  12.164 -0.1144  0.0861 -0.7666
14687TIP3    H165476   6.433   2.472  12.087  0.6698 -0.0463 -0.6180
14687TIP3    H265477   6.371   2.600  12.137 -1.2330 -0.8114 -0.9311
14688TIP3   OH265478   1.292   6.682   5.601 -0.5280 -0.0387  0.3992
14688TIP3    H165479   1.326   6.758   5.648  0.1631 -0.7794  1.0987
14688TIP3    H265480   1.354   6.669   5.529 -1.4999  0.9986 -0.6877
14689TIP3   OH265481   0.055   5.604  13.071 -0.2545 -0.4443 -0.6245
14689TIP3    H165482   0.006   5.529  13.106 -0.1580  0.2610  1.1052
14689TIP3    H265483  -0.012   5.665  13.042 -0.4054 -0.1513  0.2943
14690TIP3   OH265484   2.183   1.168  15.047  0.3417  0.0751  0.3720
14690TIP3    H165485   2.130   1.120  15.112 -0.4744  1.2374  0.6059
14690TIP3    H265486   2.262   1.194  15.095  1.2014 -1.7211  0.0066
14691TIP3   OH265487   0.571   3.866   3.736 -0.4022  0.1621 -0.1419
14691TIP3    H165488   0.628   3.878   3.812  1.3408 -2.3663 -0.9163
14691TIP3    H265489   0.544   3.955   3.712 -0.5987  1.0951  3.0416
14692TIP3   OH265490   2.736   3.275  14.379  0.0069  0.1047  0.1216
14692TIP3    H165491   2.767   3.188  14.405 -0.9726 -0.1888  0.3225
14692TIP3    H265492   2.656   3.288  14.429 -0.1350  0.9077 -0.3039
14693TIP3   OH265493   0.924   3.418  11.512 -0.2643  0.2222  0.0332
14693TIP3    H165494   0.861   3.468  11.566  0.5860 -0.5244  1.8156
14693TIP3    H265495   0.928   3.465  11.430 -1.8216  1.3065  0.5261
14694TIP3   OH265496   1.634   2.337   4.477 -0.2046  0.0001  0.1854
14694TIP3    H165497   1.723   2.322   4.447  0.1686  3.1797 -0.6217
14694TIP3    H265498   1.643   2.371   4.566 -0.6313  0.0009  0.2333
14695TIP3   OH265499   0.990   0.057  12.836  0.1008  0.2997 -0.1717
14695TIP3    H165500   1.008   0.017  12.751  1.9320  2.5467 -0.9495
14695TIP3    H265501   1.027   0.145  12.829 -0.4265  0.8413  2.6920
14696TIP3   OH265502   1.483   0.642   1.162 -0.7614 -1.0222 -1.3756
14696TIP3    H165503   1.569   0.663   1.199 -1.1085 -0.1863 -1.0272
14696TIP3    H265504   1.443   0.584   1.227 -2.2553  2.1676  0.7688
14697TIP3   OH265505   0.382   1.987   0.692  0.0344 -0.3815 -0.3252
14697TIP3    H165506   0.379   1.942   0.776  0.2217  0.4002  0.1111
14697TIP3    H265507   0.292   1.986   0.661 -0.0463 -0.6223 -0.0858
14698TIP3   OH265508   6.323   3.727  16.122  0.0903  0.2892  0.2930
14698TIP3    H165509   6.279   3.800  16.165 -1.1733  0.3551 -1.0540
14698TIP3    H265510   6.340   3.757  16.033 -0.2161 -0.9530 -0.2040
14699TIP3   OH265511   5.837   5.983   3.184 -0.3364 -0.1698 -0.4737
14699TIP3    H165512   5.775   6.022   3.246  1.5573  0.9436  0.8493
14699TIP3    H265513   5.796   5.901   3.157 -1.5227 -0.4386  1.8552
14700TIP3   OH265514   1.289   0.820   6.556  0.1354 -0.3925  0.3553
14700TIP3    H165515   1.340   0.749   6.594 -1.1185 -1.0118  0.9764
14700TIP3    H265516   1.203   0.813   6.598 -0.0756  1.4191  0.3354
14701TIP3   OH265517   2.727   3.499  15.528 -0.0950 -0.2449  0.2877
14701TIP3    H165518   2.790   3.432  15.504  0.9050  0.7245  0.1004
14701TIP3    H265519   2.698   3.536  15.445  1.3804  1.3266  0.4075
14702TIP3   OH265520   1.442   5.683   5.390  0.0192  0.2971 -0.4187
14702TIP3    H165521   1.409   5.719   5.308 -0.4333 -0.7494 -0.7257
14702TIP3    H265522   1.374   5.702   5.454  0.8547  2.0679 -0.0144
14703TIP3   OH265523   2.931   2.077   4.339 -0.5791 -0.3442  0.3982
14703TIP3    H165524   2.948   2.030   4.257  3.3875 -2.6335  2.1924
14703TIP3    H265525   2.976   2.161   4.329 -0.8873 -0.2326 -0.0665
14704TIP3   OH265526   4.517   4.903  12.384 -0.4034 -0.2448 -0.0861
14704TIP3    H165527   4.493   4.990  12.415 -0.0720 -0.0332 -0.4211
14704TIP3    H265528   4.535   4.853  12.464 -1.5978 -0.3140  0.1618
14705TIP3   OH265529   4.588   2.850   4.182 -0.0158 -0.3133  0.0965
14705TIP3    H165530   4.602   2.935   4.224 -1.5723  0.4610 -0.8685
14705TIP3    H265531   4.514   2.865   4.123  0.3520 -2.0797 -0.8546
14706TIP3   OH265532   5.556   0.785  16.932  0.2761  0.1375 -0.1098
14706TIP3    H165533   5.573   0.737  17.013 -0.7060 -0.3912 -0.1967
14706TIP3    H265534   5.626   0.849  16.927  2.7648 -2.4092 -0.8939
14707TIP3   OH265535   1.296   6.106   0.535  0.6453 -0.1681 -0.1131
14707TIP3    H165536   1.362   6.133   0.473  0.3903 -1.8843 -1.2035
14707TIP3    H265537   1.301   6.170   0.606  0.3809  2.3451 -2.2330
14708TIP3   OH265538   3.043   0.397  14.679  0.2747  0.0071  0.1854
14708TIP3    H165539   2.958   0.352  14.674  0.9371 -1.1913 -0.4871
14708TIP3    H265540   3.021   0.490  14.671 -0.9715 -0.2937 -0.0807
14709TIP3   OH265541   3.431   6.371  12.403  0.1224 -0.6706 -0.1023
14709TIP3    H165542   3.498   6.411  12.459  1.4589 -0.7838 -1.5403
14709TIP3    H265543   3.388   6.445  12.361  1.3136 -0.6117 -1.3168
14710TIP3   OH265544   5.916   3.523  16.776  0.0592 -0.3037 -0.4376
14710TIP3    H165545   5.855   3.480  16.715  0.8631 -0.6695 -0.9924
14710TIP3    H265546   6.003   3.497  16.746  0.4695 -1.2018  1.3774
14711TIP3   OH265547   3.993   1.909  17.129  0.4810  0.5631 -0.4917
14711TIP3    H165548   4.000   1.814  17.127 -0.0931  0.3934  1.8671
14711TIP3    H265549   3.939   1.931  17.054 -0.8270 -1.1705 -0.1291
14712TIP3   OH265550   0.692   1.697   2.563  0.9442 -0.0128 -0.7719
14712TIP3    H165551   0.639   1.617   2.562  0.7225 -0.0044  1.8213
14712TIP3    H265552   0.697   1.724   2.472 -0.2187 -2.1681 -1.5505
14713TIP3   OH265553   3.212   3.150  16.365 -0.7623  0.3345  0.6895
14713TIP3    H165554   3.249   3.063  16.349 -0.4316  0.6755 -0.5413
14713TIP3    H265555   3.119   3.141  16.341 -0.4221  0.6581 -0.8815
14714TIP3   OH265556   1.261   5.348  15.715 -0.0663 -0.3124  0.0583
14714TIP3    H165557   1.338   5.405  15.707 -0.5321  0.3450  0.2330
14714TIP3    H265558   1.298   5.260  15.723  0.6514 -0.0918 -0.6662
14715TIP3   OH265559   1.930   1.432   1.051  0.9362  0.2163  0.3008
14715TIP3    H165560   1.908   1.363   1.113  0.4161 -1.6314 -1.8189
14715TIP3    H265561   2.022   1.453   1.070  1.3460 -1.6317  0.4955
14716TIP3   OH265562   4.586   4.544   3.597 -0.0243  0.4211  0.5560
14716TIP3    H165563   4.543   4.630   3.605 -0.8140 -0.0746  2.0015
14716TIP3    H265564   4.662   4.561   3.541 -1.5297  1.5299 -1.2934
14717TIP3   OH265565   4.332   1.170   3.249 -0.5809  0.4370  0.6380
14717TIP3    H165566   4.381   1.195   3.328  1.0893  0.0915 -0.2583
14717TIP3    H265567   4.363   1.082   3.228 -0.2749  0.9025 -0.9630
14718TIP3   OH265568   4.466   2.488  17.051  0.6241 -0.5206 -0.3515
14718TIP3    H165569   4.430   2.430  17.119 -0.3726  0.2351 -0.2127
14718TIP3    H265570   4.438   2.448  16.969 -2.3882  1.1001 -0.2444
14719TIP3   OH265571   5.319   4.907  11.537  0.6644 -0.2206 -0.0013
14719TIP3    H165572   5.355   4.836  11.484  3.1156  1.0882 -0.2025
14719TIP3    H265573   5.249   4.944  11.483  0.2761 -1.5797 -0.4679
14720TIP3   OH265574   4.303   1.353   2.575  0.8857  1.0118 -0.0568
14720TIP3    H165575   4.277   1.434   2.620 -1.2533  0.8009 -0.7908
14720TIP3    H265576   4.234   1.291   2.597 -0.8416  1.1325 -4.1935
14721TIP3   OH265577   3.236   4.126  16.188  0.3983  0.0662 -0.0334
14721TIP3    H165578   3.193   4.080  16.260 -0.6476  1.8745  0.5492
14721TIP3    H265579   3.199   4.088  16.109 -1.5953  0.8992  0.4522
14722TIP3   OH265580   5.288   3.422  11.846  0.2740  0.1330 -0.4818
14722TIP3    H165581   5.374   3.379  11.841 -0.4476 -1.4725  0.3320
14722TIP3    H265582   5.258   3.426  11.756  0.7648 -0.2247 -0.6681
14723TIP3   OH265583   3.063   1.115  15.041 -0.6858 -0.5365 -0.3767
14723TIP3    H165584   2.983   1.156  15.074  0.0935  0.2661  0.5647
14723TIP3    H265585   3.058   1.125  14.946 -1.4830 -0.1080 -0.2996
14724TIP3   OH265586   1.764   6.152  15.167 -0.2628 -0.5145 -0.1337
14724TIP3    H165587   1.707   6.228  15.177 -0.8018 -0.7761 -1.0346
14724TIP3    H265588   1.831   6.180  15.104 -0.1348 -0.6061 -0.0386
14725TIP3   OH265589   0.636   1.109  15.344  0.0397 -0.2512  0.2540
14725TIP3    H165590   0.637   1.152  15.258  2.3884  0.1850  0.4537
14725TIP3    H265591   0.641   1.015  15.324 -2.6800 -0.4157 -0.1033
14726TIP3   OH265592   6.330   6.483   2.633  0.0514 -0.1110  0.2278
14726TIP3    H165593   6.273   6.552   2.597  0.0708 -0.1435  0.1374
14726TIP3    H265594   6.418   6.519   2.626  0.0569 -0.1246  0.2268
14727TIP3   OH265595   0.578   0.315  16.357  0.0451 -0.0286  0.1607
14727TIP3    H165596   0.576   0.224  16.385  0.1656  0.2063  0.9911
14727TIP3    H265597   0.485   0.340  16.349 -0.0085  0.0706  0.9923
14728TIP3   OH265598   4.144   6.269  17.108 -0.4232  0.3752 -0.2791
14728TIP3    H165599   4.056   6.306  17.099 -1.0350 -0.4326  1.7594
14728TIP3    H265600   4.151   6.206  17.036 -1.5134  0.4810 -0.4968
14729TIP3   OH265601   1.211   0.700  15.744  0.1293  0.6034 -0.0159
14729TIP3    H165602   1.293   0.675  15.788 -0.0544  2.5783  1.6007
14729TIP3    H265603   1.145   0.644  15.785 -0.1021  2.6689  2.7177
14730TIP3   OH265604   0.272   2.684   2.854  0.6111 -0.3343 -0.1859
14730TIP3    H165605   0.312   2.732   2.926 -0.7828  1.0422 -0.2655
14730TIP3    H265606   0.238   2.604   2.893  1.0880 -0.2551  0.3918
14731TIP3   OH265607   3.587   4.021   1.721 -0.0309  0.3546  0.2715
14731TIP3    H165608   3.576   3.948   1.660 -2.0140 -0.2876  1.2918
14731TIP3    H265609   3.681   4.031   1.730  0.3058 -1.8049 -0.2625
14732TIP3   OH265610   0.543   2.085  17.244 -0.2064  0.4681 -0.1275
14732TIP3    H165611   0.613   2.031  17.207 -1.0187 -1.0792  0.5342
14732TIP3    H265612   0.563   2.090  17.337 -1.3726 -0.6334  0.1990
14733TIP3   OH265613   2.496   1.313   3.473  0.2794  0.2052  0.2659
14733TIP3    H165614   2.406   1.319   3.506  0.5156  0.5988  0.8710
14733TIP3    H265615   2.550   1.331   3.550  0.9121 -1.3970  0.2166
14734TIP3   OH265616   4.402   1.294   5.429 -0.9054  0.2989 -0.3341
14734TIP3    H165617   4.331   1.307   5.492 -1.5889  0.2433 -1.0825
14734TIP3    H265618   4.363   1.244   5.358  0.5257 -2.0591  0.4167
14735TIP3   OH265619   1.320   0.413  13.336  0.2358  0.0989 -0.0120
14735TIP3    H165620   1.376   0.344  13.371 -0.7476 -0.7172  0.0092
14735TIP3    H265621   1.243   0.413  13.394  0.0460  0.9467 -0.2442
14736TIP3   OH265622   1.394   0.549   1.967  0.3713 -0.3479 -0.4308
14736TIP3    H165623   1.435   0.538   1.881 -1.5898  0.9139 -1.6179
14736TIP3    H265624   1.337   0.473   1.977  1.4609 -1.0878  0.3132
14737TIP3   OH265625   6.771   0.891  12.549 -0.1201  0.1026  0.4295
14737TIP3    H165626   6.755   0.857  12.461 -0.1172 -1.4097  0.9952
14737TIP3    H265627   6.835   0.831  12.587 -0.2442  0.6448  1.5370
14738TIP3   OH265628   4.099   0.236   3.074  0.0688 -0.5467  0.5435
14738TIP3    H165629   4.181   0.221   3.027  0.3622 -0.4087  1.0055
14738TIP3    H265630   4.115   0.315   3.126 -0.4641 -0.3341  0.3914
14739TIP3   OH265631   2.388   0.304  13.211  0.2357  0.0949 -0.1475
14739TIP3    H165632   2.323   0.357  13.166  0.7264  0.9956  0.1622
14739TIP3    H265633   2.465   0.308  13.155  0.8666  1.2629  0.7486
14740TIP3   OH265634   2.876   6.641  16.757 -0.6831 -0.2109  0.6189
14740TIP3    H165635   2.937   6.657  16.829  0.2123 -0.3468 -0.0830
14740TIP3    H265636   2.868   6.546  16.753  0.9125 -0.3410 -0.7360
14741TIP3   OH265637   2.848   6.056  11.447  0.6768  1.1876  0.4619
14741TIP3    H165638   2.759   6.075  11.417  0.1419 -1.7121 -0.1134
14741TIP3    H265639   2.841   5.970  11.489  3.3864  0.3488 -0.5670
14742TIP3   OH265640   1.118   5.036   6.548 -0.0865 -0.1538  0.1296
14742TIP3    H165641   1.155   5.025   6.636 -0.2331 -0.7268  0.1240
14742TIP3    H265642   1.025   5.021   6.559  0.0003 -1.0910 -0.2639
14743TIP3   OH265643   6.065   2.953   1.015  0.2949 -0.5706  0.6491
14743TIP3    H165644   6.046   3.015   0.945  0.4043 -0.6359  0.5623
14743TIP3    H265645   5.980   2.916   1.038  0.2268 -0.3800  0.7087
14744TIP3   OH265646   2.508   4.605  12.976  0.0328 -0.0335  0.2106
14744TIP3    H165647   2.581   4.547  12.996  0.6482  0.8997  0.7266
14744TIP3    H265648   2.451   4.553  12.919  0.2867 -1.3257  1.0921
14745TIP3   OH265649   2.575   5.343   5.243  0.0988 -0.5282  0.2334
14745TIP3    H165650   2.499   5.286   5.257  1.0660 -1.8996  0.1462
14745TIP3    H265651   2.617   5.349   5.329  0.6415 -0.9235  0.0060
14746TIP3   OH265652   0.962   1.766  15.433  0.4191 -0.0798  0.0502
14746TIP3    H165653   1.016   1.844  15.417  1.6770 -0.7677  0.8676
14746TIP3    H265654   0.914   1.787  15.513 -1.2034  0.8629 -1.1151
14747TIP3   OH265655   3.144   2.960   3.815  0.1632  0.0671  0.0292
14747TIP3    H165656   3.226   2.977   3.769  0.1903 -1.4466 -0.5472
14747TIP3    H265657   3.077   2.961   3.747 -0.7109  3.4139  0.7511
14748TIP3   OH265658   6.020   4.822   3.652  0.2037 -0.4962  0.2734
14748TIP3    H165659   6.018   4.913   3.622 -0.2082 -0.8934 -0.9770
14748TIP3    H265660   5.938   4.811   3.701  1.0955  0.2876  2.0147
14749TIP3   OH265661   4.577   4.275  13.197 -0.2151 -0.2016  0.1655
14749TIP3    H165662   4.598   4.184  13.219 -0.0310 -0.0134  0.8161
14749TIP3    H265663   4.656   4.308  13.154 -0.1403 -0.2406  0.2724
14750TIP3   OH265664   2.581   4.830  15.083 -0.1196  0.9110  0.1826
14750TIP3    H165665   2.587   4.810  15.176  2.7842 -1.0922 -0.3104
14750TIP3    H265666   2.668   4.861  15.059 -0.7941  1.3833 -1.9097
14751TIP3   OH265667   6.024   4.918  11.906  0.2171  0.1870 -0.0074
14751TIP3    H165668   6.108   4.941  11.866 -0.9636  0.1841 -2.6949
14751TIP3    H265669   6.022   4.822  11.906 -0.1811  0.1881 -0.8974
14752TIP3   OH265670   1.419   5.630   4.142  0.2041  0.2002  0.3592
14752TIP3    H165671   1.377   5.705   4.184 -1.2075  1.5498 -3.0749
14752TIP3    H265672   1.353   5.560   4.146  0.7817 -0.3019  1.8572
14753TIP3   OH265673   0.802   2.655  15.789  0.3384 -0.7522 -0.3071
14753TIP3    H165674   0.893   2.680  15.772 -0.1602  0.1977 -1.7193
14753TIP3    H265675   0.757   2.738  15.805 -0.5798 -1.0593 -1.1660
14754TIP3   OH265676   3.378   2.000   0.491 -0.3071  0.0721  0.4336
14754TIP3    H165677   3.360   2.050   0.571  0.6184 -2.2541  2.2252
14754TIP3    H265678   3.292   1.988   0.450 -0.9075  0.7505  1.4455
14755TIP3   OH265679   6.227   6.467   0.161  0.3311  0.0499 -0.0915
14755TIP3    H165680   6.226   6.558   0.132  0.6604 -0.4017 -1.5778
14755TIP3    H265681   6.176   6.420   0.096  0.1292 -0.8351  0.6861
14756TIP3   OH265682   1.419   2.876   3.114 -0.4431  0.8276  0.3932
14756TIP3    H165683   1.326   2.863   3.129 -0.4008 -0.3215 -0.2276
14756TIP3    H265684   1.442   2.954   3.166 -0.9970 -0.8348  3.3312
14757TIP3   OH265685   5.335   3.599  14.372 -0.3558  0.4983 -0.3283
14757TIP3    H165686   5.262   3.581  14.432  0.1640  0.6988  0.3694
14757TIP3    H265687   5.401   3.643  14.426  1.1430 -1.4728 -0.4431
14758TIP3   OH265688   1.186   5.738  15.667 -0.7077  0.1703  0.4277
14758TIP3    H165689   1.182   5.777  15.580  0.7990 -1.3828 -0.3969
14758TIP3    H265690   1.255   5.787  15.712 -2.8239  2.3350  1.5633
14759TIP3   OH265691   1.299   2.439  11.481  0.3814 -0.0950 -0.4906
14759TIP3    H165692   1.299   2.532  11.459 -0.3715  0.4069  1.4674
14759TIP3    H265693   1.346   2.433  11.564 -2.2669 -0.9509  1.0977
14760TIP3   OH265694   0.769   1.448  10.967 -0.0344 -0.2386  0.3482
14760TIP3    H165695   0.818   1.487  10.895 -2.1204  1.5792 -0.2269
14760TIP3    H265696   0.784   1.507  11.041 -1.5251  0.5224  0.0755
14761TIP3   OH265697   6.436   5.896  13.733  0.0135 -0.2559 -0.1962
14761TIP3    H165698   6.516   5.904  13.786  0.8850 -0.9428 -1.3648
14761TIP3    H265699   6.464   5.916  13.644 -1.3941  0.6817 -0.4564
14762TIP3   OH265700   0.581   5.731  15.281 -0.4859  0.1205 -0.4458
14762TIP3    H165701   0.648   5.664  15.275 -0.0670  0.5521 -0.6757
14762TIP3    H265702   0.594   5.771  15.367 -0.6996 -0.0534 -0.3311
14763TIP3   OH265703   2.962   0.550  13.537  0.2025  0.2666  0.1660
14763TIP3    H165704   2.892   0.513  13.591 -0.8090  0.6114 -0.8761
14763TIP3    H265705   3.020   0.593  13.600 -1.6339  1.7846  0.9441
14764TIP3   OH265706   4.898   3.684  11.040 -0.5378  0.0544  0.4339
14764TIP3    H165707   4.911   3.774  11.070 -1.4157  0.1619  0.5234
14764TIP3    H265708   4.856   3.693  10.955  0.1193 -0.2765  0.0622
14765TIP3   OH265709   3.032   5.518   1.819  0.2145  0.7943  0.4042
14765TIP3    H165710   3.084   5.567   1.755  2.0226  0.0620  1.2530
14765TIP3    H265711   2.966   5.473   1.767 -0.9860  3.4128 -0.4906
14766TIP3   OH265712   2.279   4.612  12.474  0.5078 -0.1535 -1.0302
14766TIP3    H165713   2.319   4.688  12.517 -0.4336 -0.2275  0.0194
14766TIP3    H265714   2.275   4.637  12.381 -0.5181  1.4397 -0.6052
14767TIP3   OH265715   0.881   0.744   0.599 -0.7377 -0.0962  0.1814
14767TIP3    H165716   0.902   0.783   0.683 -2.7587  0.8770  0.2820
14767TIP3    H265717   0.821   0.673   0.619  0.0829 -0.9623 -0.3235
14768TIP3   OH265718   2.091   5.653   2.657 -0.3100  0.0284  0.0410
14768TIP3    H165719   2.102   5.729   2.600  1.9739  0.7722  1.3368
14768TIP3    H265720   2.150   5.586   2.620 -2.2333 -1.1654 -1.0383
14769TIP3   OH265721   0.143   5.765  12.665  0.2310 -0.4172  0.0353
14769TIP3    H165722   0.134   5.677  12.700 -0.3526 -0.6984 -0.7761
14769TIP3    H265723   0.052   5.796  12.654  0.4285  0.3195  0.3911
14770TIP3   OH265724   1.036   0.906   0.814 -0.1760 -0.1535  0.1099
14770TIP3    H165725   1.016   0.975   0.878  1.8174  0.8311 -0.2615
14770TIP3    H265726   1.080   0.838   0.865 -0.4490 -0.3067  0.1427
14771TIP3   OH265727   1.798   5.095  15.438  0.1816 -0.6644  0.4174
14771TIP3    H165728   1.836   5.166  15.490  0.7846 -0.6863  0.0115
14771TIP3    H265729   1.866   5.029  15.435  0.0273 -0.8019 -0.1312
14772TIP3   OH265730   5.914   0.702  14.153  0.2200  0.2410  0.3017
14772TIP3    H165731   5.836   0.744  14.188 -0.7993 -1.3199 -0.0030
14772TIP3    H265732   5.986   0.756  14.185 -0.9852  1.9775  0.2226
14773TIP3   OH265733   4.567   0.774   4.877 -0.0839  0.1309 -0.4866
14773TIP3    H165734   4.492   0.818   4.836  0.2331 -0.2041 -1.4386
14773TIP3    H265735   4.574   0.691   4.831 -1.2735 -1.4135  1.9326
14774TIP3   OH265736   5.401   6.065  13.180  0.4943 -0.1576 -0.0926
14774TIP3    H165737   5.417   6.060  13.274 -0.2693 -0.2130  0.0466
14774TIP3    H265738   5.437   6.150  13.154 -1.0229  0.7552  0.6323
14775TIP3   OH265739   4.007   5.762   2.051 -0.5165  0.0959  0.0600
14775TIP3    H165740   4.068   5.753   2.124 -1.0352 -0.0508  0.4833
14775TIP3    H265741   4.026   5.688   1.994  1.6851  1.5927 -1.3362
14776TIP3   OH265742   2.591   4.330  12.247 -0.3662 -0.2807 -0.2165
14776TIP3    H165743   2.531   4.257  12.233 -0.5937 -0.2450  0.5288
14776TIP3    H265744   2.678   4.290  12.242 -0.5044 -0.8164  1.2525
14777TIP3   OH265745   5.415   6.171   0.663 -0.4110  0.1379  0.2763
14777TIP3    H165746   5.452   6.257   0.645  1.4741 -0.5644  0.4662
14777TIP3    H265747   5.335   6.167   0.611  0.2202  1.4592 -0.8540
14778TIP3   OH265748   2.909   2.906   2.099 -0.5184 -0.4057  0.0689
14778TIP3    H165749   2.944   2.993   2.116 -1.4542  0.0592 -0.3382
14778TIP3    H265750   2.985   2.854   2.073 -0.2206  0.7496 -1.4828
14779TIP3   OH265751   5.694   5.800  15.354  0.0254 -0.2002  0.9166
14779TIP3    H165752   5.606   5.828  15.382 -0.6946 -2.0472  0.6119
14779TIP3    H265753   5.743   5.789  15.435 -0.2291  0.1910  1.1262
14780TIP3   OH265754   4.957   3.124  16.143  0.2211  0.5358 -0.0083
14780TIP3    H165755   4.875   3.124  16.094  0.9440  1.4337 -1.2624
14780TIP3    H265756   4.931   3.145  16.233 -0.7732  2.6619 -0.7195
14781TIP3   OH265757   1.042   6.674  13.287 -0.3781  0.2542 -0.0257
14781TIP3    H165758   1.030   6.650  13.195 -1.5222  0.1754  0.1333
14781TIP3    H265759   1.137   6.686  13.296  0.0418 -1.9778 -0.6804
14782TIP3   OH265760   0.568   5.610   3.188  0.0871  0.5282 -0.0596
14782TIP3    H165761   0.551   5.689   3.241  0.2461 -0.0436  0.8699
14782TIP3    H265762   0.488   5.558   3.197 -0.3538  0.9452 -1.3660
14783TIP3   OH265763   2.040   0.136  12.139  0.2275  0.0675  0.3389
14783TIP3    H165764   2.120   0.155  12.188  0.2820  0.2803  0.1670
14783TIP3    H265765   2.051   0.046  12.108 -0.3096 -0.5031  1.7036
14784TIP3   OH265766   5.088   4.333   5.395  0.0249  0.5213 -0.4933
14784TIP3    H165767   5.122   4.407   5.445 -2.8512  0.9214  1.0831
14784TIP3    H265768   5.133   4.257   5.430 -0.2128  1.0774  1.1039
14785TIP3   OH265769   0.160   6.301  13.773  0.4631 -0.3830  0.2180
14785TIP3    H165770   0.170   6.213  13.737  1.6597  0.4863 -1.7518
14785TIP3    H265771   0.073   6.330  13.743  1.3209  0.2144 -1.8933
14786TIP3   OH265772   3.498   3.276   4.231  0.0936  0.4087  0.7339
14786TIP3    H165773   3.592   3.268   4.241 -0.0868 -0.5724  1.7593
14786TIP3    H265774   3.473   3.202   4.176  0.0141  1.1834 -0.3189
14787TIP3   OH265775   6.584   3.645  12.727 -0.1328 -0.4218  0.0685
14787TIP3    H165776   6.584   3.594  12.646 -1.7319  0.6440 -0.6505
14787TIP3    H265777   6.549   3.730  12.702  0.0141  0.1706  1.7484
14788TIP3   OH265778   1.691   0.308   4.044 -0.0523  0.3420  0.2864
14788TIP3    H165779   1.690   0.282   3.952  1.6500  0.5052  0.2060
14788TIP3    H265780   1.598   0.317   4.067 -0.5420  2.7276 -2.0868
14789TIP3   OH265781   5.589   5.979   5.823  0.2554  0.1070  0.1941
14789TIP3    H165782   5.653   6.050   5.824  1.0546 -0.5982  1.5422
14789TIP3    H265783   5.640   5.902   5.797 -0.2434 -0.2947  0.4047
14790TIP3   OH265784   1.332   0.104  10.758  0.0066  0.4292  0.2803
14790TIP3    H165785   1.353   0.158  10.681 -1.0470  1.8336  0.9290
14790TIP3    H265786   1.417   0.078  10.793  0.5351  1.1555 -0.4214
14791TIP3   OH265787   1.157   4.303   4.082  0.4709 -0.4899  1.0415
14791TIP3    H165788   1.213   4.225   4.087  3.1241  1.1290 -1.0551
14791TIP3    H265789   1.117   4.298   3.996  0.9222  0.5711  0.7547
14792TIP3   OH265790   4.981   0.802   0.115 -0.1690  0.4137 -0.5919
14792TIP3    H165791   5.033   0.867   0.068  1.7280 -0.7264 -0.1956
14792TIP3    H265792   5.034   0.722   0.113 -3.4693 -2.0583 -3.3569
14793TIP3   OH265793   3.479   4.346  12.238  0.7450  0.9071  0.4019
14793TIP3    H165794   3.437   4.419  12.282 -1.4080  0.6635 -1.0670
14793TIP3    H265795   3.544   4.386  12.180 -0.5747  1.7276 -0.5577
14794TIP3   OH265796   5.932   2.257   1.544  0.1502  0.1280  0.2281
14794TIP3    H165797   5.993   2.232   1.613  1.3669 -2.3679 -1.5520
14794TIP3    H265798   5.871   2.183   1.538  0.9253 -0.4384 -2.1598
14795TIP3   OH265799   5.577   0.523  13.383 -0.2236  0.3355 -0.2082
14795TIP3    H165800   5.534   0.485  13.306  0.3947  0.8532 -0.8298
14795TIP3    H265801   5.510   0.577  13.424  0.2701  2.6298 -2.2134
14796TIP3   OH265802   4.006   5.841  16.165 -0.2771 -0.7408  1.0679
14796TIP3    H165803   4.100   5.855  16.176 -0.0974 -0.3009 -0.6911
14796TIP3    H265804   3.995   5.823  16.071 -1.7421 -2.6231  1.5305
14797TIP3   OH265805   3.955   0.901   4.401  0.0146 -0.1309  0.9417
14797TIP3    H165806   3.892   0.830   4.410 -0.5348  0.5574  2.8612
14797TIP3    H265807   4.020   0.867   4.339 -0.9256 -1.7799  0.7972
14798TIP3   OH265808   6.616   0.345   1.472 -0.1651  0.6916 -0.3986
14798TIP3    H165809   6.653   0.283   1.409 -0.4923 -0.3145  0.3723
14798TIP3    H265810   6.691   0.372   1.525 -0.5044 -1.8141  1.5628
14799TIP3   OH265811   2.150   6.563   2.293 -0.3483  0.0161 -0.4554
14799TIP3    H165812   2.188   6.547   2.379 -1.7855 -0.4841  0.1146
14799TIP3    H265813   2.223   6.593   2.239  1.0332 -1.8233  0.3254
14800TIP3   OH265814   4.874   0.368   5.563  0.0515  0.4458 -0.3033
14800TIP3    H165815   4.969   0.357   5.561  0.1193  0.9640 -0.1084
14800TIP3    H265816   4.846   0.323   5.643 -0.0278 -0.8183 -1.0151
14801TIP3   OH265817   2.307   5.215   5.221  0.2684 -0.1490  0.1182
14801TIP3    H165818   2.296   5.236   5.313  0.6019 -0.3266  0.1980
14801TIP3    H265819   2.220   5.232   5.182  0.1707  0.0716  0.4308
14802TIP3   OH265820   0.604   0.574  15.118 -0.2796 -0.1160 -0.2253
14802TIP3    H165821   0.543   0.505  15.143 -0.3202  0.3185  0.9367
14802TIP3    H265822   0.688   0.528  15.106 -0.6130 -0.5692 -0.9124
14803TIP3   OH265823   2.562   2.824  13.885  0.1887  1.0008  0.0340
14803TIP3    H165824   2.650   2.798  13.913 -0.4911 -0.2855  1.1277
14803TIP3    H265825   2.539   2.760  13.818  0.0594  1.3029 -0.2117
14804TIP3   OH265826   0.102   1.598   3.439  0.5122  0.3597  0.1905
14804TIP3    H165827   0.039   1.622   3.372  0.0556 -1.2016  0.0235
14804TIP3    H265828   0.114   1.503   3.428  1.0207  0.2087  1.7926
14805TIP3   OH265829   5.747   4.488  10.784 -0.0963  0.8310  0.4759
14805TIP3    H165830   5.735   4.547  10.709  3.0879 -0.1173 -0.9585
14805TIP3    H265831   5.837   4.502  10.812  0.0803 -1.7375  1.5232
14806TIP3   OH265832   2.919   3.508   4.474 -0.1555  0.1534  0.2068
14806TIP3    H165833   2.973   3.587   4.461  0.3657 -0.5223 -2.3521
14806TIP3    H265834   2.835   3.529   4.433 -0.3035 -0.3304  0.2569
14807TIP3   OH265835   3.274   6.614   2.494  0.5650 -0.3529  0.1452
14807TIP3    H165836   3.250   6.646   2.407  0.0912  0.9994  0.7446
14807TIP3    H265837   3.222   6.535   2.506 -1.0432  0.6564  0.0533
14808TIP3   OH265838   5.110   4.283   4.327  0.2175  0.4371  0.3242
14808TIP3    H165839   5.099   4.376   4.349 -0.2436  0.5216 -0.2595
14808TIP3    H265840   5.198   4.278   4.289  0.0258  0.7351 -0.1655
14809TIP3   OH265841   0.392   4.527   3.077 -0.0407 -0.0200  0.0148
14809TIP3    H165842   0.402   4.573   2.994 -0.8055  1.3787  0.6596
14809TIP3    H265843   0.353   4.443   3.054  0.7459 -0.0811 -1.1337
14810TIP3   OH265844   2.312   6.279   2.606 -0.5431 -0.3455 -0.2595
14810TIP3    H165845   2.220   6.273   2.579 -0.5603  0.6707 -0.4591
14810TIP3    H265846   2.349   6.194   2.583 -1.3669 -0.6633 -0.4441
14811TIP3   OH265847   5.571   6.061   3.292 -0.4774  0.0375  0.2971
14811TIP3    H165848   5.509   5.994   3.320 -0.2502  0.1232  1.0126
14811TIP3    H265849   5.610   6.094   3.373  1.1489 -0.6195 -0.1885
14812TIP3   OH265850   5.373   6.001   3.573  0.4245  0.1360  0.1781
14812TIP3    H165851   5.323   5.982   3.652  0.4771 -0.5588  0.0490
14812TIP3    H265852   5.441   6.062   3.601 -0.5316  1.1615  0.3439
14813TIP3   OH265853   2.971   0.884  11.347 -0.0616 -0.5458 -0.1848
14813TIP3    H165854   2.919   0.815  11.306 -0.2448 -0.9243  0.6625
14813TIP3    H265855   2.945   0.883  11.439  0.7090 -0.0628  0.0526
14814TIP3   OH265856   1.252   2.961  11.409  0.0904 -0.0382 -0.4132
14814TIP3    H165857   1.305   2.966  11.329  0.3951 -1.7422 -0.3717
14814TIP3    H265858   1.208   3.045  11.414  1.2649  0.6847 -1.5392
14815TIP3   OH265859   5.173   0.010  12.189 -0.0049 -0.2482 -0.3790
14815TIP3    H165860   5.260  -0.023  12.169 -0.1228 -1.5137  1.0689
14815TIP3    H265861   5.189   0.088  12.244  0.2434  1.7118 -3.0393
14816TIP3   OH265862   1.577   4.315  14.655  0.2160  0.4330 -0.2862
14816TIP3    H165863   1.586   4.343  14.746  0.6636 -0.2667 -0.1120
14816TIP3    H265864   1.509   4.372  14.619 -0.0509  0.6287  0.5166
14817TIP3   OH265865   2.694   3.877  12.707  0.0899 -0.6466 -0.1126
14817TIP3    H165866   2.628   3.896  12.640 -1.3934 -1.0056  1.1761
14817TIP3    H265867   2.685   3.783  12.723 -0.3558 -0.3785  1.3273
14818TIP3   OH265868   4.103   4.845  15.663 -1.3396  0.3094  0.8197
14818TIP3    H165869   4.045   4.784  15.707 -0.6113 -0.1620  1.1487
14818TIP3    H265870   4.191   4.809  15.677 -0.9084  1.3650  0.9317
14819TIP3   OH265871   6.681   0.065   0.286 -0.4610 -0.7458  0.0247
14819TIP3    H165872   6.636  -0.009   0.245  1.8824 -1.9283 -0.5731
14819TIP3    H265873   6.670   0.051   0.380 -0.8416 -1.3153 -0.1007
14820TIP3   OH265874   3.659   1.621   0.176  0.6321  0.5472 -0.1355
14820TIP3    H165875   3.633   1.653   0.262  0.5340  2.8597 -0.9742
14820TIP3    H265876   3.751   1.597   0.186  0.4985  0.3513  0.7093
14821TIP3   OH265877   3.905   0.045  11.345 -0.1196  0.8304  0.7063
14821TIP3    H165878   3.882   0.131  11.381 -0.6255  0.4052  1.4211
14821TIP3    H265879   3.980   0.016  11.396 -1.0172  0.0985  1.6604
14822TIP3   OH265880   1.605   6.168   1.689 -0.0243 -0.0505  0.4121
14822TIP3    H165881   1.621   6.083   1.730  1.2105 -0.8123 -1.4802
14822TIP3    H265882   1.559   6.147   1.608  0.3075  1.0704 -0.0831
14823TIP3   OH265883   6.231   3.702  14.347 -0.3951 -0.4721 -0.9834
14823TIP3    H165884   6.151   3.742  14.381  0.6201  2.3597 -1.6288
14823TIP3    H265885   6.290   3.696  14.422 -0.3092 -0.0701 -1.0177
14824TIP3   OH265886   4.083   5.015   4.440 -0.4173 -0.2793 -0.3898
14824TIP3    H165887   4.007   5.041   4.493 -0.7148 -1.6137 -0.1165
14824TIP3    H265888   4.137   4.963   4.500  1.3507  1.6451 -0.2300
14825TIP3   OH265889   1.854   3.278  11.199  0.8055 -0.3010  0.1397
14825TIP3    H165890   1.779   3.219  11.200  0.2762  0.2447 -2.3518
14825TIP3    H265891   1.913   3.241  11.133  1.6632  0.5680  0.3985
14826TIP3   OH265892   4.586   5.560  11.825  0.1335  0.0135  0.0357
14826TIP3    H165893   4.511   5.601  11.866 -0.7358 -1.3127 -0.1585
14826TIP3    H265894   4.571   5.570  11.731  0.0206 -0.5584 -0.0089
14827TIP3   OH265895   3.691   4.391  13.693  0.1827  0.1393  0.8163
14827TIP3    H165896   3.621   4.347  13.645  0.4488 -0.5306  1.0254
14827TIP3    H265897   3.680   4.484  13.672 -0.1120 -0.0725 -0.0025
14828TIP3   OH265898   0.458   3.532   0.713 -0.2769  0.6508  0.0951
14828TIP3    H165899   0.547   3.506   0.739 -0.6516  0.2613  0.9972
14828TIP3    H265900   0.472   3.610   0.658  0.6044  0.7827  0.4835
14829TIP3   OH265901   6.144   4.706   2.226  0.6859 -0.1415 -0.0490
14829TIP3    H165902   6.237   4.712   2.206  0.7221 -1.6523 -0.4901
14829TIP3    H265903   6.133   4.617   2.259 -0.5296  0.1819  0.4687
14830TIP3   OH265904   3.348   5.320  11.895  0.0834  0.3675  0.4862
14830TIP3    H165905   3.294   5.280  11.827  0.0391  0.8614  0.2229
14830TIP3    H265906   3.296   5.311  11.975 -0.8209  1.6337  0.0852
14831TIP3   OH265907   5.624   3.813  14.067 -0.6640 -0.0484  0.1922
14831TIP3    H165908   5.685   3.884  14.087  1.0747 -2.2207  3.3605
14831TIP3    H265909   5.613   3.818  13.972  5.0644  0.1055 -0.8056
14832TIP3   OH265910   1.084   1.083   0.618  0.3414  0.4457 -0.0146
14832TIP3    H165911   1.040   1.166   0.638  1.5689  0.6667  2.0496
14832TIP3    H265912   1.045   1.020   0.679 -0.6724 -0.5947 -1.6459
14833TIP3   OH265913   4.554   1.644   2.882  0.0566  0.2442  0.3144
14833TIP3    H165914   4.500   1.718   2.855 -2.4717 -1.3678  0.6745
14833TIP3    H265915   4.556   1.585   2.806  0.0828 -0.3973  0.8017
14834TIP3   OH265916   4.356   2.346  14.767  0.2097 -0.3858 -0.2144
14834TIP3    H165917   4.448   2.333  14.742  0.3572  0.1149  0.0519
14834TIP3    H265918   4.358   2.419  14.829 -0.5492  0.7533 -1.4729
14835TIP3   OH265919   5.090   3.761   3.185  0.2819 -0.4674  0.0776
14835TIP3    H165920   5.005   3.806   3.191  0.0919 -0.9477  1.2380
14835TIP3    H265921   5.146   3.823   3.139 -0.0730  0.8627  1.3449
14836TIP3   OH265922   2.096   3.563   3.134  0.5302  0.0805 -0.5094
14836TIP3    H165923   2.083   3.468   3.130 -0.8596  0.2361 -0.0047
14836TIP3    H265924   2.101   3.583   3.228  0.6885  0.5357 -0.6094
14837TIP3   OH265925   3.491   5.886   5.113 -0.0535  0.4905 -0.4837
14837TIP3    H165926   3.481   5.872   5.019 -0.0381  1.3528 -0.6220
14837TIP3    H265927   3.402   5.884   5.148 -0.0906  0.5637 -0.5752
14838TIP3   OH265928   0.630   1.004   3.658  0.8587  0.1562  0.0281
14838TIP3    H165929   0.631   1.087   3.705 -0.9131 -0.1151  0.6541
14838TIP3    H265930   0.598   0.941   3.723  1.5583 -0.8962 -0.6197
14839TIP3   OH265931   2.156   4.290  15.683 -0.5564 -0.2255 -0.2439
14839TIP3    H165932   2.225   4.357  15.685 -1.3006  0.5635  1.4379
14839TIP3    H265933   2.201   4.208  15.704  0.0417  0.1143 -0.1656
14840TIP3   OH265934   1.520   4.121  13.688 -0.2544 -0.0104  0.5599
14840TIP3    H165935   1.547   4.187  13.752 -0.2824  1.3747 -0.7955
14840TIP3    H265936   1.425   4.128  13.684 -0.0934  2.2843 -1.9473
14841TIP3   OH265937   3.734   4.090   2.723  0.2457 -0.7659  0.0709
14841TIP3    H165938   3.734   4.161   2.660 -0.0770 -1.0343 -0.2324
14841TIP3    H265939   3.794   4.025   2.686  0.4671 -0.6955  0.3014
14842TIP3   OH265940   0.237   2.009  15.507 -0.2206  0.1511  0.1584
14842TIP3    H165941   0.145   2.028  15.522 -0.2989 -1.2829  1.9179
14842TIP3    H265942   0.241   1.975  15.418 -1.2972  0.7424 -0.1303
14843TIP3   OH265943   1.814   3.477  13.497 -0.1151  0.0447  0.0611
14843TIP3    H165944   1.808   3.416  13.423 -1.3508  0.2476 -0.0259
14843TIP3    H265945   1.772   3.556  13.465 -0.0758  0.3535  0.7735
14844TIP3   OH265946   0.461   1.373   0.458  0.4593  0.3102  0.4009
14844TIP3    H165947   0.473   1.358   0.364 -1.2849 -0.2018  0.2225
14844TIP3    H265948   0.488   1.292   0.499  0.0929  0.0988  0.2311
14845TIP3   OH265949   1.279   4.082  14.126  0.5093  0.2982  0.0218
14845TIP3    H165950   1.339   4.036  14.185 -1.1264 -2.3372 -0.2170
14845TIP3    H265951   1.195   4.084  14.173  0.1285  1.7159 -0.6499
14846TIP3   OH265952   2.464   0.796   1.539 -0.2276 -0.2127 -0.4581
14846TIP3    H165953   2.373   0.825   1.548 -0.9007 -2.2189 -0.3577
14846TIP3    H265954   2.467   0.712   1.584  1.6027 -0.3753 -0.7954
14847TIP3   OH265955   0.736   3.544   5.321  0.0236  0.2553 -0.2161
14847TIP3    H165956   0.702   3.563   5.409  1.1191  1.0905  0.0619
14847TIP3    H265957   0.800   3.614   5.305  0.1298 -0.1129 -1.5212
14848TIP3   OH265958   3.755   3.292   1.617 -0.3037 -0.1380 -0.3829
14848TIP3    H165959   3.819   3.352   1.579 -0.5448  0.0895 -0.4319
14848TIP3    H265960   3.692   3.349   1.661 -1.2873 -0.2666 -1.5733
14849TIP3   OH265961   4.904   2.276  12.587 -0.5705 -0.2539 -0.1579
14849TIP3    H165962   4.945   2.325  12.658 -0.3217  1.1603 -1.2273
14849TIP3    H265963   4.825   2.325  12.567  1.5902  2.2067 -3.8858
14850TIP3   OH265964   5.056   0.666   2.073 -0.1502  0.1064 -0.2128
14850TIP3    H165965   5.031   0.584   2.116 -0.9198  0.9457  1.0265
14850TIP3    H265966   4.976   0.717   2.071  0.3748  0.9222 -0.7356
14851TIP3   OH265967   1.504   3.262  13.778  0.0358  0.3153  0.0082
14851TIP3    H165968   1.570   3.256  13.847 -0.3207 -0.4844  0.2839
14851TIP3    H265969   1.421   3.256  13.824 -0.2274  0.6696 -0.4095
14852TIP3   OH265970   2.208   3.342   5.752 -0.3913 -0.3565 -0.2165
14852TIP3    H165971   2.227   3.252   5.779 -0.2048  0.1398  1.3542
14852TIP3    H265972   2.236   3.345   5.660 -0.1675 -1.8224 -0.2213
14853TIP3   OH265973   1.032   5.277  12.775 -0.5200 -0.2721  0.1292
14853TIP3    H165974   1.107   5.282  12.716 -0.0988 -0.5902  0.6236
14853TIP3    H265975   0.987   5.361  12.765 -0.2004 -0.1533 -0.3076
14854TIP3   OH265976   4.585   6.510   5.523  0.1651 -0.5821  0.0764
14854TIP3    H165977   4.532   6.589   5.536  0.3706 -0.1255 -1.6179
14854TIP3    H265978   4.568   6.457   5.601 -0.5515  0.8035  0.9115
14855TIP3   OH265979   5.997   1.473  11.397  0.6318  0.0416 -0.2767
14855TIP3    H165980   5.964   1.512  11.477 -1.7761  0.2489 -1.2848
14855TIP3    H265981   6.051   1.541  11.357  0.4530  0.5569  0.3480
14856TIP3   OH265982   3.146   4.143  10.641  0.3787  0.1578  0.3076
14856TIP3    H165983   3.078   4.157  10.706  0.9442 -0.5873  1.0758
14856TIP3    H265984   3.194   4.066  10.671  1.6557  0.7434 -0.1194
14857TIP3   OH265985   3.600   1.322  11.717 -1.0960  0.0707 -0.0900
14857TIP3    H165986   3.637   1.405  11.747  1.3434 -1.0055  0.0564
14857TIP3    H265987   3.633   1.311  11.628 -0.0595 -1.4503  0.4427
14858TIP3   OH265988   5.512   6.433  12.754 -0.4636 -0.4745 -0.2893
14858TIP3    H165989   5.516   6.458  12.846  0.4971  0.8417 -0.6538
14858TIP3    H265990   5.421   6.407  12.740 -0.1375 -2.9094  1.5417
14859TIP3   OH265991   1.254   1.198  12.873  0.5878  0.4341 -0.4629
14859TIP3    H165992   1.225   1.181  12.962  0.8819 -1.3258 -0.6657
14859TIP3    H265993   1.299   1.283  12.878 -0.8499  1.1662  0.6891
14860TIP3   OH265994   3.665   1.955   1.039  0.0943 -0.4641 -0.2039
14860TIP3    H165995   3.696   1.903   1.113 -0.8021  0.0374  0.5477
14860TIP3    H265996   3.733   2.021   1.025 -0.3647  0.3102  1.0975
14861TIP3   OH265997   0.904   3.301  12.083  0.0459  0.5554  0.2453
14861TIP3    H165998   0.993   3.286  12.114 -0.1953 -1.8907 -0.0564
14861TIP3    H265999   0.849   3.295  12.161 -0.0759 -0.4228  0.0902
14862TIP3   OH266000   5.568   1.798  14.512 -0.4303 -0.1104  0.4615
14862TIP3    H166001   5.655   1.767  14.489  0.2347  0.0933  2.5324
14862TIP3    H266002   5.529   1.728  14.564 -1.6411 -0.3103 -0.6491
14863TIP3   OH266003   1.841   3.438  13.792  0.2698 -0.9754  0.0944
14863TIP3    H166004   1.929   3.399  13.792  1.4888  1.5262  1.6704
14863TIP3    H266005   1.825   3.460  13.701  2.6327  1.1544  0.0717
14864TIP3   OH266006   4.475   1.059  14.914  0.1238  0.3668  0.1080
14864TIP3    H166007   4.396   1.108  14.891  0.6783  1.2656  0.0386
14864TIP3    H266008   4.493   1.004  14.838  1.1708  2.2967 -1.1215
14865TIP3   OH266009   5.288   1.397   1.878 -0.3775  0.0730 -0.2777
14865TIP3    H166010   5.241   1.443   1.946 -0.3551 -0.5480  0.1666
14865TIP3    H266011   5.222   1.344   1.833 -0.6154  1.3819 -1.5330
14866TIP3   OH266012   5.598   2.073   2.015  0.3947 -0.1507  0.1713
14866TIP3    H166013   5.591   1.998   2.073  0.6539  0.2060  0.6749
14866TIP3    H266014   5.531   2.058   1.948 -1.0263  0.1936  1.4423
14867TIP3   OH266015   3.564   6.624   2.550 -0.1943 -0.0861  0.3168
14867TIP3    H166016   3.567   6.604   2.644  0.1861 -2.1295 -0.0893
14867TIP3    H266017   3.473   6.608   2.525  0.0988 -1.3600  0.0011
14868TIP3   OH266018   4.062   4.176   4.781  0.4520  0.3047 -0.0270
14868TIP3    H166019   4.111   4.100   4.814 -1.2157 -0.9903 -0.3784
14868TIP3    H266020   4.017   4.143   4.703 -0.9523  1.4229  0.2711
14869TIP3   OH266021   2.059   6.603  14.501  0.3611 -0.1260  0.8434
14869TIP3    H166022   2.151   6.579  14.511  1.2304  1.7092 -1.5604
14869TIP3    H266023   2.061   6.698  14.486 -1.7578 -0.2621 -0.7293
14870TIP3   OH266024   3.422   2.820  11.310 -0.2986 -0.7584  0.6055
14870TIP3    H166025   3.378   2.756  11.365 -0.0389 -1.7935 -0.3681
14870TIP3    H266026   3.386   2.806  11.223 -0.0681  0.2749  0.3214
14871TIP3   OH266027   0.153   2.589  14.312  0.3628  0.5126 -0.2526
14871TIP3    H166028   0.167   2.647  14.238  0.9920  0.2902 -0.3127
14871TIP3    H266029   0.067   2.615  14.347 -1.8787 -1.8829 -3.3626
14872TIP3   OH266030   1.914   1.602  14.733 -0.2889  0.0086 -0.0048
14872TIP3    H166031   1.890   1.568  14.819 -0.6742  2.7438  1.0896
14872TIP3    H266032   1.994   1.652  14.748 -0.0886  0.1399 -1.3362
14873TIP3   OH266033   3.812   1.625  12.796  0.3793  0.8965 -0.0906
14873TIP3    H166034   3.873   1.698  12.794  0.9865  0.4314  1.0338
14873TIP3    H266035   3.772   1.625  12.709 -0.2694  3.0834  0.1617
14874TIP3   OH266036   0.312   2.882   0.675 -0.1659 -0.3084 -0.2217
14874TIP3    H166037   0.317   2.925   0.761  0.6539 -0.8888  0.0362
14874TIP3    H266038   0.219   2.877   0.656 -0.4561 -1.4029  1.2830
14875TIP3   OH266039   5.524   3.464  12.894 -0.1051 -0.1241 -0.1053
14875TIP3    H166040   5.470   3.469  12.815  0.3523 -1.8936 -0.5594
14875TIP3    H266041   5.592   3.530  12.881 -0.5742  0.2450 -0.7602
14876TIP3   OH266042   4.147   5.310   0.218 -0.1887  0.3355  0.4048
14876TIP3    H166043   4.091   5.387   0.229  0.9647  1.2360  0.2256
14876TIP3    H266044   4.189   5.298   0.303  0.6513  0.7564  0.0676
14877TIP3   OH266045   5.911   0.491   3.034  0.1004 -1.0774  0.4153
14877TIP3    H166046   5.817   0.488   3.016 -0.1632 -2.2883  1.8158
14877TIP3    H266047   5.949   0.524   2.953 -1.6470  0.8632  0.3062
14878TIP3   OH266048   3.850   1.192   4.997 -0.3800 -0.4118  0.2154
14878TIP3    H166049   3.857   1.243   5.078 -0.6411  0.0678 -0.0560
14878TIP3    H266050   3.886   1.106   5.019 -2.5983 -1.0950  1.5149
14879TIP3   OH266051   3.368   4.886  10.768 -0.6250 -0.1447  0.2475
14879TIP3    H166052   3.301   4.822  10.744  0.8533 -1.8059  0.3577
14879TIP3    H266053   3.323   4.971  10.763 -2.4250 -1.0991 -0.7150
14880TIP3   OH266054   5.527   6.227   4.654 -0.1127  0.2879  0.0297
14880TIP3    H166055   5.622   6.232   4.644 -0.2527  2.1483 -0.7664
14880TIP3    H266056   5.514   6.184   4.739  1.4139 -0.5554 -0.1355
14881TIP3   OH266057   6.074   3.840   0.577  0.0899  0.4405 -0.3564
14881TIP3    H166058   6.102   3.759   0.533 -0.4938 -1.1094  1.9446
14881TIP3    H266059   5.981   3.847   0.556 -0.8497 -1.6917  2.3527
14882TIP3   OH266060   5.282   5.457   3.258  0.4472 -0.5488 -0.0202
14882TIP3    H166061   5.223   5.492   3.192  0.7887  2.4886  1.1449
14882TIP3    H266062   5.242   5.480   3.341  0.9502 -2.6731  0.8678
14883TIP3   OH266063   6.153   5.660   6.201  0.0322  0.7251  0.2119
14883TIP3    H166064   6.184   5.735   6.151 -0.9668  1.1628  0.2374
14883TIP3    H266065   6.158   5.586   6.140 -0.4655  1.1087 -0.2975
14884TIP3   OH266066   3.177   3.569  11.547  0.3108 -0.1734  0.3638
14884TIP3    H166067   3.225   3.565  11.630  1.0502 -1.6209 -0.0921
14884TIP3    H266068   3.243   3.559  11.479 -0.2570  1.2424 -0.4454
14885TIP3   OH266069   6.026   1.194   3.379 -0.1373  0.1576  0.1296
14885TIP3    H166070   6.112   1.169   3.344  1.0658  1.3610  2.0061
14885TIP3    H266071   5.976   1.223   3.303  1.4264  0.2120 -0.9173
14886TIP3   OH266072   4.905   6.301   5.369 -0.5449 -0.0560 -0.4844
14886TIP3    H166073   4.908   6.280   5.275  0.0313  1.0245 -0.7305
14886TIP3    H266074   4.891   6.396   5.371 -0.4888 -0.0661  0.5267
14887TIP3   OH266075   3.065   6.546  16.043 -0.2647 -0.3511  0.3895
14887TIP3    H166076   3.018   6.625  16.070 -1.9810 -0.8487 -0.9534
14887TIP3    H266077   3.046   6.482  16.113 -2.4119 -0.8088 -0.5343
14888TIP3   OH266078   3.740   6.747  13.680  0.6137 -0.5981 -0.3835
14888TIP3    H166079   3.666   6.800  13.709  1.0446 -0.7378  1.1045
14888TIP3    H266080   3.799   6.808  13.636 -0.4956 -0.5408 -1.8376
14889TIP3   OH266081   0.932   4.710   1.824  0.0916  0.1325  0.1305
14889TIP3    H166082   0.925   4.779   1.758  1.8254  0.6194  0.3820
14889TIP3    H266083   0.870   4.737   1.892 -0.9487  0.1797 -0.8049
14890TIP3   OH266084   4.227   2.521   1.256 -0.5235  0.2152  0.2091
14890TIP3    H166085   4.276   2.442   1.233 -2.0597 -0.9884  0.9003
14890TIP3    H266086   4.261   2.589   1.198  0.7376 -0.9764 -0.4939
14891TIP3   OH266087   4.211   1.555  11.287  0.8404  0.7993 -0.2297
14891TIP3    H166088   4.148   1.490  11.257  0.5458  0.0185  1.9086
14891TIP3    H266089   4.288   1.542  11.231  0.2727 -0.4057 -0.7533
14892TIP3   OH266090   3.090   3.553   0.989  0.0315  0.0594  0.3046
14892TIP3    H166091   3.002   3.589   0.994  0.3718  0.9938 -0.2342
14892TIP3    H266092   3.078   3.463   0.958 -0.6298  0.6379 -1.1645
14893TIP3   OH266093   0.696   5.892  10.633 -0.1923  0.6647 -0.0218
14893TIP3    H166094   0.699   5.831  10.560  1.5134  0.2989  0.3054
14893TIP3    H266095   0.739   5.846  10.705 -0.1298  1.7260  0.6507
14894TIP3   OH266096   4.962   5.307  11.508  0.0261 -0.2159 -0.1250
14894TIP3    H166097   5.041   5.348  11.474 -0.7780  0.9611 -0.6333
14894TIP3    H266098   4.901   5.308  11.434  0.2140 -3.1386 -0.4684
14895TIP3   OH266099   0.940   0.531  11.510  0.2703  0.0434  0.4504
14895TIP3    H166100   0.844   0.531  11.510  0.2410 -0.6464 -0.7525
14895TIP3    H266101   0.964   0.475  11.584 -0.2607  0.1225  0.6860
14896TIP3   OH266102   1.940   4.381   6.199  0.7746  0.9359 -0.7358
14896TIP3    H166103   1.872   4.424   6.250  1.0726  0.0793  0.4323
14896TIP3    H266104   2.020   4.395   6.249  0.8873 -0.8906 -0.3327
14897TIP3   OH266105   3.595   4.400   1.228  0.0736  0.1914 -0.6979
14897TIP3    H166106   3.632   4.338   1.165  1.1545  0.4121 -0.2933
14897TIP3    H266107   3.599   4.355   1.312 -2.8232 -0.7288 -0.9527
14898TIP3   OH266108   4.446   2.651   1.539  0.2274  0.7130 -0.1014
14898TIP3    H166109   4.506   2.608   1.600 -0.4018 -0.4225 -0.2619
14898TIP3    H266110   4.379   2.689   1.595  0.3479  0.7969 -0.0113
14899TIP3   OH266111   0.616   6.141  12.086  0.2852 -0.2307  0.0202
14899TIP3    H166112   0.585   6.058  12.048  1.4827 -0.5414 -0.3300
14899TIP3    H266113   0.634   6.196  12.010 -0.2465  0.2694  0.2474
14900TIP3   OH266114   1.234   4.026  16.891  0.1488  0.4676  0.2547
14900TIP3    H166115   1.311   4.058  16.939  1.1806  1.1127 -1.6795
14900TIP3    H266116   1.188   4.105  16.865 -0.7488  0.1052  0.7013
14901TIP3   OH266117   4.550   5.901   4.834  0.2022  0.9152 -0.0786
14901TIP3    H166118   4.577   5.834   4.897  0.5257 -2.3223 -3.3689
14901TIP3    H266119   4.630   5.952   4.818  0.8379  0.0104  0.1279
14902TIP3   OH266120   2.745   3.605   6.469 -0.7250  0.7956 -0.3657
14902TIP3    H166121   2.673   3.647   6.422 -1.0689  0.7107  0.0819
14902TIP3    H266122   2.822   3.620   6.413 -1.5578 -1.6356 -2.3128
14903TIP3   OH266123   6.386   1.237  15.463 -0.1340  0.0832  0.1079
14903TIP3    H166124   6.411   1.276  15.379  1.2524 -1.4227 -0.2465
14903TIP3    H266125   6.405   1.304  15.528  0.6976  0.5775 -0.6206
14904TIP3   OH266126   2.925   3.383  13.015 -0.3572  0.1721 -0.0206
14904TIP3    H166127   2.891   3.467  13.045  0.4898  0.4320  0.2474
14904TIP3    H266128   2.848   3.334  12.988 -0.9261  0.7745  0.4786
14905TIP3   OH266129   0.321   1.616  10.962  0.2652 -0.5006 -0.2146
14905TIP3    H166130   0.253   1.593  10.898 -0.2489 -0.1116  0.1887
14905TIP3    H266131   0.396   1.561  10.937  0.5938  0.7076 -2.0913
14906TIP3   OH266132   5.372   1.701  13.836 -0.2348 -0.4893 -0.1528
14906TIP3    H166133   5.392   1.675  13.746  1.2350 -0.0783  0.0372
14906TIP3    H266134   5.364   1.796  13.831 -0.6367 -0.5093  0.0757
14907TIP3   OH266135   6.646   1.206  13.258 -0.7971 -0.0770 -0.0637
14907TIP3    H166136   6.619   1.115  13.270 -0.4687 -0.0612  0.9032
14907TIP3    H266137   6.736   1.208  13.292 -1.3019  0.9156  1.2669
14908TIP3   OH266138   2.393   4.565  14.037  0.0799 -0.0816  0.1757
14908TIP3    H166139   2.461   4.531  13.979 -0.8693  0.5204 -1.3552
14908TIP3    H266140   2.418   4.536  14.125  2.4063  0.3069 -0.3096
14909TIP3   OH266141   5.493   1.022  13.274 -0.1645  0.4212  0.3929
14909TIP3    H166142   5.531   1.099  13.317  0.6734 -0.2424  0.8626
14909TIP3    H266143   5.539   0.948  13.312 -1.9827 -0.4380  1.0555
14910TIP3   OH266144   2.761   2.440   5.153 -0.2047  0.6095 -0.5979
14910TIP3    H166145   2.818   2.378   5.107 -1.5233 -1.1120  0.0093
14910TIP3    H266146   2.821   2.507   5.186  1.3752 -0.7316 -0.6112
14911TIP3   OH266147   6.290   5.350  11.029  0.0636 -0.3765  0.5900
14911TIP3    H166148   6.336   5.290  10.969  2.8333 -0.9824  3.0930
14911TIP3    H266149   6.226   5.294  11.073  1.4889 -1.1936  1.7163
14912TIP3   OH266150   4.904   2.049   4.067 -0.0474  0.1508  0.1564
14912TIP3    H166151   4.970   2.043   4.136  0.8403  0.1323 -0.6649
14912TIP3    H266152   4.903   2.142   4.042  0.7849 -0.0924 -0.8619
14913TIP3   OH266153   2.555   4.139  16.457  0.9512 -0.1245  0.0860
14913TIP3    H166154   2.566   4.057  16.410 -0.2041  0.5147 -1.3964
14913TIP3    H266155   2.620   4.198  16.417  0.9950  0.0113  0.3512
14914TIP3   OH266156   0.274   1.155  16.749  0.5624  0.1013 -0.0178
14914TIP3    H166157   0.269   1.159  16.653  0.3582  0.1393 -0.0078
14914TIP3    H266158   0.299   1.065  16.768  0.7340  0.1287 -0.1129
14915TIP3   OH266159   4.186   5.280   3.050  0.0736  0.0981 -0.3106
14915TIP3    H166160   4.268   5.278   3.099  0.1232 -2.1818 -0.3548
14915TIP3    H266161   4.207   5.238   2.966 -0.4555  2.2501 -1.6054
14916TIP3   OH266162   0.285   0.808   4.043 -0.3938 -0.0596 -0.1083
14916TIP3    H166163   0.215   0.776   4.101  0.5997 -1.2397  0.5041
14916TIP3    H266164   0.307   0.732   3.988  0.8692  0.0566  0.1980
14917TIP3   OH266165   5.593   1.552   3.191  0.2284 -0.5550 -0.2347
14917TIP3    H166166   5.616   1.474   3.140  0.5874 -1.8681  1.7823
14917TIP3    H266167   5.562   1.615   3.126  0.2378 -2.2506 -2.0014
14918TIP3   OH266168   2.304   2.222   3.478  0.0309  0.4381 -0.1572
14918TIP3    H166169   2.399   2.213   3.477  0.0582  0.6698 -2.1488
14918TIP3    H266170   2.278   2.185   3.563  1.7095 -1.5731 -0.4410
14919TIP3   OH266171   0.536   4.639   3.853  0.3142  0.0218  0.6093
14919TIP3    H166172   0.456   4.631   3.907 -0.2092 -1.4141 -0.3281
14919TIP3    H266173   0.591   4.567   3.882  1.3461  1.0443  1.2936
14920TIP3   OH266174   3.924   0.654  16.380 -0.2041 -0.1178  0.3247
14920TIP3    H166175   3.866   0.728  16.363  1.4707  1.3999  0.9157
14920TIP3    H266176   3.998   0.667  16.320 -0.2069 -1.7403 -0.0863
14921TIP3   OH266177   0.091   5.431  12.148 -0.2411 -0.2894  0.2444
14921TIP3    H166178   0.041   5.498  12.196 -0.4972  0.1426 -0.6100
14921TIP3    H266179   0.119   5.369  12.216 -2.3081 -0.7879  0.7158
14922TIP3   OH266180   3.790   6.397   0.083  0.4198 -0.4021 -0.2056
14922TIP3    H166181   3.762   6.429  -0.003  1.3188  0.6006 -0.1525
14922TIP3    H266182   3.710   6.395   0.135 -0.2312 -1.5231 -1.1975
14923TIP3   OH266183   4.820   2.650  16.120 -0.2088 -0.5864 -0.2307
14923TIP3    H166184   4.806   2.635  16.214  0.5374  0.1892  0.0147
14923TIP3    H266185   4.804   2.744  16.108 -0.3299 -0.6852 -0.8853
14924TIP3   OH266186   6.405   6.246   2.471 -0.0372  0.0304  0.1175
14924TIP3    H166187   6.342   6.317   2.480 -0.6928 -0.5912  0.5682
14924TIP3    H266188   6.476   6.268   2.531  0.2214  0.7718 -0.4467
14925TIP3   OH266189   0.725   3.219   0.596 -0.1957  0.0354  0.6245
14925TIP3    H166190   0.670   3.143   0.575 -1.0153  0.9057 -0.4747
14925TIP3    H266191   0.809   3.199   0.555  0.4714 -1.4232  2.5401
14926TIP3   OH266192   0.252   5.040  15.662  0.1871 -0.9245  0.5732
14926TIP3    H166193   0.186   5.006  15.602 -0.1249  1.4876 -0.6000
14926TIP3    H266194   0.332   5.045  15.609  0.3044 -0.2364  0.8057
14927TIP3   OH266195   6.355   2.837  13.955 -0.2674  0.7984 -0.3254
14927TIP3    H166196   6.318   2.833  13.867 -2.0132  1.8112  0.3068
14927TIP3    H266197   6.348   2.747  13.988 -2.1787  0.9270 -0.2656
14928TIP3   OH266198   0.575   3.056   5.882 -0.1722  0.6017 -0.1623
14928TIP3    H166199   0.547   2.964   5.876 -1.2136  0.9035 -0.2238
14928TIP3    H266200   0.493   3.106   5.877  0.1681  1.4793  1.8704
14929TIP3   OH266201   2.184   3.919  17.200  0.3881 -0.4273  0.1734
14929TIP3    H166202   2.194   3.891  17.291 -0.8972 -0.1804  0.4074
14929TIP3    H266203   2.185   3.837  17.150  4.0238 -0.4555  0.0255
14930TIP3   OH266204   1.638   6.011   3.385 -0.9616  0.3446  0.2255
14930TIP3    H166205   1.710   5.988   3.326 -1.4789  0.5452 -0.4952
14930TIP3    H266206   1.671   5.989   3.473 -0.3015 -0.2472 -0.1606
14931TIP3   OH266207   4.844   0.687  15.855 -0.1235 -0.0483  0.3386
14931TIP3    H166208   4.788   0.688  15.932 -0.7139  0.3294 -0.0807
14931TIP3    H266209   4.854   0.595  15.833 -0.7704 -0.1101  0.2878
14932TIP3   OH266210   3.503   5.465   6.263  0.0873 -0.4571 -0.3677
14932TIP3    H166211   3.503   5.513   6.346 -0.2420 -0.7131 -0.2154
14932TIP3    H266212   3.493   5.533   6.196 -1.8743 -0.4116 -0.0742
14933TIP3   OH266213   3.109   5.461  13.403  0.1511 -0.0077  0.9302
14933TIP3    H166214   3.069   5.396  13.461 -0.4896  0.1300  0.6526
14933TIP3    H266215   3.203   5.447  13.412  0.0354 -0.4419  1.4792
14934TIP3   OH266216   5.401   0.347   2.345  0.2204 -0.1680 -0.4515
14934TIP3    H166217   5.490   0.378   2.359  0.8102 -1.2883 -1.4529
14934TIP3    H266218   5.374   0.387   2.262 -0.8108  1.3571  0.5693
14935TIP3   OH266219   2.846   2.723  17.238  0.2219  0.1739 -0.0387
14935TIP3    H166220   2.815   2.635  17.258 -0.4227  0.4130  0.0458
14935TIP3    H266221   2.769   2.779  17.250  0.7061  0.7984  0.2611
14936TIP3   OH266222   3.122   5.660  14.571 -0.0828  0.3244 -0.1708
14936TIP3    H166223   3.202   5.638  14.522  1.0143  1.6610  0.9418
14936TIP3    H266224   3.129   5.608  14.651 -1.7743 -1.6974 -1.2352
14937TIP3   OH266225   5.632   0.044  11.430  0.0935 -0.4651 -0.7701
14937TIP3    H166226   5.628  -0.051  11.435 -0.2704 -0.5900 -2.6118
14937TIP3    H266227   5.668   0.062  11.343  1.1083  1.0801 -0.0749
14938TIP3   OH266228   6.603   4.209  16.460 -0.3774 -0.0323  0.0099
14938TIP3    H166229   6.589   4.176  16.371  1.3319 -0.2531 -0.2117
14938TIP3    H266230   6.600   4.304  16.450  3.2848  0.1313 -1.0501
14939TIP3   OH266231   2.357   6.230  12.390  0.6030  0.5164 -0.0624
14939TIP3    H166232   2.356   6.229  12.294  0.6964  1.6309 -0.0848
14939TIP3    H266233   2.280   6.179  12.415 -0.7497  2.1329 -0.7655
14940TIP3   OH266234   6.462   6.527   0.294  0.4048  0.2313  0.3754
14940TIP3    H166235   6.531   6.545   0.230 -0.5323 -1.5424 -1.2110
14940TIP3    H266236   6.384   6.511   0.242 -0.9551  0.9282  2.0871
14941TIP3   OH266237   1.102   4.204   5.020  0.4003 -0.3147  0.1434
14941TIP3    H166238   1.017   4.227   5.056 -0.4281 -0.6784 -1.4706
14941TIP3    H266239   1.091   4.114   4.989  1.2319 -0.2192 -0.4650
14942TIP3   OH266240   1.964   4.904  15.742  0.0698 -0.4467 -0.3544
14942TIP3    H166241   2.052   4.939  15.753 -0.3638  0.2207  1.2405
14942TIP3    H266242   1.945   4.915  15.649  0.2936  2.8435 -0.1192
14943TIP3   OH266243   3.840   2.525   1.890 -0.0210  0.3786 -0.5692
14943TIP3    H166244   3.930   2.514   1.919  0.2251  1.8371 -0.6969
14943TIP3    H266245   3.840   2.497   1.798  0.2482  0.1762 -0.5074
14944TIP3   OH266246   1.428   6.638  15.143 -0.2118  0.1585 -0.0690
14944TIP3    H166247   1.423   6.716  15.089 -0.4165 -0.3879 -0.8490
14944TIP3    H266248   1.353   6.646  15.203  0.6512  1.3058  0.8980
14945TIP3   OH266249   0.004   2.993   6.447  0.1010  0.3620 -0.0058
14945TIP3    H166250   0.020   2.942   6.367 -1.4230  1.6799 -1.1935
14945TIP3    H266251  -0.041   2.932   6.506 -0.2487 -0.1480 -0.7881
14946TIP3   OH266252   5.184   4.743   2.609 -0.0914 -0.4464  0.1467
14946TIP3    H166253   5.208   4.798   2.684  2.4551 -2.8837  1.3205
14946TIP3    H266254   5.133   4.672   2.648 -1.9191  0.1455 -1.0705
14947TIP3   OH266255   3.629   6.200  12.565  0.1264  0.1883  0.6271
14947TIP3    H166256   3.594   6.153  12.489 -0.9216  2.1592 -0.1943
14947TIP3    H266257   3.721   6.214  12.544 -0.0716  0.4150 -0.1389
14948TIP3   OH266258   1.407   2.590  15.457  0.0715 -0.0896  0.2028
14948TIP3    H166259   1.382   2.528  15.525  0.4563  1.0945  1.4732
14948TIP3    H266260   1.468   2.541  15.401 -2.4263 -1.9834 -1.0397
14949TIP3   OH266261   4.077   1.071  16.307  0.0280 -0.0095  0.2083
14949TIP3    H166262   4.117   1.077  16.221  0.2132 -0.3576  0.2703
14949TIP3    H266263   3.989   1.039  16.291  0.5660 -1.5804  0.2731
14950TIP3   OH266264   2.559   5.263  13.420 -0.5408 -0.5430  0.1509
14950TIP3    H166265   2.600   5.278  13.505 -1.0258 -0.3052  0.3466
14950TIP3    H266266   2.631   5.239  13.362  0.1719  1.7122  0.0325
14951TIP3   OH266267   0.812   4.201  15.053 -0.2684  0.1742 -0.1185
14951TIP3    H166268   0.748   4.138  15.085 -1.2271  0.8927 -0.5980
14951TIP3    H266269   0.879   4.147  15.010  0.0588 -0.6605  1.3530
14952TIP3   OH266270   2.359   0.899   2.541 -0.1019  0.1083 -0.4041
14952TIP3    H166271   2.408   0.978   2.518  0.8118 -0.2281  0.3308
14952TIP3    H266272   2.426   0.830   2.547 -0.7508 -0.5039 -0.0422
14953TIP3   OH266273   5.440   5.515  14.279 -0.6090 -0.0345 -0.2858
14953TIP3    H166274   5.463   5.435  14.232  0.8099  1.1067 -1.6419
14953TIP3    H266275   5.520   5.566  14.280 -1.5844  1.5564  0.1750
14954TIP3   OH266276   2.595   6.204   1.209 -0.0724  0.0194  0.4902
14954TIP3    H166277   2.657   6.157   1.264 -0.6719 -1.2172  0.1566
14954TIP3    H266278   2.531   6.137   1.183 -0.6224  0.8970 -0.4889
14955TIP3   OH266279   5.519   5.031  16.161 -0.1830  0.0841  0.0155
14955TIP3    H166280   5.566   4.956  16.198  0.7943  0.7943  0.2377
14955TIP3    H266281   5.586   5.098  16.148 -0.7854  0.4248 -1.5541
14956TIP3   OH266282   2.552   5.517  15.984  0.0053  0.2915 -0.5005
14956TIP3    H166283   2.642   5.506  16.017  0.5118 -0.1403 -1.9474
14956TIP3    H266284   2.499   5.528  16.063  1.4062  1.1500  0.3627
14957TIP3   OH266285   2.599   2.086  15.825 -0.0498 -0.5313  0.4438
14957TIP3    H166286   2.546   2.013  15.858 -1.8335  0.1847 -0.6724
14957TIP3    H266287   2.592   2.079  15.729 -0.0527  0.9429  0.3107
14958TIP3   OH266288   6.138   1.097  14.634 -0.3400  0.2342  0.2924
14958TIP3    H166289   6.167   1.006  14.622 -2.2411 -0.3910  0.0930
14958TIP3    H266290   6.135   1.108  14.729 -2.1777 -0.6753  0.3813
14959TIP3   OH266291   4.966   6.054   2.370  0.7564 -0.0855 -0.6273
14959TIP3    H166292   5.001   5.982   2.423 -0.2031 -0.7008 -0.8015
14959TIP3    H266293   4.904   6.099   2.428 -2.2210 -2.2698 -1.8642
14960TIP3   OH266294   4.117   3.732  14.420 -0.1770 -0.2321  0.3047
14960TIP3    H166295   4.052   3.730  14.490 -0.1649  1.1458  0.3862
14960TIP3    H266296   4.086   3.668  14.356 -1.1229 -0.2461  0.7607
14961TIP3   OH266297   0.909   4.782  14.235 -0.3333  0.2237 -0.1685
14961TIP3    H166298   0.928   4.876  14.240  2.4292 -0.2029 -0.8898
14961TIP3    H266299   0.857   4.772  14.154  0.0750  1.0331 -0.5351
14962TIP3   OH266300   4.109   1.766   1.338 -0.0184  0.0691 -0.1194
14962TIP3    H166301   4.123   1.840   1.279  0.2736 -0.7007 -1.0493
14962TIP3    H266302   4.105   1.690   1.280  0.8849 -0.7975  0.9205
14963TIP3   OH266303   5.621   3.971  17.098 -0.4338  0.6601  0.1347
14963TIP3    H166304   5.614   4.051  17.046 -0.1994  0.6455  0.0779
14963TIP3    H266305   5.556   3.981  17.167 -1.1900  0.3983 -0.5285
14964TIP3   OH266306   3.979   1.865  11.392  0.2643 -0.3525 -0.4797
14964TIP3    H166307   3.952   1.896  11.306  0.8038 -0.4345 -0.6805
14964TIP3    H266308   4.071   1.892  11.400  0.7839 -1.9859 -0.6989
14965TIP3   OH266309   0.924   5.795  12.391 -0.1494  0.1083 -0.2033
14965TIP3    H166310   0.853   5.857  12.377 -0.0785  0.3291  0.3684
14965TIP3    H266311   1.004   5.843  12.368 -0.1756 -0.1100 -0.7604
14966TIP3   OH266312   3.649   3.569   1.630  0.5821  0.3188  0.4504
14966TIP3    H166313   3.680   3.536   1.546  0.1561  0.1869  0.3391
14966TIP3    H266314   3.720   3.623   1.663  0.5929  0.6891 -0.1781
14967TIP3   OH266315   1.188   2.616  11.889 -0.0265 -0.4935 -0.1378
14967TIP3    H166316   1.231   2.643  11.970  0.0546 -1.5758  0.1984
14967TIP3    H266317   1.128   2.546  11.915  1.2244 -2.0550 -1.2128
14968TIP3   OH266318   4.422   5.519   0.528 -0.6611 -0.4979  0.3665
14968TIP3    H166319   4.329   5.533   0.510  0.0441  3.0526 -1.2358
14968TIP3    H266320   4.449   5.596   0.578  1.9526 -0.0459 -1.5654
14969TIP3   OH266321   2.763   0.463  12.682  0.0885 -0.0317 -0.4465
14969TIP3    H166322   2.846   0.462  12.729 -0.1190 -1.6983 -0.0426
14969TIP3    H266323   2.739   0.555  12.676  0.7739  0.3192  1.5960
14970TIP3   OH266324   2.989   1.600   0.036  0.2766  0.2476  0.1855
14970TIP3    H166325   3.066   1.557   0.073  0.3325 -0.1026 -0.3192
14970TIP3    H266326   2.994   1.690   0.067  1.4810  0.5201 -0.7151
14971TIP3   OH266327   1.890   1.034   1.247  0.2151 -0.0711  0.2098
14971TIP3    H166328   1.914   1.115   1.292  0.1685 -0.6450  1.2916
14971TIP3    H266329   1.937   1.038   1.164 -0.4155  1.4413 -0.1207
14972TIP3   OH266330   1.251   5.254  15.450  0.5436  0.1396 -0.3189
14972TIP3    H166331   1.213   5.334  15.414  0.5150  0.2482 -0.0479
14972TIP3    H266332   1.249   5.266  15.544 -0.5589 -0.6766 -0.2091
14973TIP3   OH266333   2.048   4.556  15.192  0.5437  0.0296  1.0585
14973TIP3    H166334   2.110   4.547  15.264  0.8575  1.1354  0.9440
14973TIP3    H266335   1.978   4.612  15.228 -0.0654 -0.6673  0.9824
14974TIP3   OH266336   2.973   1.566   4.344 -0.5709  0.0963 -0.1507
14974TIP3    H166337   2.934   1.529   4.423 -1.0327  0.1841 -0.3355
14974TIP3    H266338   3.019   1.644   4.375 -1.0155  0.3074 -0.0134
14975TIP3   OH266339   3.720   4.430  16.065  0.0733 -0.5987  0.1916
14975TIP3    H166340   3.762   4.468  16.142  1.1633 -0.6221 -0.3686
14975TIP3    H266341   3.726   4.498  15.998 -0.0079 -0.9179 -0.1484
14976TIP3   OH266342   3.898   1.167   1.160 -0.0036  0.4807 -0.7776
14976TIP3    H166343   3.865   1.086   1.121  1.5767 -0.1120 -0.9720
14976TIP3    H266344   3.989   1.172   1.131  0.2811  1.6866  0.2489
14977TIP3   OH266345   3.284   0.571  12.646  1.1385 -0.0920  0.3202
14977TIP3    H166346   3.248   0.570  12.557 -0.1061  0.0693  0.7883
14977TIP3    H266347   3.343   0.497  12.650  0.9597 -0.2844 -0.5534
14978TIP3   OH266348   0.793   4.958   5.742 -0.6348  0.1387  0.3402
14978TIP3    H166349   0.756   5.046   5.737 -1.2909 -0.1781 -0.5539
14978TIP3    H266350   0.818   4.937   5.652  1.6306  0.2849  0.8765
14979TIP3   OH266351   4.591   0.704  15.581  0.0810 -0.8662  0.0627
14979TIP3    H166352   4.686   0.707  15.593 -0.0202  1.8612  1.1119
14979TIP3    H266353   4.564   0.621  15.620  1.9521 -1.3248  0.4890
14980TIP3   OH266354   1.519   1.357   0.782 -0.1247 -0.0492  0.1060
14980TIP3    H166355   1.500   1.317   0.697 -0.2640 -0.9270  0.5425
14980TIP3    H266356   1.487   1.447   0.773  0.8684  0.2268 -1.1417
14981TIP3   OH266357   5.120   4.566  13.240 -0.4555 -0.0480 -0.1019
14981TIP3    H166358   5.117   4.660  13.258  1.9295  0.1293 -0.3376
14981TIP3    H266359   5.115   4.559  13.145  0.0905 -0.0915 -0.1322
14982TIP3   OH266360   6.434   0.581  11.977 -0.5287 -0.2483  0.1011
14982TIP3    H166361   6.428   0.490  12.006 -1.8329 -0.7550 -1.6099
14982TIP3    H266362   6.373   0.628  12.034 -3.1686 -1.2513 -1.7142
14983TIP3   OH266363   0.798   4.894   0.759 -0.7177 -0.4363  0.0201
14983TIP3    H166364   0.845   4.968   0.800  0.2021 -0.8127 -0.3207
14983TIP3    H266365   0.803   4.912   0.665  0.3930 -1.4089 -0.1382
14984TIP3   OH266366   1.220   2.997  15.300 -0.1217 -0.1994  0.4501
14984TIP3    H166367   1.200   3.003  15.207  2.8366 -1.9515 -0.4349
14984TIP3    H266368   1.191   2.909  15.325  1.9516 -0.9625  0.3118
14985TIP3   OH266369   5.315   1.642  11.394  0.4207  0.3314  0.3022
14985TIP3    H166370   5.320   1.713  11.330  0.8575 -1.3404 -1.6413
14985TIP3    H266371   5.398   1.647  11.443  0.4281  1.1559  0.2164
14986TIP3   OH266372   1.510   0.303   0.864  0.0460 -0.6547  0.3413
14986TIP3    H166373   1.454   0.379   0.856  0.0602 -0.8459 -2.2463
14986TIP3    H266374   1.599   0.337   0.850  0.0023 -1.1819 -1.3926
14987TIP3   OH266375   0.198   4.521  11.065  0.0811  0.0842  0.0411
14987TIP3    H166376   0.117   4.551  11.025  0.5527  1.4873  0.1062
14987TIP3    H266377   0.201   4.427  11.045 -1.2110  0.1447 -0.5373
14988TIP3   OH266378   5.893   2.564   5.494  0.5051  0.0137 -0.0178
14988TIP3    H166379   5.874   2.483   5.541  1.4618 -0.9304 -1.1835
14988TIP3    H266380   5.808   2.593   5.460 -0.5287  1.6192  3.5050
14989TIP3   OH266381   3.482   0.151  17.190  0.4666 -0.2001  0.7462
14989TIP3    H166382   3.543   0.154  17.263  0.7724  0.6988  0.4610
14989TIP3    H266383   3.530   0.190  17.117  0.2188 -1.2153  0.0192
14990TIP3   OH266384   0.400   6.032   0.303  0.5118 -0.2751  0.1407
14990TIP3    H166385   0.386   6.066   0.391 -2.0727 -0.9357  0.0647
14990TIP3    H266386   0.372   6.104   0.246 -1.5263 -1.1577 -0.0481
14991TIP3   OH266387   3.140   1.684  12.423  0.3961  0.4298 -0.0661
14991TIP3    H166388   3.117   1.628  12.497  4.2804 -2.1395 -0.4871
14991TIP3    H266389   3.070   1.670  12.360 -0.0092 -2.2340  0.8198
14992TIP3   OH266390   5.587   5.370  12.627  0.1682 -0.5046  0.0228
14992TIP3    H166391   5.595   5.276  12.643  2.5228 -0.3411  0.1326
14992TIP3    H266392   5.596   5.378  12.532  0.8123 -0.3521  0.0901
14993TIP3   OH266393   2.950   4.847  11.296  0.4056  0.2921  0.1636
14993TIP3    H166394   3.023   4.864  11.236 -0.4372 -0.1030 -0.9984
14993TIP3    H266395   2.942   4.752  11.297  0.4842  0.2844  1.0222
14994TIP3   OH266396   4.739   4.828   4.573  0.0451 -0.2659  0.7480
14994TIP3    H166397   4.815   4.821   4.632  0.3272  1.0240  0.5726
14994TIP3    H266398   4.663   4.821   4.631  0.3187  0.6480  1.2573
14995TIP3   OH266399   3.447   0.725   2.825  0.2646  0.1007  0.3890
14995TIP3    H166400   3.447   0.794   2.891 -0.1173  1.9292 -1.4250
14995TIP3    H266401   3.522   0.670   2.847  0.6851  1.1802  1.7732
14996TIP3   OH266402   5.605   0.462  12.788 -0.3141  0.1284 -0.3197
14996TIP3    H166403   5.627   0.491  12.700 -1.0977 -0.4237 -0.7029
14996TIP3    H266404   5.509   0.453  12.788 -0.2758 -0.4258  0.4122
14997TIP3   OH266405   1.496   1.886  16.487 -0.1109 -0.0977  0.0852
14997TIP3    H166406   1.463   1.943  16.556 -0.8432 -1.1892  0.6699
14997TIP3    H266407   1.572   1.932  16.452 -2.0181  2.3817 -1.1179
14998TIP3   OH266408   1.127   3.776  12.329 -0.2685 -0.5502  0.4820
14998TIP3    H166409   1.141   3.726  12.249  0.1611  0.8593 -0.3680
14998TIP3    H266410   1.038   3.810  12.321  0.3096  0.9108 -0.2178
14999TIP3   OH266411   4.221   0.432  10.562  0.0586 -0.2408  0.1769
14999TIP3    H166412   4.152   0.378  10.600 -0.8630  0.6923 -0.1154
14999TIP3    H266413   4.197   0.522  10.584  0.5397  0.1862 -0.9317
15000TIP3   OH266414   1.256   0.435   0.144  0.0262 -0.1044  0.3149
15000TIP3    H166415   1.292   0.476   0.065 -2.3549  2.7505  0.5065
15000TIP3    H266416   1.329   0.386   0.181  3.0059  3.2094 -0.5967
15001TIP3   OH266417   5.841   3.317   6.190 -0.0748 -0.4052 -0.4537
15001TIP3    H166418   5.893   3.371   6.131 -0.3146 -1.1288 -1.3545
15001TIP3    H266419   5.825   3.372   6.266  4.0885 -0.8612  1.0461
15002TIP3   OH266420   2.655   1.100   0.650  0.2048  0.8247 -0.0849
15002TIP3    H166421   2.623   1.039   0.584  1.2484  1.8479 -1.6001
15002TIP3    H266422   2.748   1.109   0.630  1.0107 -0.1766  2.6380
15003TIP3   OH266423   3.778   4.582   2.333 -0.4214 -0.1156 -0.2214
15003TIP3    H166424   3.780   4.513   2.267  0.0739  0.8089 -1.1882
15003TIP3    H266425   3.869   4.611   2.340 -0.2947 -0.7595  1.4991
15004TIP3   OH266426   3.106   6.321  14.651 -0.5289 -0.3468 -0.0078
15004TIP3    H166427   3.032   6.380  14.640 -0.9578 -0.7986  0.3577
15004TIP3    H266428   3.076   6.258  14.717  0.1081 -0.6536 -0.0030
15005TIP3   OH266429   0.506   6.661  11.487 -0.2490  0.4177 -0.3499
15005TIP3    H166430   0.470   6.673  11.399 -0.3241  1.1139 -0.2305
15005TIP3    H266431   0.441   6.608  11.533  0.6847 -1.6531 -1.2783
15006TIP3   OH266432   3.015   4.018   3.907 -0.0293  0.2944 -0.0873
15006TIP3    H166433   3.031   4.053   3.995 -1.0521 -1.6192  0.9395
15006TIP3    H266434   2.947   4.073   3.871 -0.8756  0.0376  1.0663
15007TIP3   OH266435   0.383   2.653   1.426  0.5868  0.3198  0.2177
15007TIP3    H166436   0.362   2.670   1.518  0.0663 -0.9781  0.3705
15007TIP3    H266437   0.473   2.683   1.415  0.9036 -0.1793  1.3553
15008TIP3   OH266438   3.636   3.552  13.451  0.2536  0.1839 -0.0225
15008TIP3    H166439   3.588   3.483  13.497  0.6068  0.7117  1.1824
15008TIP3    H266440   3.571   3.620  13.435  0.5309  0.8266  1.4578
15009TIP3   OH266441   4.511   3.431  12.843  0.5485  0.1391  0.0725
15009TIP3    H166442   4.464   3.434  12.760  0.3373  3.5155  0.2019
15009TIP3    H266443   4.603   3.434  12.820  0.5829 -1.1313 -0.0385
15010TIP3   OH266444   5.009   3.736   2.837 -0.6626 -0.3855 -0.4916
15010TIP3    H166445   5.079   3.788   2.877 -0.4012 -1.4962  0.5620
15010TIP3    H266446   4.947   3.801   2.803  0.3190  0.6054 -0.4239
15011TIP3   OH266447   1.440   0.095   4.286 -0.3446 -0.4480 -0.3067
15011TIP3    H166448   1.423   0.148   4.364  2.3225  0.7624 -0.4172
15011TIP3    H266449   1.412   0.007   4.310 -0.4027  0.0618  1.6926
15012TIP3   OH266450   3.651   1.859  13.340  0.1478 -0.0728  0.2789
15012TIP3    H166451   3.607   1.888  13.260  1.0947  2.4369  0.5610
15012TIP3    H266452   3.744   1.862  13.319  0.3562 -1.4219  0.8839
15013TIP3   OH266453   4.056   1.830   2.127 -0.8535  1.0095  0.1502
15013TIP3    H166454   4.130   1.785   2.086 -0.2739  2.5148 -0.5275
15013TIP3    H266455   4.046   1.787   2.212 -1.0858 -1.1509 -0.9152
15014TIP3   OH266456   3.357   3.041   0.249 -0.3288 -0.7226  0.1407
15014TIP3    H166457   3.443   3.083   0.258 -0.6330  0.0878 -0.5662
15014TIP3    H266458   3.295   3.112   0.263 -0.9592 -1.6970  2.7576
15015TIP3   OH266459   4.565   4.004   1.843 -0.0238  0.1389  0.3892
15015TIP3    H166460   4.617   4.006   1.763  0.2795 -1.0992  0.5437
15015TIP3    H266461   4.615   4.057   1.905  0.5565 -0.2147  0.2333
15016TIP3   OH266462   2.806   1.998  13.662 -0.1367  0.1116  0.3307
15016TIP3    H166463   2.878   1.945  13.697 -0.8874 -0.5282  0.9418
15016TIP3    H266464   2.825   2.006  13.569 -0.5763 -2.1978 -0.0105
15017TIP3   OH266465   0.730   0.390   3.711  0.4061  0.3467 -0.7225
15017TIP3    H166466   0.717   0.420   3.621  0.0709 -2.3322 -1.6442
15017TIP3    H266467   0.645   0.355   3.737  0.3495  1.5441  0.8987
15018TIP3   OH266468   4.107   6.375  16.127 -0.2895 -0.5483  0.0591
15018TIP3    H166469   4.012   6.362  16.119 -0.5465  0.6639  0.8404
15018TIP3    H266470   4.137   6.303  16.182 -0.4484 -1.9290 -1.5684
15019TIP3   OH266471   5.185   4.025   6.548 -0.5940 -0.2261  0.0039
15019TIP3    H166472   5.222   4.091   6.490 -2.4677 -0.1175 -1.1419
15019TIP3    H266473   5.254   3.959   6.556  0.4893  0.7954 -0.6093
15020TIP3   OH266474   5.958   4.925  13.540 -0.0190 -0.9241  0.3214
15020TIP3    H166475   6.034   4.869  13.558 -0.1596 -1.0986  0.3715
15020TIP3    H266476   5.980   5.009  13.581  0.6505 -0.6051 -0.6489
15021TIP3   OH266477   2.870   5.582   2.026 -0.1356 -0.0001  0.1403
15021TIP3    H166478   2.796   5.547   2.075 -0.3561  0.5557  0.2091
15021TIP3    H266479   2.904   5.507   1.976 -1.9607  0.1320 -1.4187
15022TIP3   OH266480   1.743   2.855   2.644  0.4992  0.0927 -0.3427
15022TIP3    H166481   1.820   2.911   2.633  0.6594 -0.2999 -1.4075
15022TIP3    H266482   1.673   2.901   2.597 -0.1951  0.9272  1.4385
15023TIP3   OH266483   4.117   5.737   3.285  0.5849 -0.4301  0.3856
15023TIP3    H166484   4.093   5.828   3.303  1.6888 -0.2339  1.0101
15023TIP3    H266485   4.035   5.694   3.263  0.1031  0.8116 -0.3406
15024TIP3   OH266486   5.040   0.818   5.067 -0.8446  0.2965 -0.1601
15024TIP3    H166487   5.104   0.811   5.138 -0.3647  0.1238 -0.6046
15024TIP3    H266488   5.092   0.829   4.988 -1.4072  2.0004 -0.3342
15025TIP3   OH266489   4.544   5.772  10.899 -0.0888 -0.0612  0.6831
15025TIP3    H166490   4.463   5.792  10.945  0.2490  0.8188  0.9218
15025TIP3    H266491   4.600   5.732  10.965  0.4455  1.3249  1.1153
15026TIP3   OH266492   4.807   2.852   5.893  0.0242 -0.1431  0.0402
15026TIP3    H166493   4.898   2.867   5.919 -0.4084  1.8830  0.5543
15026TIP3    H266494   4.765   2.817   5.972 -0.0116  0.5747  0.3469
15027TIP3   OH266495   4.075   1.146  14.071 -0.0450 -0.5417 -0.2787
15027TIP3    H166496   4.168   1.124  14.066  0.1470  0.2969 -0.4422
15027TIP3    H266497   4.033   1.086  14.009  0.5628  0.0413 -1.2704
15028TIP3   OH266498   3.859   4.458   5.506  0.1283 -0.1620  0.0657
15028TIP3    H166499   3.907   4.461   5.423  0.0405 -0.3692  0.0037
15028TIP3    H266500   3.826   4.368   5.510 -0.2343 -0.0292  0.1163
15029TIP3   OH266501   4.308   4.624   2.094 -0.1650 -0.3996  0.3713
15029TIP3    H166502   4.381   4.684   2.111 -0.7469 -0.4346  3.5844
15029TIP3    H266503   4.342   4.537   2.115 -0.2096 -0.8773 -1.3795
15030TIP3   OH266504   0.789   5.705  12.934 -0.3523  0.1364  0.0419
15030TIP3    H166505   0.797   5.627  12.988 -0.2429 -0.1755 -0.4151
15030TIP3    H266506   0.714   5.687  12.877  0.8927 -0.5257 -1.4702
15031TIP3   OH266507   0.538   5.687  14.994 -0.7057 -0.2600  0.0260
15031TIP3    H166508   0.462   5.724  14.950  0.7626  2.3189 -0.4993
15031TIP3    H266509   0.531   5.718  15.085  0.7423  1.8467 -0.5100
15032TIP3   OH266510   4.211   6.092   0.182 -0.3856 -0.4686  0.6521
15032TIP3    H166511   4.254   6.020   0.136 -0.5571  0.9419 -1.8908
15032TIP3    H266512   4.268   6.168   0.168 -2.5092  0.9550 -0.9236
15033TIP3   OH266513   4.102   0.083  16.881 -0.1147  0.0004 -0.4932
15033TIP3    H166514   4.060   0.113  16.801  0.2318  1.1891 -0.2520
15033TIP3    H266515   4.030   0.049  16.935 -0.2600 -1.4426 -1.5515
15034TIP3   OH266516   5.859   1.936  11.669  0.0381 -0.0401 -0.7940
15034TIP3    H166517   5.825   2.016  11.629 -2.0860 -0.6161 -0.2890
15034TIP3    H266518   5.781   1.882  11.683  1.3909 -2.1889 -1.0700
15035TIP3   OH266519   4.095   3.114   3.966 -0.3481  0.2645  0.2496
15035TIP3    H166520   4.095   3.025   3.931  0.0311 -0.1241  1.2078
15035TIP3    H266521   4.013   3.121   4.015 -0.3317  0.4163  0.2575
15036TIP3   OH266522   0.716   2.023  14.111 -0.9343 -0.0741 -0.3456
15036TIP3    H166523   0.793   2.080  14.117 -0.6061 -0.5370 -0.0296
15036TIP3    H266524   0.726   1.961  14.184 -1.7477  0.0238 -0.1441
15037TIP3   OH266525   3.482   4.152  14.111  0.1445 -0.2416  0.2367
15037TIP3    H166526   3.514   4.116  14.194  0.2715  0.6481  0.5871
15037TIP3    H266527   3.387   4.140  14.114  0.2637 -1.3769 -0.0696
15038TIP3   OH266528   0.759   0.407   3.972  0.0366  0.2377 -0.4370
15038TIP3    H166529   0.754   0.396   3.877  0.7323 -0.2377 -0.4228
15038TIP3    H266530   0.803   0.491   3.984 -1.0093  0.8191 -0.5264
15039TIP3   OH266531   6.753   2.347  14.253  0.5899  0.2775 -0.7688
15039TIP3    H166532   6.826   2.409  14.243  0.5150  0.4386 -0.3434
15039TIP3    H266533   6.750   2.329  14.347 -0.8987  1.4782 -0.5364
15040TIP3   OH266534   5.620   2.641  11.960 -0.0364 -0.1149  0.0271
15040TIP3    H166535   5.531   2.645  11.924 -0.0567 -0.2892  0.0569
15040TIP3    H266536   5.677   2.655  11.885 -0.1001  0.5950  0.1020
15041TIP3   OH266537   4.675   0.728  16.048  0.2433 -0.1300  0.1132
15041TIP3    H166538   4.702   0.804  16.100  1.0069 -0.6349  0.4729
15041TIP3    H266539   4.616   0.764  15.982  1.8652  1.0492 -0.7706
15042TIP3   OH266540   0.665   5.066  16.273  0.6448 -0.0204  0.2438
15042TIP3    H166541   0.723   5.062  16.348  2.3564  0.4332 -0.9880
15042TIP3    H266542   0.600   5.133  16.296  1.5007  0.5464  1.0681
15043TIP3   OH266543   3.675   3.057   1.356  0.4124  0.4606 -0.1503
15043TIP3    H166544   3.762   3.093   1.372  0.2619  0.2726  1.2252
15043TIP3    H266545   3.630   3.065   1.440 -1.0166  0.8578 -0.9249
15044TIP3   OH266546   2.432   4.946  14.847 -0.1964 -0.3474  0.3323
15044TIP3    H166547   2.433   4.923  14.940  0.6196 -3.3334 -0.3207
15044TIP3    H266548   2.515   4.991  14.832 -0.6394  0.7755  1.1544
15045TIP3   OH266549   6.270   0.233  12.649  0.0809 -0.1701  0.7132
15045TIP3    H166550   6.341   0.269  12.596  0.6574  0.1329  1.6606
15045TIP3    H266551   6.194   0.289  12.630  0.0761 -0.5211 -0.3353
15046TIP3   OH266552   5.894   6.592   4.070 -0.3639  0.1300 -0.5603
15046TIP3    H166553   5.906   6.652   4.143 -1.8886  0.4327 -0.5226
15046TIP3    H266554   5.827   6.531   4.100 -1.1651  0.3865 -1.7614
15047TIP3   OH266555   5.282   0.677   3.227 -0.0421  0.2017 -0.3774
15047TIP3    H166556   5.324   0.696   3.311  0.6310 -0.2091 -0.6074
15047TIP3    H266557   5.195   0.646   3.250 -0.1596  0.8639  0.1251
15048TIP3   OH266558   5.161   1.672  12.125 -0.1767 -0.9778 -0.8215
15048TIP3    H166559   5.226   1.699  12.059  0.4397 -2.1434 -0.7178
15048TIP3    H266560   5.208   1.609  12.179 -0.7674 -0.2560  0.5728
15049TIP3   OH266561   2.036   5.714  15.580 -0.0552  0.3941  0.2351
15049TIP3    H166562   2.127   5.700  15.556  0.2205  1.1380  0.8102
15049TIP3    H266563   2.036   5.722  15.675 -0.6729  0.7009  0.2189
15050TIP3   OH266564   3.562   5.873  14.295  0.0972  0.2594  0.2116
15050TIP3    H166565   3.558   5.869  14.391 -1.2949  0.4597  0.1861
15050TIP3    H266566   3.528   5.960  14.274 -1.8690 -0.6227 -0.5280
15051TIP3   OH266567   0.146   1.977  16.740 -0.1853 -0.3247 -0.3329
15051TIP3    H166568   0.130   2.026  16.820 -1.7596 -0.8102 -0.3123
15051TIP3    H266569   0.229   2.011  16.707  1.3319 -1.2159  2.2986
15052TIP3   OH266570   1.954   2.251  13.863  0.2166  0.0551  0.1741
15052TIP3    H166571   1.950   2.333  13.814  0.7787  0.2134  0.3911
15052TIP3    H266572   1.910   2.187  13.807 -0.1005  0.4681 -0.0558
15053TIP3   OH266573   6.047   3.627   1.724  0.2175  0.0871 -0.2540
15053TIP3    H166574   5.972   3.683   1.743  0.1024 -0.3084  0.4940
15053TIP3    H266575   6.069   3.646   1.633  0.7890  2.0535  0.2626
15054TIP3   OH266576   5.468   1.182   0.909 -0.3510  0.2939 -0.2168
15054TIP3    H166577   5.381   1.212   0.881  0.3658  0.3521 -2.5329
15054TIP3    H266578   5.528   1.248   0.875  0.7579 -0.7506 -0.3507
15055TIP3   OH266579   5.454   5.540   2.811 -0.4759 -0.0386 -0.5153
15055TIP3    H166580   5.514   5.542   2.737 -0.9286  1.3183 -0.8715
15055TIP3    H266581   5.435   5.632   2.829 -0.5439 -0.3598  1.1569
15056TIP3   OH266582   2.715   5.306  17.158  0.1710 -0.2083  0.0696
15056TIP3    H166583   2.693   5.391  17.197 -1.7486 -1.5428  2.1924
15056TIP3    H266584   2.630   5.263  17.146  1.0246 -1.4604 -1.9293
15057TIP3   OH266585   5.592   0.923   0.958  0.1834  0.0752 -0.1661
15057TIP3    H166586   5.647   0.956   0.887  0.8094  0.6711  0.5669
15057TIP3    H266587   5.544   1.000   0.988 -0.9391 -0.4062 -0.6831
15058TIP3   OH266588   5.334   4.173   5.865  0.3201  0.5189 -0.0569
15058TIP3    H166589   5.259   4.187   5.923 -0.2781 -1.2845 -0.3339
15058TIP3    H266590   5.410   4.187   5.921 -0.2425  0.3259  0.7819
15059TIP3   OH266591   1.199   2.138  12.535 -0.3694  0.1154 -0.6427
15059TIP3    H166592   1.128   2.076  12.517 -0.9068  0.2945  0.7898
15059TIP3    H266593   1.163   2.223  12.512 -0.7295  0.2386  0.3544
15060TIP3   OH266594   2.358   6.089  10.513 -0.4801  0.1553  0.5662
15060TIP3    H166595   2.283   6.030  10.509 -1.0863  0.9063  0.4979
15060TIP3    H266596   2.339   6.147  10.587 -0.1667  0.6062  0.3010
15061TIP3   OH266597   5.798   5.673  11.765 -0.7084 -0.4132 -0.3496
15061TIP3    H166598   5.842   5.752  11.797 -1.9262  0.0302  0.3257
15061TIP3    H266599   5.836   5.657  11.679 -0.5969  1.0661 -0.5989
15062TIP3   OH266600   6.723   1.950   1.697 -0.5568  0.0726  0.4169
15062TIP3    H166601   6.771   1.877   1.659 -0.9829  0.9188 -1.8816
15062TIP3    H266602   6.790   2.006   1.735 -0.1097 -0.7467  0.8689
15063TIP3   OH266603   3.221   1.569  12.944 -0.0569 -0.3281  0.4494
15063TIP3    H166604   3.156   1.591  13.010  1.6879  0.5616  1.9832
15063TIP3    H266605   3.302   1.610  12.976  1.1952 -1.1410 -1.4921
15064TIP3   OH266606   4.081   5.676  15.952 -0.5198 -0.2510  0.0945
15064TIP3    H166607   4.039   5.591  15.940  1.7739 -1.1677 -2.7205
15064TIP3    H266608   4.174   5.656  15.965 -0.2353  1.7805  1.7237
15065TIP3   OH266609   1.726   4.459   0.679  0.2218 -0.1355 -0.1708
15065TIP3    H166610   1.812   4.418   0.690 -0.0690 -1.2056 -1.5112
15065TIP3    H266611   1.677   4.433   0.757  1.0905  0.5009  0.6180
15066TIP3   OH266612   2.250   0.506   1.071 -0.1914  0.5379  0.2495
15066TIP3    H166613   2.173   0.489   1.017  1.0021  0.9519 -1.6702
15066TIP3    H266614   2.290   0.583   1.032  1.4575  0.0617  0.9239
15067TIP3   OH266615   4.395   4.895  15.475 -0.8726  0.1250 -0.4388
15067TIP3    H166616   4.346   4.977  15.465 -1.9142 -0.2643  1.0302
15067TIP3    H266617   4.471   4.919  15.528 -0.9938  0.2028 -0.2992
15068TIP3   OH266618   0.919   6.351   0.146 -0.3654  0.1195 -0.0567
15068TIP3    H166619   1.005   6.385   0.120 -0.6596  2.0597  1.3176
15068TIP3    H266620   0.928   6.256   0.138  1.1808  0.3506 -2.0528
15069TIP3   OH266621   2.564   6.754  16.418  0.1540 -0.3726  0.1939
15069TIP3    H166622   2.607   6.759  16.503 -0.1951 -1.2515  0.4263
15069TIP3    H266623   2.618   6.809  16.361  2.0826 -2.0664  0.2635
15070TIP3   OH266624   3.695   0.236  16.953  0.6828 -0.4797 -0.1923
15070TIP3    H166625   3.760   0.239  16.883 -0.0983 -0.5259 -0.9556
15070TIP3    H266626   3.708   0.316  17.003  1.2508 -0.4406 -0.4024
15071TIP3   OH266627   2.326   5.812  15.488 -0.0297  0.4775 -0.5061
15071TIP3    H166628   2.397   5.751  15.506 -0.9832 -0.3382  0.7636
15071TIP3    H266629   2.363   5.899  15.506  1.6831  0.4533 -3.4630
15072TIP3   OH266630   2.910   4.314  15.580  0.0593 -0.3036  0.2799
15072TIP3    H166631   2.871   4.311  15.492 -1.1524 -0.7354  0.8196
15072TIP3    H266632   2.988   4.259  15.573  0.0947 -0.1589 -0.5814
15073TIP3   OH266633   3.928   1.197   4.166 -0.4310  0.0905 -0.0684
15073TIP3    H166634   3.930   1.292   4.149 -2.3044  0.0676 -0.6722
15073TIP3    H266635   3.891   1.160   4.086  0.1838 -1.1458  0.2116
15074TIP3   OH266636   1.504   5.885   0.064  0.0629  0.4031 -0.2970
15074TIP3    H166637   1.595   5.869   0.038 -0.1556  0.2749 -1.0046
15074TIP3    H266638   1.457   5.895  -0.019 -0.6010  0.2854  0.0614
15075TIP3   OH266639   2.126   3.856  12.570  0.3252  0.0876 -0.1767
15075TIP3    H166640   2.101   3.948  12.579 -2.1263 -0.4898 -0.3012
15075TIP3    H266641   2.108   3.836  12.478 -0.9918 -0.9678  0.2855
15076TIP3   OH266642   6.228   6.329  12.580 -0.3462 -0.5821 -0.3701
15076TIP3    H166643   6.273   6.351  12.662 -0.8177  0.3691 -0.3503
15076TIP3    H266644   6.250   6.401  12.521 -1.3990 -0.3568 -0.5203
15077TIP3   OH266645   6.671   4.688   5.477 -0.2992  0.0288 -0.0237
15077TIP3    H166646   6.700   4.723   5.561 -0.8648 -0.6874  0.4836
15077TIP3    H266647   6.593   4.741   5.455 -0.8039 -0.5015  0.4531
15078TIP3   OH266648   1.773   6.052  15.459  0.3644 -0.1504 -0.4005
15078TIP3    H166649   1.764   6.074  15.551 -3.2073 -0.0674 -0.6318
15078TIP3    H266650   1.811   6.130  15.419 -2.2610  1.6523  0.3912
15079TIP3   OH266651   4.642   4.129   2.055 -0.3094  0.0518  0.1177
15079TIP3    H166652   4.578   4.113   2.125 -0.8192 -1.2615 -0.6022
15079TIP3    H266653   4.701   4.195   2.091 -0.9838 -0.0571  1.5071
15080TIP3   OH266654   5.084   3.349  11.222  0.5197  0.2782 -0.1951
15080TIP3    H166655   5.101   3.262  11.186 -0.2418  0.3852 -0.8520
15080TIP3    H266656   5.154   3.403  11.187  0.6008  0.0698 -0.3631
15081TIP3   OH266657   6.297   4.491  14.419 -0.0440  0.1154 -0.3414
15081TIP3    H166658   6.211   4.487  14.378 -0.8201  1.2651  1.0796
15081TIP3    H266659   6.279   4.484  14.513  1.4073  0.4613 -0.0114
15082TIP3   OH266660   4.937   6.649   0.249 -0.7372 -0.3666 -0.2418
15082TIP3    H166661   4.922   6.668   0.342  0.2500  0.8660 -0.3114
15082TIP3    H266662   4.851   6.655   0.208 -1.1237 -0.5433  0.5279
15083TIP3   OH266663   4.298   2.294   5.611  0.1783 -0.0910 -0.2226
15083TIP3    H166664   4.308   2.374   5.664 -0.7792 -0.2836  0.2728
15083TIP3    H266665   4.356   2.230   5.653 -0.9489 -0.3953  0.9452
15084TIP3   OH266666   0.867   2.580   3.921 -0.2477 -0.0223 -0.7936
15084TIP3    H166667   0.797   2.644   3.935 -1.3614 -1.2470 -0.6087
15084TIP3    H266668   0.935   2.604   3.984 -1.1851  0.2337  0.1516
15085TIP3   OH266669   3.499   0.973  12.604  0.9057 -0.2874 -0.0904
15085TIP3    H166670   3.466   0.893  12.646  1.3867 -0.7985 -0.6715
15085TIP3    H266671   3.486   1.041  12.670 -0.8145 -0.5657 -0.1080
15086TIP3   OH266672   0.643   6.268   4.732 -1.0052 -0.2547  0.1624
15086TIP3    H166673   0.636   6.178   4.767  0.1651 -0.7382 -0.7978
15086TIP3    H266674   0.578   6.270   4.661 -3.1521  0.6274  2.0269
15087TIP3   OH266675   3.415   4.422   4.260 -0.4831  0.2424 -0.1515
15087TIP3    H166676   3.438   4.444   4.351  0.1747 -0.7622 -0.0571
15087TIP3    H266677   3.413   4.327   4.258  1.6824  0.1603 -1.6875
15088TIP3   OH266678   1.160   2.983  14.699  0.0606  0.2210 -0.2518
15088TIP3    H166679   1.072   2.992  14.665  0.1217  0.9906 -0.2464
15088TIP3    H266680   1.210   3.051  14.654  0.5836 -0.0197 -0.0478
15089TIP3   OH266681   1.090   2.025  11.712  0.3115 -0.2624 -0.8509
15089TIP3    H166682   1.037   2.001  11.635  0.6921 -0.8271 -0.9444
15089TIP3    H266683   1.180   2.019  11.682  0.4432  0.3933 -0.6022
15090TIP3   OH266684   1.564   5.175  11.891 -0.3636  0.0631 -0.4007
15090TIP3    H166685   1.602   5.099  11.846 -0.2927  0.0527 -0.3241
15090TIP3    H266686   1.575   5.155  11.984 -0.7939 -0.0593 -0.3769
15091TIP3   OH266687   6.487   5.345  16.276 -0.1691 -0.4849 -0.8141
15091TIP3    H166688   6.420   5.284  16.244  1.1969 -1.2484 -2.3938
15091TIP3    H266689   6.504   5.402  16.201 -0.1174  0.6818  0.0580
15092TIP3   OH266690   0.178   4.181   4.656  0.2575 -0.2026  0.4628
15092TIP3    H166691   0.194   4.092   4.625  2.9314  0.7422 -1.1749
15092TIP3    H266692   0.127   4.170   4.737  0.4639 -3.1788  0.2720
15093TIP3   OH266693   5.278   3.660  15.749 -0.5033 -0.3695 -0.6976
15093TIP3    H166694   5.275   3.582  15.694  1.9221 -1.3984  0.4792
15093TIP3    H266695   5.275   3.627  15.839  1.0867  0.7996 -0.1652
15094TIP3   OH266696   2.854   2.054   0.731 -0.5939  0.4216 -0.1918
15094TIP3    H166697   2.894   1.991   0.791 -0.2206 -0.1009 -0.9546
15094TIP3    H266698   2.784   2.005   0.688 -0.6394  0.6815 -0.4167
15095TIP3   OH266699   6.607   3.449   1.836  0.0799 -0.1884 -0.1694
15095TIP3    H166700   6.642   3.527   1.793  1.8089  0.2019  1.7521
15095TIP3    H266701   6.554   3.482   1.908 -0.4047 -0.8088 -0.2268
15096TIP3   OH266702   2.744   3.744   2.464 -0.2325  0.4589  0.0822
15096TIP3    H166703   2.778   3.667   2.509  1.0829  0.9142 -0.1009
15096TIP3    H266704   2.767   3.817   2.521 -1.5231  0.7322  0.2841
15097TIP3   OH266705   4.885   5.758   6.401 -0.3801  0.2366  0.0020
15097TIP3    H166706   4.833   5.677   6.407  2.3034 -1.5553  1.0868
15097TIP3    H266707   4.872   5.800   6.486 -0.5817  0.1571  0.0130
15098TIP3   OH266708   3.347   1.173   5.712 -0.6851 -0.6080  0.1796
15098TIP3    H166709   3.384   1.107   5.769  0.7790 -1.5653 -1.7604
15098TIP3    H266710   3.255   1.178   5.737 -0.2646 -1.5434  2.0334
15099TIP3   OH266711   3.671   0.277   5.762  0.1134  0.0770  0.2928
15099TIP3    H166712   3.739   0.225   5.805  0.2055  0.2180  0.3212
15099TIP3    H266713   3.603   0.287   5.829  0.8810  1.5091  0.9293
15100TIP3   OH266714   6.499   0.149   6.014  0.3048  0.4471 -0.0445
15100TIP3    H166715   6.445   0.148   6.093 -0.4834  1.4498 -0.5595
15100TIP3    H266716   6.564   0.218   6.030 -1.0535  2.0210 -1.0233
15101TIP3   OH266717   6.150   5.927   2.326  0.1546 -1.0303  0.4272
15101TIP3    H166718   6.056   5.919   2.345  0.1250 -1.8417 -0.0022
15101TIP3    H266719   6.154   5.986   2.251 -0.0317 -1.1326  0.3354
15102TIP3   OH266720   1.174   0.854  16.580 -0.2988 -0.1053  0.0954
15102TIP3    H166721   1.079   0.868  16.589 -0.4162 -0.1931 -0.9076
15102TIP3    H266722   1.192   0.779  16.637 -0.8276 -0.0624  0.3258
15103TIP3   OH266723   2.098   0.084  11.770 -0.4382  0.4654  0.6983
15103TIP3    H166724   2.004   0.067  11.767 -0.2936 -0.2623 -0.8142
15103TIP3    H266725   2.129   0.032  11.844 -0.8600 -1.4895 -0.4305
15104TIP3   OH266726   0.343   5.280  16.985 -0.2541  0.3989  0.2528
15104TIP3    H166727   0.347   5.186  16.971 -2.4380  0.5001 -1.6694
15104TIP3    H266728   0.433   5.310  16.974  0.0279 -1.1045 -2.2680
15105TIP3   OH266729   6.579   4.512  12.100  0.0664 -0.0391 -0.6709
15105TIP3    H166730   6.616   4.423  12.101 -0.9163 -0.4829  1.5344
15105TIP3    H266731   6.576   4.538  12.192 -4.1581  0.3315 -0.7441
15106TIP3   OH266732   2.345   5.175  11.325 -0.0738 -0.0246  0.0332
15106TIP3    H166733   2.252   5.189  11.305 -0.0104 -1.8970 -1.9542
15106TIP3    H266734   2.345   5.130  11.409 -1.1334 -1.7548 -0.8382
15107TIP3   OH266735   3.355   5.443   4.957 -0.1781  0.1598 -0.0023
15107TIP3    H166736   3.435   5.426   5.007 -0.0558 -0.6506 -0.4562
15107TIP3    H266737   3.363   5.534   4.928 -0.1284  0.5669  1.2071
15108TIP3   OH266738   6.199   3.008  17.268  0.7578 -0.8760  0.1702
15108TIP3    H166739   6.282   2.962  17.283  0.9394 -1.1719 -1.4712
15108TIP3    H266740   6.195   3.018  17.173 -0.5483  0.1749  0.3074
15109TIP3   OH266741   0.308   2.947   0.959  0.0444  0.2662  0.3397
15109TIP3    H166742   0.270   2.918   1.042  0.1933 -0.0912  0.2860
15109TIP3    H266743   0.384   2.891   0.947 -0.3867 -0.1683 -0.3958
15110TIP3   OH266744   4.410   4.777  15.235  0.0745  0.1945  0.2781
15110TIP3    H166745   4.417   4.808  15.325 -1.7901 -0.3628  0.6451
15110TIP3    H266746   4.468   4.835  15.185 -0.9954  2.3397  1.3974
15111TIP3   OH266747   5.428   6.635  16.201 -0.7622 -0.3623  0.4431
15111TIP3    H166748   5.506   6.587  16.230  1.3197  2.0157 -0.7308
15111TIP3    H266749   5.403   6.688  16.277 -0.4795 -0.2921  0.4906
15112TIP3   OH266750   2.903   6.743  13.447  0.1883 -0.1370 -0.1926
15112TIP3    H166751   2.921   6.714  13.536 -0.1237  1.6568  0.4886
15112TIP3    H266752   2.873   6.833  13.456 -1.1787 -0.3463 -1.9974
15113TIP3   OH266753   6.284   4.050  11.344  0.4564  0.6618 -0.2476
15113TIP3    H166754   6.267   4.082  11.255  0.6363  0.5237 -0.3323
15113TIP3    H266755   6.256   4.122  11.401  2.6745  1.8291 -0.4921
15114TIP3   OH266756   1.511   0.093  13.382 -0.3875 -0.5423  0.2685
15114TIP3    H166757   1.557   0.017  13.416  2.0797  1.0765  0.8235
15114TIP3    H266758   1.509   0.155  13.456  1.1457  1.3640 -1.1652
15115TIP3   OH266759   3.025   5.365  15.095 -0.0947 -0.1829 -0.1903
15115TIP3    H166760   3.043   5.414  15.015  0.9646 -0.1786  0.0410
15115TIP3    H266761   3.021   5.274  15.066 -0.9241 -0.0821 -0.4313
15116TIP3   OH266762   0.634   2.778  12.011 -0.2257  0.1011  0.2168
15116TIP3    H166763   0.558   2.722  11.994  0.3309 -0.7775  0.5663
15116TIP3    H266764   0.691   2.765  11.936  0.3920 -0.6429  0.8068
15117TIP3   OH266765   3.063   4.170   1.095  0.0884 -0.1781 -0.1821
15117TIP3    H166766   3.088   4.194   1.184  1.6074  0.1631 -0.6824
15117TIP3    H266767   3.103   4.237   1.039 -1.2648 -0.0942 -1.0995
15118TIP3   OH266768   3.261   4.664   6.108  0.3346  0.0785 -0.0433
15118TIP3    H166769   3.305   4.579   6.111  2.3864  1.0944  0.3568
15118TIP3    H266770   3.277   4.695   6.019 -0.4169  0.0447 -0.1895
15119TIP3   OH266771   0.409   2.113   1.376 -0.0506 -0.5272 -0.3213
15119TIP3    H166772   0.354   2.185   1.409  0.8376  0.8607 -1.7354
15119TIP3    H266773   0.358   2.034   1.392 -0.8942  0.3481  1.6641
15120TIP3   OH266774   0.342   5.056  17.201 -0.1270 -0.0835 -0.2319
15120TIP3    H166775   0.362   5.008  17.120 -0.3392  0.1986 -0.4538
15120TIP3    H266776   0.422   5.050  17.253 -0.4202 -1.3972  0.1036
15121TIP3   OH266777   4.711   4.761   4.102  0.4782  0.4819  0.4644
15121TIP3    H166778   4.664   4.695   4.052  1.7466 -0.6565  0.7239
15121TIP3    H266779   4.654   4.838   4.101 -0.7199 -0.3993 -0.4098
15122TIP3   OH266780   5.374   6.273  14.982  0.2584  0.3041  0.2833
15122TIP3    H166781   5.368   6.179  14.963 -0.3074  0.2769  0.5785
15122TIP3    H266782   5.410   6.311  14.902 -0.3096 -0.0592 -0.1592
15123TIP3   OH266783   4.541   2.951  12.811 -0.1586 -0.2234 -0.4816
15123TIP3    H166784   4.551   2.991  12.897  1.0266 -1.1845 -0.1353
15123TIP3    H266785   4.471   3.000  12.769 -1.1100 -0.0490  1.2236
15124TIP3   OH266786   6.586   5.569  16.122  0.3254 -0.0183 -0.1971
15124TIP3    H166787   6.663   5.512  16.130  0.6285  0.2079 -1.3256
15124TIP3    H266788   6.570   5.574  16.027  0.0189  1.3834 -0.0914
15125TIP3   OH266789   3.752   3.128  14.807  0.4603 -0.0175  0.0346
15125TIP3    H166790   3.682   3.147  14.744 -1.1261  0.0053  1.7125
15125TIP3    H266791   3.833   3.141  14.757 -0.7019 -0.0685 -1.9973
15126TIP3   OH266792   1.461   1.381  15.933  0.5059 -0.2094  0.4425
15126TIP3    H166793   1.385   1.323  15.937  0.2428  0.1908  1.5484
15126TIP3    H266794   1.425   1.470  15.934  0.8321  0.0590 -2.5948
15127TIP3   OH266795   3.925   4.760   5.429  0.5546 -0.4650 -0.8846
15127TIP3    H166796   3.839   4.733   5.461 -0.3249  0.2762 -2.5266
15127TIP3    H266797   3.915   4.852   5.405  1.0755 -0.9816 -3.3662
15128TIP3   OH266798   5.066   6.688  12.737  0.1067  0.0972 -0.4454
15128TIP3    H166799   5.063   6.642  12.820  3.1151  0.1936 -0.1634
15128TIP3    H266800   5.054   6.620  12.671 -1.4509 -0.1092  0.0230
15129TIP3   OH266801   2.385   1.782  16.338 -0.1273 -0.3879 -0.2720
15129TIP3    H166802   2.371   1.738  16.254  0.1852 -0.5900 -0.2183
15129TIP3    H266803   2.389   1.875  16.317 -0.2377 -0.4241 -0.4543
15130TIP3   OH266804   0.351   6.185  12.589 -0.0257  0.0602 -0.2207
15130TIP3    H166805   0.369   6.194  12.496  0.8068 -0.0428 -0.0766
15130TIP3    H266806   0.356   6.091  12.606  1.7630  0.2156  0.2845
15131TIP3   OH266807   3.608   4.194   2.249  0.9115 -0.4081 -0.1990
15131TIP3    H166808   3.577   4.114   2.206 -0.1614 -0.0412 -0.1281
15131TIP3    H266809   3.543   4.260   2.226  1.0718  0.1282  0.8332
15132TIP3   OH266810   1.932   3.738   4.462  0.0284  0.2465  0.4210
15132TIP3    H166811   1.887   3.706   4.540 -0.2921  0.3237  0.2672
15132TIP3    H266812   1.912   3.673   4.395 -0.2862  0.5557  0.2146
15133TIP3   OH266813   4.347   3.425   3.347 -0.5670 -0.5722 -0.2897
15133TIP3    H166814   4.301   3.371   3.283 -0.3362  0.2548 -1.1744
15133TIP3    H266815   4.357   3.510   3.304  1.3047 -0.5587  0.0807
15134TIP3   OH266816   3.999   0.407  11.733  0.3396  0.4979 -0.0199
15134TIP3    H166817   4.089   0.408  11.700  0.9584 -0.0547  1.5307
15134TIP3    H266818   3.975   0.500  11.738  0.9363  0.6673 -0.1535
15135TIP3   OH266819   5.736   5.569  14.927 -0.3486  0.3214 -0.3565
15135TIP3    H166820   5.687   5.635  14.976 -0.7373 -0.4633  0.3264
15135TIP3    H266821   5.791   5.620  14.867  0.5802  1.3276  1.2856
15136TIP3   OH266822   3.886   4.195   2.949  0.3979 -0.2182 -0.4592
15136TIP3    H166823   3.863   4.144   2.871  0.4944 -0.1964 -0.5028
15136TIP3    H266824   3.944   4.137   2.999  0.3887 -0.2077 -0.4367
15137TIP3   OH266825   0.439   4.957   3.540 -0.2090  0.4786  0.4579
15137TIP3    H166826   0.355   5.002   3.540  0.1890  1.2455  1.0737
15137TIP3    H266827   0.423   4.875   3.586 -0.0415  1.7825  2.9828
15138TIP3   OH266828   4.486   3.383   3.084  0.7297 -0.3607 -0.1584
15138TIP3    H166829   4.547   3.312   3.104  0.8475 -0.3135 -0.3514
15138TIP3    H266830   4.523   3.459   3.127  0.2400 -0.5588  0.6410
15139TIP3   OH266831   4.835   2.749  15.276  0.0371 -0.2495 -0.0383
15139TIP3    H166832   4.875   2.717  15.357  1.2105 -0.6293 -0.7413
15139TIP3    H266833   4.814   2.670  15.227  2.2458 -0.0513 -1.4471
15140TIP3   OH266834   3.598   6.126   1.985  0.6613 -0.1605 -0.2319
15140TIP3    H166835   3.567   6.040   1.958 -0.1863  0.0316  0.0736
15140TIP3    H266836   3.632   6.113   2.074 -1.7181  0.2263  0.8375
15141TIP3   OH266837   4.570   3.068  11.493 -0.2620 -0.3513 -0.1036
15141TIP3    H166838   4.581   2.998  11.429  0.1645 -0.4086  0.0245
15141TIP3    H266839   4.490   3.114  11.466 -0.8049 -1.1754  0.0889
15142TIP3   OH266840   5.293   5.265  12.315  0.2287 -0.0768 -0.0803
15142TIP3    H166841   5.225   5.293  12.253  0.2972  1.3330  0.4389
15142TIP3    H266842   5.358   5.221  12.260 -1.0998 -1.5093 -0.5750
15143TIP3   OH266843   5.145   0.800  14.563 -0.4974 -0.4759 -0.0123
15143TIP3    H166844   5.233   0.771  14.538 -0.4327  0.3551 -0.8082
15143TIP3    H266845   5.105   0.723  14.604  0.3646 -1.0652 -0.2558
15144TIP3   OH266846   4.156   0.188   2.226 -0.2948  0.2338  0.0068
15144TIP3    H166847   4.141   0.278   2.196 -1.7142 -0.3691 -1.1778
15144TIP3    H266848   4.095   0.177   2.299  0.5547  0.4998  0.7894
15145TIP3   OH266849   3.492   0.296  13.973  0.4665  0.3810 -0.4932
15145TIP3    H166850   3.479   0.390  13.961 -1.7187  0.0985 -0.7177
15145TIP3    H266851   3.520   0.265  13.887  1.4059  0.8320 -0.3649
15146TIP3   OH266852   4.936   1.576  15.317  0.3239 -0.5207 -0.1689
15146TIP3    H166853   4.968   1.662  15.346 -0.6188 -0.4516  0.7086
15146TIP3    H266854   4.992   1.554  15.242  1.0471  0.5300  0.0371
15147TIP3   OH266855   4.672   4.968   0.844  0.3121 -0.1745 -0.2152
15147TIP3    H166856   4.698   5.016   0.765  0.8001  0.1484  0.1310
15147TIP3    H266857   4.755   4.933   0.879 -0.1013 -1.8180 -0.8015
15148TIP3   OH266858   0.063   6.723  13.643 -0.0130  0.0370  0.2953
15148TIP3    H166859  -0.013   6.682  13.684 -0.7005 -0.8366 -1.7454
15148TIP3    H266860   0.132   6.656  13.649  0.0261  0.0889  0.4273
15149TIP3   OH266861   1.451   1.898   5.315  0.2635 -0.3801  0.4187
15149TIP3    H166862   1.367   1.853   5.305 -0.0813  0.4223 -0.4938
15149TIP3    H266863   1.499   1.876   5.236  0.8548 -0.6968  0.8635
15150TIP3   OH266864   2.631   6.492  16.013  0.3387 -0.0976  0.1400
15150TIP3    H166865   2.659   6.473  16.102  0.6823 -0.4520 -0.0362
15150TIP3    H266866   2.671   6.577  15.993  1.0130 -0.4343  0.0174
15151TIP3   OH266867   6.240   2.878   5.329 -0.0004  0.1345 -0.2245
15151TIP3    H166868   6.251   2.784   5.310 -0.1388  0.2087 -0.6902
15151TIP3    H266869   6.173   2.881   5.397  0.7201 -0.1592  0.5211
15152TIP3   OH266870   2.235   3.718  12.318  0.2195 -0.1222  0.1438
15152TIP3    H166871   2.308   3.659  12.304  0.1723 -0.2760  0.5406
15152TIP3    H266872   2.273   3.806  12.312  0.9952 -0.1530  2.9178
15153TIP3   OH266873   2.647   0.838  15.736  0.2470 -0.2979  0.2361
15153TIP3    H166874   2.700   0.913  15.764 -0.8003 -0.3136  2.4524
15153TIP3    H266875   2.689   0.763  15.777  1.2134 -0.9960 -1.8733
15154TIP3   OH266876   2.701   6.084   1.656 -0.1248  0.7449  0.0784
15154TIP3    H166877   2.713   6.089   1.751  0.1153 -0.4973  0.1331
15154TIP3    H266878   2.651   6.162   1.634 -0.8134  0.6858  1.3359
15155TIP3   OH266879   2.347   3.400  15.155  0.0189  0.0083  0.3532
15155TIP3    H166880   2.421   3.348  15.184 -0.0197  0.4388  1.2794
15155TIP3    H266881   2.270   3.344  15.170  0.2359 -1.0853 -2.1525
15156TIP3   OH266882   3.341   6.489   1.979  0.5406  0.1950  0.0972
15156TIP3    H166883   3.407   6.558   1.970 -1.3948  1.9835 -1.2770
15156TIP3    H266884   3.368   6.423   1.915  1.6011  0.3488  0.3583
15157TIP3   OH266885   2.246   3.238   3.593  0.3625 -0.0408  0.4997
15157TIP3    H166886   2.300   3.192   3.657  2.5413 -1.0777 -1.9188
15157TIP3    H266887   2.303   3.306   3.558 -0.6055  0.1843 -0.6998
15158TIP3   OH266888   3.138   6.135   0.285  0.0122  0.2715  0.4894
15158TIP3    H166889   3.094   6.151   0.369  0.5521  1.1073  0.6202
15158TIP3    H266890   3.195   6.210   0.273  1.0705 -0.5672  0.0874
15159TIP3   OH266891   2.358   5.298   5.471 -0.1038 -0.1285 -0.0308
15159TIP3    H166892   2.348   5.392   5.484 -3.3561 -0.2570 -0.6903
15159TIP3    H266893   2.337   5.260   5.557  0.5755 -0.2864  0.0698
15160TIP3   OH266894   0.502   1.020  12.168 -0.0705 -0.0003  0.3115
15160TIP3    H166895   0.429   0.989  12.221 -2.4415  2.6304 -1.0809
15160TIP3    H266896   0.580   1.004  12.221 -1.9604 -0.2283  3.2508
15161TIP3   OH266897   5.315   4.080  14.840  0.0977 -0.2215 -0.7526
15161TIP3    H166898   5.397   4.128  14.829  1.4480 -1.2571  3.0787
15161TIP3    H266899   5.247   4.147  14.835  1.4370  1.1582 -1.1355
15162TIP3   OH266900   2.818   1.021  17.247  0.2445 -0.6343  0.4299
15162TIP3    H166901   2.733   1.038  17.289 -0.0513 -0.6759 -0.1414
15162TIP3    H266902   2.864   1.105  17.252 -0.2774 -0.2983 -0.2572
15163TIP3   OH266903   2.760   2.062   0.351  0.0797 -0.2332 -0.2353
15163TIP3    H166904   2.744   2.141   0.403 -0.7427  0.2370 -1.1731
15163TIP3    H266905   2.737   1.990   0.410 -1.0824  0.2967 -0.0107
15164TIP3   OH266906   1.977   1.042  16.503  0.3667  0.1148  0.6158
15164TIP3    H166907   2.024   1.116  16.542 -0.7470  0.6475  1.0034
15164TIP3    H266908   1.885   1.068  16.507  0.1168 -0.4132 -1.1623
15165TIP3   OH266909   5.223   4.794   6.403 -0.6474  0.1827  0.4595
15165TIP3    H166910   5.310   4.823   6.432  0.1082 -0.7559 -0.7862
15165TIP3    H266911   5.163   4.856   6.445  0.7409  2.2502 -0.4096
15166TIP3   OH266912   5.247   2.071   3.800 -0.0396 -0.2238  0.1661
15166TIP3    H166913   5.276   2.013   3.729 -1.5009 -0.5232 -0.2267
15166TIP3    H266914   5.247   2.016   3.878 -1.8599 -0.9506 -0.2859
15167TIP3   OH266915   5.344   3.578   2.348  0.1362 -0.5672 -0.7977
15167TIP3    H166916   5.264   3.625   2.374  0.7774 -0.3351  0.9312
15167TIP3    H266917   5.324   3.486   2.365 -0.1375 -0.6254 -1.4276
15168TIP3   OH266918   4.312   5.901   4.695  0.1064  0.5184 -0.0305
15168TIP3    H166919   4.257   5.947   4.758 -0.1800 -0.6386  0.6055
15168TIP3    H266920   4.399   5.899   4.736 -0.2897 -1.0676  0.8278
15169TIP3   OH266921   3.359   2.920  15.271 -0.2775  0.1561  0.5412
15169TIP3    H166922   3.332   3.007  15.300  1.0712  1.0231 -0.6290
15169TIP3    H266923   3.437   2.902  15.324 -0.8996 -0.6366  1.2103
15170TIP3   OH266924   1.998   1.338  11.003  0.2616 -0.2861  0.0324
15170TIP3    H166925   1.986   1.247  10.976  2.5752 -0.0838 -1.9289
15170TIP3    H266926   1.971   1.390  10.928 -0.5500  0.6846  0.9502
15171TIP3   OH266927   3.311   6.628  14.461 -0.4006 -0.2421  0.2355
15171TIP3    H166928   3.350   6.716  14.463 -0.5841 -0.1404  3.0852
15171TIP3    H266929   3.218   6.644  14.475 -0.4691 -0.8597  0.5008
15172TIP3   OH266930   3.975   5.013   5.628  0.7270 -1.1439 -0.2182
15172TIP3    H166931   3.986   4.973   5.714  0.2566 -1.0092 -0.0955
15172TIP3    H266932   3.961   5.106   5.646 -2.4213 -1.5217 -0.2173
15173TIP3   OH266933   3.837   1.959  14.355 -0.6887 -0.5766 -0.6838
15173TIP3    H166934   3.855   2.043  14.397  0.1207 -0.9271 -0.3206
15173TIP3    H266935   3.911   1.944  14.297 -0.9462 -0.9280 -0.9257
15174TIP3   OH266936   5.503   5.041   2.645 -0.1071 -0.1619  0.0032
15174TIP3    H166937   5.518   5.040   2.740  0.6986 -1.6550 -0.1123
15174TIP3    H266938   5.577   5.092   2.610  1.2605 -2.0927 -0.0312
15175TIP3   OH266939   6.646   2.983   0.058  0.2083  0.1661  0.9839
15175TIP3    H166940   6.622   3.074   0.075 -0.5380  1.1063 -3.6717
15175TIP3    H266941   6.735   2.988   0.024 -0.9497 -0.1560 -2.5146
15176TIP3   OH266942   4.798   2.854   1.644  0.3968 -1.1382 -0.7070
15176TIP3    H166943   4.786   2.776   1.589 -0.3744 -1.3739 -0.2187
15176TIP3    H266944   4.854   2.911   1.592 -1.2344 -0.8693 -2.2717
15177TIP3   OH266945   6.301   4.221  10.822 -0.0507 -0.4692 -0.0125
15177TIP3    H166946   6.247   4.299  10.811  0.0963 -0.5849 -1.7146
15177TIP3    H266947   6.343   4.207  10.737  0.2453 -2.1678  0.3659
15178TIP3   OH266948   2.330   3.813   0.137  0.2810 -0.3094 -0.4279
15178TIP3    H166949   2.304   3.722   0.148  0.6801 -0.2880  0.8892
15178TIP3    H266950   2.421   3.816   0.167  0.5179  0.3781 -1.1783
15179TIP3   OH266951   5.869   0.962   2.655  1.0008 -0.5946 -0.4957
15179TIP3    H166952   5.963   0.945   2.662  1.2227  0.6130 -0.4140
15179TIP3    H266953   5.850   0.952   2.562  1.3463 -0.2092 -0.6141
15180TIP3   OH266954   3.303   1.190  15.269 -0.4236 -0.0831 -0.3979
15180TIP3    H166955   3.305   1.178  15.174  0.6109  0.2211 -0.4226
15180TIP3    H266956   3.393   1.211  15.293 -0.9893  1.5821  0.4318
15181TIP3   OH266957   1.722   6.682  17.248 -0.3843 -0.4072 -0.3767
15181TIP3    H166958   1.746   6.716  17.162 -0.3791 -0.7372 -0.5066
15181TIP3    H266959   1.725   6.759  17.306  0.8633 -0.4168 -0.4111
15182TIP3   OH266960   2.473   2.448   2.457 -0.1431 -0.2079 -0.7862
15182TIP3    H166961   2.559   2.406   2.461  0.6761  1.3299 -1.3132
15182TIP3    H266962   2.424   2.397   2.393  0.5488 -0.7987 -0.8560
15183TIP3   OH266963   0.608   0.729   1.732  0.1767  0.1446  0.5272
15183TIP3    H166964   0.578   0.742   1.822  0.9076  1.9644  0.5406
15183TIP3    H266965   0.552   0.659   1.698  0.3229 -1.0378  2.5786
15184TIP3   OH266966   4.106   1.414   3.686  0.1606  0.1475 -1.0114
15184TIP3    H166967   4.187   1.369   3.662  0.2590 -1.5831  2.1581
15184TIP3    H266968   4.037   1.351   3.668 -0.0557  0.0393  0.1558
15185TIP3   OH266969   2.740   3.075  15.168 -0.5372  0.4726 -0.2965
15185TIP3    H166970   2.835   3.077  15.179 -0.6007  2.5448  0.2585
15185TIP3    H266971   2.711   3.004  15.225  0.6861 -0.3674 -0.6833
15186TIP3   OH266972   5.626   3.597  12.566 -0.3529 -0.2214  0.0854
15186TIP3    H166973   5.584   3.656  12.504  1.1668 -1.4985 -2.3029
15186TIP3    H266974   5.553   3.563  12.619 -1.6620  1.2072 -0.7261
15187TIP3   OH266975   1.487   3.343  11.385  0.1368 -0.0460  0.1544
15187TIP3    H166976   1.500   3.249  11.369  1.8150 -0.0133  1.1165
15187TIP3    H266977   1.432   3.347  11.463 -2.7952 -0.1715 -1.7347
15188TIP3   OH266978   3.332   5.391   4.657 -0.0212 -0.3511 -0.1455
15188TIP3    H166979   3.242   5.423   4.657  0.6858  1.8328  0.7640
15188TIP3    H266980   3.364   5.409   4.745  1.9640  1.0542 -1.0746
15189TIP3   OH266981   3.817   3.181   3.308 -0.1246  0.0087  0.1124
15189TIP3    H166982   3.866   3.261   3.288 -1.5379  0.5984 -1.1577
15189TIP3    H266983   3.738   3.187   3.255 -0.2789 -2.2545 -0.0037
15190TIP3   OH266984   4.481   0.384  16.053 -0.2606 -0.6443 -0.0693
15190TIP3    H166985   4.441   0.467  16.029  0.8540  0.1321  0.6864
15190TIP3    H266986   4.432   0.354  16.129 -0.3959 -0.4675 -0.0869
15191TIP3   OH266987   0.679   3.994  15.140 -0.1785 -0.2923  0.1415
15191TIP3    H166988   0.740   3.952  15.200 -0.2223 -1.5128 -0.6392
15191TIP3    H266989   0.613   4.034  15.197  0.7362  0.1028  0.9482
15192TIP3   OH266990   0.133   3.999   6.111 -0.3035  0.5189  0.5330
15192TIP3    H166991   0.070   3.948   6.163 -0.6197  1.6614  1.3008
15192TIP3    H266992   0.094   4.086   6.105  0.1383  0.6418 -0.9281
15193TIP3   OH266993   4.867   4.238  10.543  0.1990  0.2086 -0.6797
15193TIP3    H166994   4.786   4.282  10.569 -0.3471 -0.7424 -0.7473
15193TIP3    H266995   4.850   4.145  10.556  1.1741 -0.0294 -0.9985
15194TIP3   OH266996   5.493   6.360   1.787  0.5130 -0.0655  0.1303
15194TIP3    H166997   5.502   6.273   1.749 -0.0043 -0.3973  0.7533
15194TIP3    H266998   5.580   6.399   1.778  1.0264 -1.0383  0.7900
15195TIP3   OH266999   2.665   4.731   2.451 -0.2602 -0.4991 -0.2482
15195TIP3    H167000   2.710   4.660   2.406  0.3026 -0.2803 -0.0426
15195TIP3    H267001   2.653   4.699   2.541 -0.1458 -0.3903 -0.1949
15196TIP3   OH267002   2.075   0.162  13.232  0.2218 -0.0465 -0.4792
15196TIP3    H167003   2.053   0.071  13.213  0.0151 -0.0688 -0.1578
15196TIP3    H267004   2.148   0.156  13.294 -0.4391 -0.0189  0.3234
15197TIP3   OH267005   4.480   5.602  15.319  0.2066 -0.3101  0.0347
15197TIP3    H167006   4.395   5.566  15.292  0.8911 -2.1461  0.1650
15197TIP3    H267007   4.498   5.671  15.255 -1.5152  0.3657  0.2105
15198TIP3   OH267008   1.121   6.241   5.760 -0.2291 -0.6257  0.0710
15198TIP3    H167009   1.053   6.212   5.821  0.3135 -0.1411  0.9271
15198TIP3    H267010   1.196   6.261   5.816 -0.3006  1.6286 -0.5662
15199TIP3   OH267011   4.116   2.396  14.352  0.0155  0.4186  0.0080
15199TIP3    H167012   4.157   2.390  14.438 -0.2874  0.8767  0.1879
15199TIP3    H267013   4.169   2.459  14.304  1.0529 -0.8952 -0.6553
15200TIP3   OH267014   0.183   3.798   3.132  0.3342  0.4642  0.3465
15200TIP3    H167015   0.175   3.727   3.197 -0.4251  0.2795  0.0638
15200TIP3    H267016   0.140   3.763   3.054  1.3258  0.6484 -0.3020
15201TIP3   OH267017   6.104   3.601  16.980 -0.3372  0.2914 -0.2238
15201TIP3    H167018   6.010   3.619  16.979 -0.5104 -0.3992 -2.7155
15201TIP3    H267019   6.110   3.506  16.987  0.2615  0.4110  1.2917
15202TIP3   OH267020   0.801   6.539   3.290 -0.0190 -0.0545 -0.2272
15202TIP3    H167021   0.822   6.569   3.201 -0.0527 -1.8240 -0.8648
15202TIP3    H267022   0.817   6.616   3.345 -0.2535  1.1606 -1.7833
15203TIP3   OH267023   1.301   2.520  13.134  0.1647 -0.1671 -0.4672
15203TIP3    H167024   1.265   2.435  13.160  1.7922 -1.3614 -1.8499
15203TIP3    H267025   1.396   2.505  13.133  0.3957  1.1631 -2.3475
15204TIP3   OH267026   2.618   1.524   1.719 -0.0828 -0.1099 -0.1326
15204TIP3    H167027   2.594   1.434   1.700 -0.2634  0.0001 -0.4284
15204TIP3    H267028   2.682   1.547   1.651  0.6104 -0.2917  0.4480
15205TIP3   OH267029   0.749   5.842   6.514 -0.3431 -0.3867 -0.2868
15205TIP3    H167030   0.774   5.929   6.546  1.9257 -0.6659 -1.1112
15205TIP3    H267031   0.686   5.860   6.445 -0.7867  0.5368  0.3325
15206TIP3   OH267032   3.951   6.654   2.170 -0.2619  0.5505  0.0287
15206TIP3    H167033   3.902   6.576   2.193 -1.1638  1.3583  0.9460
15206TIP3    H267034   3.975   6.693   2.254  1.1199  0.6913 -0.4103
15207TIP3   OH267035   3.205   5.048  13.117 -0.3339 -0.4768  0.2314
15207TIP3    H167036   3.154   4.972  13.145 -0.0259  0.0553  2.4412
15207TIP3    H267037   3.253   5.076  13.195  1.3468  0.6266 -1.0981
15208TIP3   OH267038   5.817   4.279  15.472  0.1394 -1.1675 -0.3893
15208TIP3    H167039   5.837   4.234  15.554  1.1388 -0.3956 -0.1960
15208TIP3    H267040   5.872   4.357  15.473  0.0465 -1.0593 -1.7182
15209TIP3   OH267041   2.289   5.326  15.091 -0.2802 -0.7356  0.0417
15209TIP3    H167042   2.273   5.266  15.165  0.7581  1.0637  1.8182
15209TIP3    H267043   2.381   5.352  15.101  0.0602 -0.8797 -2.2692
15210TIP3   OH267044   1.767   4.718  12.639  0.0867 -0.0812 -0.0748
15210TIP3    H167045   1.722   4.740  12.721 -0.6002 -1.2190 -0.1207
15210TIP3    H267046   1.833   4.654  12.665  1.1521  0.9564 -0.1406
15211TIP3   OH267047   4.552   2.568  12.852 -0.0821 -0.3139 -0.0462
15211TIP3    H167048   4.491   2.580  12.780 -0.7161 -1.2698  0.3083
15211TIP3    H267049   4.543   2.476  12.876  0.8589 -0.2559  0.5915
15212TIP3   OH267050   4.572   1.004   6.445  0.4983 -0.2374  0.5130
15212TIP3    H167051   4.511   1.078   6.452  1.1703  0.5799 -1.4787
15212TIP3    H267052   4.649   1.032   6.493  0.8955  0.5672 -0.5503
15213TIP3   OH267053   6.205   0.552  10.921  0.3372 -0.1501  0.0760
15213TIP3    H167054   6.250   0.635  10.904  0.0783 -0.0333 -0.0378
15213TIP3    H267055   6.213   0.539  11.015  0.5460 -0.0909  0.0668
15214TIP3   OH267056   2.547   5.731   3.837 -0.0213  0.1010 -0.6951
15214TIP3    H167057   2.594   5.648   3.848 -0.5166 -0.0774  0.2393
15214TIP3    H267058   2.615   5.796   3.822  0.5158 -0.1962  0.3732
15215TIP3   OH267059   6.181   6.456   3.661 -0.0494  0.0253  0.3435
15215TIP3    H167060   6.156   6.508   3.738 -0.5601  1.1809 -0.5883
15215TIP3    H267061   6.271   6.481   3.644 -0.2338  0.4683  0.0107
15216TIP3   OH267062   2.343   4.073   5.779  0.1306  0.3050 -0.0299
15216TIP3    H167063   2.383   4.085   5.692 -0.5361  0.1900 -0.3600
15216TIP3    H267064   2.270   4.135   5.781 -0.6891 -0.6198 -0.0873
15217TIP3   OH267065   3.182   4.161  15.375 -0.3461 -0.2100  0.1535
15217TIP3    H167066   3.188   4.077  15.330  1.0786 -0.0016 -0.1138
15217TIP3    H267067   3.190   4.226  15.305 -0.6339  0.1421  0.4419
15218TIP3   OH267068   1.140   0.060  17.064  0.1965 -0.3845  0.5123
15218TIP3    H167069   1.076   0.008  17.114 -1.1099  1.3037  0.6776
15218TIP3    H267070   1.105   0.062  16.975  1.1847 -1.2477  0.0818
15219TIP3   OH267071   3.111   3.559  13.341 -0.1651 -0.3365 -0.8461
15219TIP3    H167072   3.193   3.607  13.334 -0.3054 -0.1626 -1.3249
15219TIP3    H267073   3.121   3.486  13.281 -0.6162  0.0613 -1.4169
15220TIP3   OH267074   4.719   4.743  13.900 -0.2256  0.1271  0.2240
15220TIP3    H167075   4.710   4.649  13.887 -2.7125  0.4179 -0.6836
15220TIP3    H267076   4.733   4.779  13.813  1.6958  0.5665  0.6682
15221TIP3   OH267077   0.339   2.258   3.232  0.4032 -0.1988 -0.4319
15221TIP3    H167078   0.280   2.237   3.304  2.2209 -0.2310  1.1080
15221TIP3    H267079   0.376   2.173   3.205 -0.9063 -0.3132 -2.0584
15222TIP3   OH267080   0.900   4.270   3.492 -0.0388 -0.6106  0.4088
15222TIP3    H167081   0.978   4.325   3.502 -0.4285 -0.1341  0.9298
15222TIP3    H267082   0.923   4.207   3.424  0.5783 -0.0762  0.1130
15223TIP3   OH267083   0.288   0.468   0.268 -0.6060 -0.0972  0.7343
15223TIP3    H167084   0.300   0.489   0.361  0.4788 -0.3150  0.6511
15223TIP3    H267085   0.243   0.544   0.232  1.4429  1.2633  0.8780
15224TIP3   OH267086   1.054   0.923   3.048 -0.4255 -0.6315 -0.1752
15224TIP3    H167087   1.068   0.884   3.134  0.8288 -1.4547 -0.7057
15224TIP3    H267088   0.962   0.906   3.028 -0.7967 -0.1751  1.1101
15225TIP3   OH267089   1.020   0.570  15.870  0.4418  0.0956  0.1524
15225TIP3    H167090   1.057   0.562  15.958 -0.6176 -1.4665  0.4922
15225TIP3    H267091   0.996   0.481  15.845 -4.4273  1.0055  0.6177
15226TIP3   OH267092   3.871   5.240  15.247  0.8787 -0.4948 -0.3979
15226TIP3    H167093   3.797   5.180  15.234  1.2981 -0.5542 -2.9375
15226TIP3    H267094   3.945   5.182  15.266  0.9104 -0.6667 -1.0264
15227TIP3   OH267095   5.824   4.925   0.389  0.6165  0.4296  0.1201
15227TIP3    H167096   5.747   4.870   0.377  1.0125 -0.3843  1.1427
15227TIP3    H267097   5.812   4.997   0.326 -1.1916  0.5787  0.5719
15228TIP3   OH267098   2.203   4.325   4.055  0.3115  0.1840  0.5307
15228TIP3    H167099   2.178   4.309   3.964 -1.0770 -0.9036  1.0542
15228TIP3    H267100   2.200   4.238   4.096 -0.6038  0.8522  1.9568
15229TIP3   OH267101   2.655   3.537   4.051 -0.5409  0.6102  0.8295
15229TIP3    H167102   2.634   3.628   4.029 -1.4516  0.5788  1.5202
15229TIP3    H267103   2.571   3.492   4.050 -0.1229 -0.1782  0.7322
15230TIP3   OH267104   3.487   4.270  15.615 -0.2378 -0.6817  0.2213
15230TIP3    H167105   3.476   4.308  15.528 -1.7115 -1.0973  0.2070
15230TIP3    H267106   3.543   4.194  15.601 -0.6837 -0.8968 -0.4077
15231TIP3   OH267107   3.169   4.540   1.659 -0.0902 -0.7942 -0.7455
15231TIP3    H167108   3.210   4.622   1.631 -0.4563 -0.7374 -1.1328
15231TIP3    H267109   3.101   4.567   1.720  1.1096 -0.9615  0.7189
15232TIP3   OH267110   1.251   1.286   3.533 -0.2470 -0.6274  0.1236
15232TIP3    H167111   1.172   1.340   3.532 -0.0426 -0.1985  2.3716
15232TIP3    H267112   1.219   1.196   3.536 -0.6314 -0.4823  0.3572
15233TIP3   OH267113   6.205   1.634   5.181 -0.3438  0.7823 -0.6695
15233TIP3    H167114   6.129   1.688   5.158 -1.8879 -1.6258 -1.6648
15233TIP3    H267115   6.168   1.547   5.197  2.0541 -0.1233  0.4024
15234TIP3   OH267116   2.723   5.721  15.765  0.0879  0.1439  0.0333
15234TIP3    H167117   2.649   5.668  15.732  0.7170 -1.4901  1.1014
15234TIP3    H267118   2.684   5.778  15.831 -0.3001 -0.4252  0.3042
15235TIP3   OH267119   2.202   6.019  17.149  0.1893 -0.5350 -0.0769
15235TIP3    H167120   2.238   6.085  17.209 -1.3158  0.4158 -0.1777
15235TIP3    H267121   2.115   6.000  17.184 -0.4779 -0.4179 -1.5791
15236TIP3   OH267122   5.576   2.397   3.397  0.8019 -0.2741  0.1361
15236TIP3    H167123   5.623   2.314   3.388 -1.5958 -1.6579 -0.5636
15236TIP3    H267124   5.510   2.379   3.465  0.7877  1.3479  0.5838
15237TIP3   OH267125   2.281   5.453  10.422  0.4224  0.3464  0.4036
15237TIP3    H167126   2.210   5.390  10.438  0.3263  0.6785  1.3252
15237TIP3    H267127   2.239   5.539  10.433  1.0611  0.5397  1.3461
15238TIP3   OH267128   3.266   1.951   2.747  0.4310  0.1297 -0.0480
15238TIP3    H167129   3.310   1.905   2.675  0.0561 -0.8555  0.3278
15238TIP3    H267130   3.248   2.038   2.712  1.1429 -0.0071 -0.7987
15239TIP3   OH267131   1.111   2.838  12.699  0.3678 -0.4206 -0.1810
15239TIP3    H167132   1.201   2.815  12.719  0.5606  0.2060 -0.2933
15239TIP3    H267133   1.063   2.755  12.700  0.7897 -0.6631  0.6702
15240TIP3   OH267134   1.956   3.848  11.790  0.2150 -0.5695  0.5309
15240TIP3    H167135   1.914   3.932  11.809  1.7086  0.3092  0.0769
15240TIP3    H267136   1.953   3.800  11.873  2.6473  1.4230  1.8929
15241TIP3   OH267137   1.215   1.320  17.211 -0.3981  0.7185 -0.0424
15241TIP3    H167138   1.283   1.384  17.188  0.4297  0.2846  1.0785
15241TIP3    H267139   1.213   1.321  17.306 -1.1708 -0.1042 -0.0393
15242TIP3   OH267140   0.013   0.372   1.117  0.0746 -0.0969 -0.2652
15242TIP3    H167141   0.036   0.300   1.176  0.6702  2.7367  3.3780
15242TIP3    H267142   0.095   0.422   1.108 -0.9050  1.5777 -0.3202
15243TIP3   OH267143   1.064   3.291  15.366  0.2079  1.3182  0.3615
15243TIP3    H167144   1.010   3.299  15.288 -1.7417 -0.4202  1.4301
15243TIP3    H267145   1.153   3.303  15.335 -0.4439  0.0539 -2.2653
15244TIP3   OH267146   5.858   5.909  12.502  0.0362  0.3681  0.5801
15244TIP3    H167147   5.825   5.828  12.540 -0.6359  1.7361  3.0555
15244TIP3    H267148   5.916   5.946  12.569  1.3808  1.3395 -1.0165
15245TIP3   OH267149   0.974   0.738  11.810 -1.0740  0.4898  0.3139
15245TIP3    H167150   0.908   0.785  11.759  0.4203  0.1608 -2.0830
15245TIP3    H267151   0.975   0.650  11.773  0.1402  0.2667  0.8356
15246TIP3   OH267152   0.106   1.326  16.223 -0.4161 -0.0051 -0.2471
15246TIP3    H167153   0.187   1.282  16.198 -0.1653  0.2575  0.1058
15246TIP3    H267154   0.100   1.315  16.318 -1.0815 -0.5089 -0.3314
15247TIP3   OH267155   2.775   1.952  16.257 -0.2279 -0.4194 -0.9838
15247TIP3    H167156   2.744   1.863  16.272 -1.1127  0.3293  2.5641
15247TIP3    H267157   2.698   2.001  16.229 -0.6880 -0.0448  0.8217
15248TIP3   OH267158   1.571   3.816   3.526  0.1587 -0.2188 -0.0538
15248TIP3    H167159   1.550   3.744   3.586 -0.0064  0.5594  0.8566
15248TIP3    H267160   1.666   3.810   3.513 -0.0460 -1.4003 -1.0588
15249TIP3   OH267161   3.765   0.603   2.059 -1.0404 -0.1636  0.1362
15249TIP3    H167162   3.778   0.590   1.965  0.5237 -2.3117  0.5614
15249TIP3    H267163   3.753   0.697   2.069 -2.5983 -0.0016 -2.3317
15250TIP3   OH267164   2.864   0.937  16.196  0.2095 -0.2261  0.5728
15250TIP3    H167165   2.830   0.857  16.158 -0.1911  0.0915  0.2558
15250TIP3    H267166   2.951   0.948  16.156  2.0219 -2.5370  3.4358
15251TIP3   OH267167   2.261   0.375   0.664  0.0932  0.5047  0.6794
15251TIP3    H167168   2.225   0.463   0.672 -2.7272 -0.5977  0.9587
15251TIP3    H267169   2.276   0.347   0.754 -2.8916 -0.7136  0.8988
15252TIP3   OH267170   0.574   0.352   3.044 -0.4902 -0.6902 -0.4612
15252TIP3    H167171   0.533   0.280   3.092 -0.6767  0.1926  0.7177
15252TIP3    H267172   0.667   0.347   3.067 -0.3933 -0.9440 -0.8942
15253TIP3   OH267173   1.279   5.335   5.280 -0.7673 -0.3054  0.2242
15253TIP3    H167174   1.316   5.267   5.224 -1.4635 -0.2195 -0.3449
15253TIP3    H267175   1.303   5.309   5.369 -0.1727 -0.7574 -0.0666
15254TIP3   OH267176   4.109   1.393  12.929  0.4559  0.5600  0.0475
15254TIP3    H167177   4.172   1.321  12.921 -1.3373 -0.9104 -1.7111
15254TIP3    H267178   4.038   1.357  12.983  0.2724  1.5852  0.5092
15255TIP3   OH267179   5.398   6.747   0.024 -0.0005  0.1176  0.3307
15255TIP3    H167180   5.465   6.800  -0.019  1.2756 -0.2870  1.7559
15255TIP3    H267181   5.358   6.807   0.087 -2.2222  0.8639 -1.6444
15256TIP3   OH267182   2.320   5.156  10.647 -0.1502  0.1517 -0.4623
15256TIP3    H167183   2.355   5.105  10.720  1.8746  0.3176 -1.2579
15256TIP3    H267184   2.228   5.129  10.641  0.2456 -1.6082  0.6362
15257TIP3   OH267185   2.422   4.373   5.044 -0.0244 -0.0241 -0.2986
15257TIP3    H167186   2.463   4.459   5.034 -1.3812  0.6064 -0.6235
15257TIP3    H267187   2.337   4.382   5.002 -2.1261 -0.0955  3.5184
15258TIP3   OH267188   2.917   3.749   5.609 -0.3803  0.4648 -0.2369
15258TIP3    H167189   2.951   3.835   5.631  0.6898 -0.0543  0.1733
15258TIP3    H267190   2.992   3.701   5.574 -1.0805 -0.1386 -0.9613
15259TIP3   OH267191   0.228   5.357   4.651  0.1058  0.2408  0.4438
15259TIP3    H167192   0.204   5.265   4.644 -1.3100  0.6825 -0.9868
15259TIP3    H267193   0.168   5.393   4.717 -0.2944  0.4355 -0.0243
15260TIP3   OH267194   0.348   2.290   1.870 -0.2527 -0.7626  0.3530
15260TIP3    H167195   0.366   2.260   1.781  1.6472 -0.6865  0.6775
15260TIP3    H267196   0.422   2.259   1.922  0.7439  2.4676  1.1317
15261TIP3   OH267197   1.471   5.450  10.738  0.2065  0.4858  0.0211
15261TIP3    H167198   1.385   5.448  10.780 -0.5339  1.3929 -1.3455
15261TIP3    H267199   1.501   5.360  10.741 -0.0924  0.4083  1.8624
15262TIP3   OH267200   0.976   0.122   5.287  0.3157 -0.2842  0.2547
15262TIP3    H167201   1.016   0.121   5.374 -0.0434  0.0344  0.4252
15262TIP3    H267202   0.984   0.032   5.256  2.3644  0.0275 -0.2666
15263TIP3   OH267203   0.897   2.983   2.892  1.1369 -0.3832 -0.7360
15263TIP3    H167204   0.847   3.057   2.860 -0.3525 -1.8479 -1.9655
15263TIP3    H267205   0.967   2.971   2.828  1.1434 -0.2681 -0.7490
15264TIP3   OH267206   3.267   5.500   2.084 -0.6205  0.0814 -0.5407
15264TIP3    H167207   3.297   5.554   2.011  0.2698 -0.2925 -0.4720
15264TIP3    H267208   3.251   5.414   2.044 -1.3078  0.1920 -0.5136
15265TIP3   OH267209   5.330   5.165   3.206 -0.3266  0.0695  0.4056
15265TIP3    H167210   5.327   5.251   3.248  0.7240 -0.5888  1.9173
15265TIP3    H267211   5.396   5.174   3.138 -0.1868  0.4441  0.5883
15266TIP3   OH267212   0.674   0.028  15.726  0.1495 -0.0089 -0.1467
15266TIP3    H167213   0.581   0.040  15.745  0.3149 -1.4985  1.9654
15266TIP3    H267214   0.719   0.077  15.795  0.9064 -0.2227 -0.4768
15267TIP3   OH267215   2.547   1.281  17.236  0.2552  0.3392 -0.4946
15267TIP3    H167216   2.576   1.279  17.327  0.9756 -1.7278 -0.7226
15267TIP3    H267217   2.462   1.325  17.239  0.1644  0.1145  1.2192
15268TIP3   OH267218   0.121   1.048  16.526 -0.6466  0.0847  0.4390
15268TIP3    H167219   0.176   1.102  16.470 -0.4708  0.9260  1.3966
15268TIP3    H267220   0.042   1.032  16.474 -0.3024  0.4670 -0.2147
15269TIP3   OH267221   1.898   6.569   2.600  0.1990  0.1770 -0.2026
15269TIP3    H167222   1.873   6.586   2.691  1.0639 -1.4358  0.3935
15269TIP3    H267223   1.994   6.559   2.603  0.1037 -1.2471 -1.0161
15270TIP3   OH267224   5.730   2.404  15.996 -0.1064  0.2080 -0.5362
15270TIP3    H167225   5.794   2.460  15.952  0.0243  0.8133  0.3774
15270TIP3    H267226   5.742   2.317  15.958  0.4393  0.5739 -1.2086
15271TIP3   OH267227   2.981   1.877  15.235 -0.4684 -0.7703  0.3436
15271TIP3    H167228   3.018   1.947  15.289  0.4806 -1.2047  0.2647
15271TIP3    H267229   3.049   1.811  15.230 -0.6315 -0.8711 -1.1536
15272TIP3   OH267230   1.581   5.409  12.733 -1.0315 -0.4137  0.3024
15272TIP3    H167231   1.574   5.321  12.696  1.7925 -1.0672  1.1207
15272TIP3    H267232   1.567   5.467  12.657  2.3863 -1.6944 -1.5189
15273TIP3   OH267233   5.116   2.319   4.842  0.2587 -0.1343  0.3536
15273TIP3    H167234   5.092   2.255   4.909  0.1725 -1.4187 -0.8439
15273TIP3    H267235   5.170   2.269   4.780 -2.3416  0.0280 -2.2755
15274TIP3   OH267236   3.886   4.796  15.190 -0.4979  0.3313 -0.1779
15274TIP3    H167237   3.813   4.764  15.243 -0.2208 -0.0447 -0.0229
15274TIP3    H267238   3.918   4.873  15.238 -0.8507  0.5576 -0.2980
15275TIP3   OH267239   2.418   0.328   4.480  0.5876 -0.4442 -0.0917
15275TIP3    H167240   2.465   0.411   4.474  0.0257  0.0418  1.5148
15275TIP3    H267241   2.327   0.351   4.463  0.6211 -1.0073 -1.1004
15276TIP3   OH267242   1.999   1.842  16.238 -0.6873 -0.9417  0.1560
15276TIP3    H167243   2.024   1.828  16.330  1.5538  0.5955 -0.1236
15276TIP3    H267244   1.904   1.836  16.237 -0.7786 -0.8289  2.6111
15277TIP3   OH267245   1.127   1.027   6.063 -0.2969 -0.1554 -0.0110
15277TIP3    H167246   1.173   1.110   6.077  1.4062 -0.8749 -1.1207
15277TIP3    H267247   1.191   0.960   6.086 -1.4847 -1.1931  0.3622
15278TIP3   OH267248   0.793   6.600  14.356  0.0858  0.0951  0.3899
15278TIP3    H167249   0.705   6.580  14.387  0.1013  0.1381  0.4612
15278TIP3    H267250   0.850   6.570  14.426  0.0835  0.8547  0.7265
15279TIP3   OH267251   1.303   3.649  13.808  0.3376 -0.1665  0.4755
15279TIP3    H167252   1.366   3.607  13.868  1.8139  1.1043 -0.1160
15279TIP3    H267253   1.259   3.715  13.862  0.4605 -0.1631  0.5734
15280TIP3   OH267254   4.680   3.097  11.037 -0.3467  0.2863  0.1097
15280TIP3    H167255   4.639   3.183  11.030  0.8224  1.0085  1.5356
15280TIP3    H267256   4.616   3.044  11.086 -1.0259  0.3563 -0.6839
15281TIP3   OH267257   6.097   2.710  17.002  0.1364  0.2159 -0.2403
15281TIP3    H167258   6.117   2.651  16.930  4.2213 -0.5877  1.2767
15281TIP3    H267259   6.104   2.798  16.965  0.8824 -0.1941 -1.0999
15282TIP3   OH267260   2.941   6.548  11.707  0.4418  0.5679  0.0385
15282TIP3    H167261   2.857   6.584  11.678 -1.0732 -0.5753  2.6501
15282TIP3    H267262   2.932   6.453  11.693  1.0121  0.3643  0.9527
15283TIP3   OH267263   3.707   1.758   1.225 -0.3372 -0.2330 -0.0352
15283TIP3    H167264   3.799   1.750   1.198 -0.2889 -0.7940  0.2785
15283TIP3    H267265   3.706   1.727   1.316 -0.7875  0.0450  0.0547
15284TIP3   OH267266   2.221   6.174   4.509 -0.5356 -0.0928  0.2158
15284TIP3    H167267   2.228   6.078   4.514  2.1852  0.0763  3.0108
15284TIP3    H267268   2.288   6.199   4.445  0.3433  0.0017  1.1527
15285TIP3   OH267269   6.095   5.608   3.575 -0.1925 -0.1903  0.3787
15285TIP3    H167270   6.151   5.572   3.506 -0.9211 -0.0029 -0.3201
15285TIP3    H267271   6.036   5.669   3.530 -0.3388  0.3253  1.2419
15286TIP3   OH267272   5.661   2.449   4.951 -0.0088  0.0614 -0.4315
15286TIP3    H167273   5.705   2.444   4.867  0.8601  0.7703 -0.0403
15286TIP3    H267274   5.647   2.358   4.977  0.3174 -0.1623 -1.0337
15287TIP3   OH267275   2.230   5.743  13.823 -0.2494  0.5754  0.3496
15287TIP3    H167276   2.177   5.819  13.845  0.2961  1.3954 -1.0253
15287TIP3    H267277   2.319   5.778  13.815  0.0896 -0.3005  0.1867
15288TIP3   OH267278   2.495   6.175   2.979 -0.3320 -0.6279  0.1126
15288TIP3    H167279   2.515   6.198   3.070  3.3092  1.1253 -0.9479
15288TIP3    H267280   2.555   6.103   2.959 -0.7101 -0.6288 -1.0497
15289TIP3   OH267281   6.414   6.351  12.825 -0.0007 -0.3957  0.3211
15289TIP3    H167282   6.336   6.324  12.874 -0.2489  1.0022  0.7481
15289TIP3    H267283   6.479   6.372  12.893 -0.3534  1.5874  0.1140
15290TIP3   OH267284   4.262   6.537   2.137 -0.5466  0.7509 -0.1999
15290TIP3    H167285   4.186   6.482   2.154 -0.7323  0.8301 -0.7442
15290TIP3    H267286   4.277   6.529   2.043  0.7429 -0.0562  0.0504
15291TIP3   OH267287   3.332   0.447  14.759  0.5639 -0.0519  0.2060
15291TIP3    H167288   3.339   0.467  14.853 -0.5405  1.2296  0.0518
15291TIP3    H267289   3.242   0.419  14.747  0.4696  0.5691 -0.5963
15292TIP3   OH267290   5.638   2.628   5.391 -0.4839  0.3508  0.4069
15292TIP3    H167291   5.663   2.568   5.321 -2.5640 -2.2399  1.7072
15292TIP3    H267292   5.606   2.706   5.345 -1.7047 -1.2167 -1.5930
15293TIP3   OH267293   0.264   5.787   6.117  0.3660 -0.0094  0.8658
15293TIP3    H167294   0.309   5.731   6.180 -1.3606 -0.5878  1.6583
15293TIP3    H267295   0.173   5.756   6.118  0.1780  0.2247 -1.6250
15294TIP3   OH267296   4.755   5.813   2.652  0.0772  0.1134 -0.1910
15294TIP3    H167297   4.790   5.870   2.721 -1.5093 -0.2198  0.9691
15294TIP3    H267298   4.809   5.735   2.657 -0.8997 -0.5282  1.7890
15295TIP3   OH267299   0.212   2.521   2.254  0.0134  0.2493 -0.2410
15295TIP3    H167300   0.189   2.607   2.288 -1.0502  0.1207 -0.5958
15295TIP3    H267301   0.170   2.459   2.315  0.7122 -0.0216 -0.0266
15296TIP3   OH267302   4.617   5.207   1.202 -0.2922 -0.7217 -0.1821
15296TIP3    H167303   4.667   5.207   1.120  0.9099 -0.5347  0.5387
15296TIP3    H267304   4.644   5.127   1.246  0.0094 -0.1997  0.5945
15297TIP3   OH267305   6.632   5.869   4.943 -0.2260 -0.7667  0.2796
15297TIP3    H167306   6.664   5.871   5.033  1.3704  0.1810 -0.2609
15297TIP3    H267307   6.551   5.819   4.947  0.4301 -1.7674  2.0430
15298TIP3   OH267308   3.984   4.018   5.704 -0.6178  0.1207 -0.5114
15298TIP3    H167309   4.020   4.093   5.657 -0.6178  0.9948  0.8232
15298TIP3    H267310   4.047   3.948   5.691  0.6749  1.1014  0.3031
15299TIP3   OH267311   6.014   2.729   3.622  0.2383 -0.1662  0.4343
15299TIP3    H167312   6.100   2.768   3.630 -0.9234  2.3127  2.1179
15299TIP3    H267313   5.980   2.726   3.711 -2.0999  0.6872 -0.3445
15300TIP3   OH267314   6.343   3.830   2.859 -0.5222  0.6130  0.7793
15300TIP3    H167315   6.319   3.864   2.773 -1.4121 -0.4188  0.5845
15300TIP3    H267316   6.269   3.853   2.915 -0.2155  0.7660  1.1196
15301TIP3   OH267317   0.331   2.956   4.149  0.2043  0.4025 -0.2196
15301TIP3    H167318   0.354   2.875   4.104 -0.6035  1.4697 -2.7284
15301TIP3    H267319   0.315   3.019   4.078 -0.5457  2.3834  1.6080
15302TIP3   OH267320   0.468   2.959   1.428  0.8704  0.3872  0.5582
15302TIP3    H167321   0.406   2.931   1.496  0.0061 -0.1775 -0.4329
15302TIP3    H267322   0.553   2.957   1.471  0.0809  2.6661  2.4163
15303TIP3   OH267323   2.643   4.201  15.964 -0.1279  0.3330 -0.4256
15303TIP3    H167324   2.723   4.224  15.917  0.5844  0.5633  0.8563
15303TIP3    H267325   2.597   4.284  15.975  0.8443  0.6725  1.3072
15304TIP3   OH267326   3.373   4.316  16.726  0.1512  0.0307  0.2998
15304TIP3    H167327   3.417   4.234  16.746 -0.2754 -0.5306 -0.9596
15304TIP3    H267328   3.283   4.291  16.706 -0.3419  0.9675  1.2021
15305TIP3   OH267329   2.280   3.516   0.091 -0.1480 -0.2816  0.0599
15305TIP3    H167330   2.204   3.486   0.042  0.4008 -2.7729  0.5928
15305TIP3    H267331   2.354   3.501   0.032  0.3619 -2.0815  1.0631
15306TIP3   OH267332   2.468   1.457   5.464  0.7313 -0.3040 -0.2324
15306TIP3    H167333   2.524   1.481   5.538  0.0948 -1.9170  0.8293
15306TIP3    H267334   2.494   1.367   5.444  1.6206  0.4365 -2.6976
15307TIP3   OH267335   5.517   3.340   4.344  0.1386 -0.0510  0.1679
15307TIP3    H167336   5.447   3.403   4.361  0.4759 -0.2395  2.7235
15307TIP3    H267337   5.475   3.255   4.354  0.2383 -0.2115 -0.7138
15308TIP3   OH267338   2.664   1.169  17.017  0.8857 -0.6383 -0.1631
15308TIP3    H167339   2.753   1.184  17.051  0.1810 -2.5567  2.9124
15308TIP3    H267340   2.606   1.198  17.087 -1.0334  0.4432 -2.0530
15309TIP3   OH267341   4.675   1.912   0.246 -0.2186 -0.4506 -0.2548
15309TIP3    H167342   4.605   1.926   0.310  0.6365  0.8204  0.4611
15309TIP3    H267343   4.643   1.842   0.190 -2.1119  0.1802 -0.0298
15310TIP3   OH267344   1.253   4.917  11.998  0.3621  0.3066  0.9043
15310TIP3    H167345   1.195   4.881  12.065  0.9201  0.1283  1.2995
15310TIP3    H267346   1.341   4.906  12.034  0.7486 -0.6101 -0.2365
15311TIP3   OH267347   2.416   3.960   4.459 -0.6253  0.1735  0.7875
15311TIP3    H167348   2.411   3.942   4.365  0.9587  0.9829  0.5027
15311TIP3    H267349   2.466   3.886   4.495  2.8473  1.9908  0.1688
15312TIP3   OH267350   0.299   5.757  15.212  0.0651 -0.4454  0.0388
15312TIP3    H167351   0.242   5.682  15.199 -0.3513 -0.3355  1.0888
15312TIP3    H267352   0.385   5.719  15.233  0.3946 -0.6090 -1.4917
15313TIP3   OH267353   4.124   1.084   1.918  0.3046 -0.0426 -0.0163
15313TIP3    H167354   4.098   1.106   2.008  0.4608 -0.6585  0.1915
15313TIP3    H267355   4.044   1.091   1.867  0.5680  2.2090 -0.2352
15314TIP3   OH267356   0.885   1.812   5.135 -0.6227 -0.0926  0.2258
15314TIP3    H167357   0.792   1.798   5.146 -0.5695 -0.0496  0.7454
15314TIP3    H267358   0.926   1.733   5.169 -0.4586 -0.0353  0.1653
15315TIP3   OH267359   0.024   5.395   1.631  0.7088  0.4003  0.0169
15315TIP3    H167360   0.084   5.320   1.631  1.2196  0.7563 -1.7445
15315TIP3    H267361   0.078   5.469   1.603  0.1270  1.3854  1.3748
15316TIP3   OH267362   1.937   1.093  13.009  0.0730 -0.2192 -0.4151
15316TIP3    H167363   1.923   1.138  13.092 -0.7979  2.3491 -1.8221
15316TIP3    H267364   1.854   1.050  12.990 -0.1062  0.1540 -0.4812
15317TIP3   OH267365   1.453   5.398  16.856 -0.4530  0.3887  0.1916
15317TIP3    H167366   1.392   5.332  16.889  0.4222 -1.1402 -1.1013
15317TIP3    H267367   1.401   5.449  16.793 -0.1006 -2.0988 -2.3590
15318TIP3   OH267368   2.237   5.959   5.371  0.2303 -0.3047  0.3706
15318TIP3    H167369   2.156   5.931   5.412 -0.0019 -0.0815  0.0744
15318TIP3    H267370   2.209   6.020   5.302  0.6034 -0.7292 -0.1654
15319TIP3   OH267371   1.460   4.201  16.210 -0.1787  0.2562  0.7530
15319TIP3    H167372   1.545   4.243  16.221  0.8608 -1.3291 -0.7926
15319TIP3    H267373   1.478   4.108  16.211 -1.7653 -0.1197 -0.5434
15320TIP3   OH267374   3.853   3.721  15.877  0.4876 -0.3330  0.4830
15320TIP3    H167375   3.783   3.686  15.932 -0.7895 -1.3679 -1.6995
15320TIP3    H267376   3.933   3.704  15.927 -0.6182 -1.0282  2.1073
15321TIP3   OH267377   6.445   4.312  14.884 -0.3510  0.7176 -0.2196
15321TIP3    H167378   6.479   4.389  14.930  0.3942 -0.0510  0.5594
15321TIP3    H267379   6.485   4.317  14.797  2.0417 -0.2770  0.7350
15322TIP3   OH267380   3.163   6.294   3.912 -0.2659  0.3829 -0.2834
15322TIP3    H167381   3.196   6.382   3.928  0.2358 -0.0216  1.0718
15322TIP3    H267382   3.217   6.260   3.841  0.2568  0.8008 -0.0928
15323TIP3   OH267383   4.723   6.398   1.498 -0.0591 -0.4729 -0.2896
15323TIP3    H167384   4.774   6.320   1.522  0.4320  0.3784  1.6300
15323TIP3    H267385   4.632   6.371   1.506  0.1083 -0.9545  0.0249
15324TIP3   OH267386   6.673   1.364   1.902 -0.1947  0.0618 -0.1219
15324TIP3    H167387   6.683   1.420   1.825 -0.4702  0.1032 -0.1295
15324TIP3    H267388   6.641   1.422   1.971 -0.3934 -0.0664 -0.1048
15325TIP3   OH267389   6.570   6.295  12.539  0.3350 -0.2007 -0.0029
15325TIP3    H167390   6.489   6.249  12.516  0.4665 -0.6038  0.3323
15325TIP3    H267391   6.544   6.359  12.605 -0.2006  1.5176 -1.7627
15326TIP3   OH267392   6.159   6.690   2.574 -0.4097 -0.3334  0.4658
15326TIP3    H167393   6.133   6.737   2.653  0.9022  0.8240  0.2483
15326TIP3    H267394   6.105   6.728   2.505  1.3127  1.6889  0.1096
15327TIP3   OH267395   6.455   5.273   1.819  0.2359  0.5354 -0.2978
15327TIP3    H167396   6.477   5.297   1.729 -1.7674  0.5846 -0.8239
15327TIP3    H267397   6.483   5.182   1.827 -0.2097  0.2966 -1.2385
15328TIP3   OH267398   3.194   5.843   4.681 -0.0170 -0.3551 -0.8589
15328TIP3    H167399   3.101   5.826   4.667  0.2929 -1.3889 -1.8662
15328TIP3    H267400   3.201   5.938   4.692 -1.0649 -0.1662 -1.7547
15329TIP3   OH267401   6.017   2.946   0.492  0.3152 -0.0118  0.3617
15329TIP3    H167402   5.975   2.935   0.407 -0.7861  0.2193  0.8591
15329TIP3    H267403   6.026   3.041   0.503 -1.2964  0.0565  1.3101
15330TIP3   OH267404   2.751   2.869  12.862 -0.4164 -0.0816 -0.1042
15330TIP3    H167405   2.758   2.776  12.885  1.0931  0.2993  1.1123
15330TIP3    H267406   2.806   2.878  12.783  0.1987 -0.0652  0.3173
15331TIP3   OH267407   6.453   3.538  11.032  0.0453 -0.4378 -0.3730
15331TIP3    H167408   6.451   3.488  10.950  0.2540  1.1864 -1.3988
15331TIP3    H267409   6.538   3.580  11.033  0.2399 -0.8111  0.9464
15332TIP3   OH267410   0.935   1.285   2.716 -0.3052 -0.1731 -0.7408
15332TIP3    H167411   0.887   1.336   2.780 -0.7025 -0.3170 -0.9201
15332TIP3    H267412   0.922   1.194   2.743  1.8431 -0.1691  0.6181
15333TIP3   OH267413   0.642   4.404  14.996  0.0263 -0.1016  0.1004
15333TIP3    H167414   0.652   4.388  14.903  1.2367  2.7724 -0.3758
15333TIP3    H267415   0.705   4.345  15.038  1.7364  0.7293 -1.1830
15334TIP3   OH267416   0.148   4.575   3.641  0.0067 -0.0110 -0.3216
15334TIP3    H167417   0.201   4.497   3.624  0.2770  0.2499 -0.7001
15334TIP3    H267418   0.068   4.562   3.590 -0.2861 -0.3878  0.2207
15335TIP3   OH267419   5.764   1.782  11.201  1.1250  0.6483 -0.1069
15335TIP3    H167420   5.803   1.694  11.194 -0.6111 -0.0759 -1.0903
15335TIP3    H267421   5.737   1.804  11.112 -1.3413  0.7918  0.6186
15336TIP3   OH267422   1.479   1.729   6.147 -0.8424 -0.0854 -0.9175
15336TIP3    H167423   1.446   1.801   6.201  0.0852  0.6354 -1.2871
15336TIP3    H267424   1.470   1.652   6.203  0.9514  0.7650  0.6591
15337TIP3   OH267425   0.236   1.339  16.953 -0.2231 -0.3609 -0.2752
15337TIP3    H167426   0.154   1.373  16.917  0.3692 -0.6314 -1.9376
15337TIP3    H267427   0.267   1.276  16.888  0.2075 -1.9192  1.3456
15338TIP3   OH267428   0.672   2.507   6.047  0.4796  0.1384 -0.1409
15338TIP3    H167429   0.696   2.595   6.076  0.4897  0.0116  0.2438
15338TIP3    H267430   0.755   2.465   6.028  0.4375  0.4623 -1.0808
15339TIP3   OH267431   1.112   2.567  13.387  0.1734 -0.4487  0.3261
15339TIP3    H167432   1.182   2.629  13.367  0.9545 -1.2886  0.4078
15339TIP3    H267433   1.155   2.482  13.387 -0.5337 -0.8395  1.9255
15340TIP3   OH267434   2.378   2.352   3.856 -0.2920  0.6942 -0.0040
15340TIP3    H167435   2.375   2.447   3.863  0.7359  0.6907  0.6222
15340TIP3    H267436   2.379   2.321   3.946 -0.1632  0.1042 -0.2039
15341TIP3   OH267437   0.669   1.294  14.108  0.0345 -0.2152  0.1859
15341TIP3    H167438   0.580   1.259  14.106 -1.1497  2.5603 -1.1012
15341TIP3    H267439   0.658   1.386  14.133  2.7131 -0.1134  1.3442
15342TIP3   OH267440   3.776   0.681   3.859  0.0331  0.0849  0.0026
15342TIP3    H167441   3.767   0.742   3.932  0.6446  1.2946 -0.9060
15342TIP3    H267442   3.711   0.613   3.877  0.5462  0.0535  1.9406
15343TIP3   OH267443   1.693   5.060  15.788 -0.1344  0.2144 -0.1674
15343TIP3    H167444   1.692   5.006  15.709  3.4299  0.3591 -0.4993
15343TIP3    H267445   1.781   5.097  15.790 -0.4711  1.1891  3.2729
15344TIP3   OH267446   2.359   3.671  11.999  0.5575 -0.2768  0.1265
15344TIP3    H167447   2.420   3.610  11.957 -0.7615 -0.9852 -0.8493
15344TIP3    H267448   2.281   3.668  11.943 -0.4186  0.4941  1.4105
15345TIP3   OH267449   6.328   4.593  11.299 -0.1888 -0.6578  0.0015
15345TIP3    H167450   6.402   4.592  11.238 -1.4240  0.6957 -1.6057
15345TIP3    H267451   6.361   4.546  11.376  2.1690 -0.5321 -0.8264
15346TIP3   OH267452   1.543   0.263   5.328 -0.3879  0.9684 -0.3302
15346TIP3    H167453   1.621   0.288   5.277 -0.2478  0.9247 -0.1382
15346TIP3    H267454   1.511   0.185   5.284  0.4783  0.1730  0.4032
15347TIP3   OH267455   4.315   0.252  15.839  0.1481  0.0530 -0.0520
15347TIP3    H167456   4.361   0.313  15.781  1.0981  1.9636  2.5147
15347TIP3    H267457   4.328   0.288  15.926 -3.3352 -1.2845  1.1726
15348TIP3   OH267458   2.616   4.120  11.154  0.2708 -0.0509 -0.5870
15348TIP3    H167459   2.707   4.091  11.160  0.2940 -0.1233 -1.2539
15348TIP3    H267460   2.620   4.215  11.165 -0.0344 -0.3206  4.2530
15349TIP3   OH267461   3.649   1.523   3.001  0.2167  0.2253  0.4151
15349TIP3    H167462   3.589   1.568   3.061  0.9572  1.7082  0.0894
15349TIP3    H267463   3.726   1.502   3.054  0.8275  1.4416  0.0314
15350TIP3   OH267464   6.553   5.237   4.541  0.1460 -0.1410  0.4743
15350TIP3    H167465   6.556   5.146   4.570  0.7724 -0.5779 -0.9007
15350TIP3    H267466   6.590   5.286   4.615  0.9596 -1.1292  0.7467
15351TIP3   OH267467   1.058   3.236   3.319 -0.5550 -0.2042 -0.4655
15351TIP3    H167468   1.046   3.178   3.244 -1.0337  1.2491 -1.5463
15351TIP3    H267469   1.126   3.297   3.292  0.4006 -0.6110  0.8947
15352TIP3   OH267470   1.771   0.000  15.770  0.2882  0.2652 -0.3796
15352TIP3    H167471   1.732  -0.040  15.847 -0.4095  1.2031 -0.2301
15352TIP3    H267472   1.786  -0.073  15.710  0.3386 -0.3975  0.4247
15353TIP3   OH267473   1.619   6.189  12.105  0.3956  0.5138  0.3167
15353TIP3    H167474   1.612   6.280  12.076 -1.2171  1.0034  2.0827
15353TIP3    H267475   1.535   6.170  12.146  0.3259 -2.1050 -0.8036
15354TIP3   OH267476   3.991   3.578   4.066  0.0747  0.5624  0.3563
15354TIP3    H167477   3.913   3.574   4.121  0.3100  0.2724  0.6782
15354TIP3    H267478   4.040   3.654   4.098  0.1444  0.4733  0.4679
15355TIP3   OH267479   6.645   5.256   0.672  0.2025 -0.2651  0.5345
15355TIP3    H167480   6.729   5.277   0.712  0.1907 -0.4222  0.6401
15355TIP3    H267481   6.580   5.296   0.730  0.2400  0.6167 -0.0183
15356TIP3   OH267482   4.079   5.040   3.850  0.0139  0.0221 -0.1476
15356TIP3    H167483   4.121   5.023   3.934  0.1161  1.4907  0.1145
15356TIP3    H267484   4.077   4.954   3.807  4.8311  0.0624 -0.9428
15357TIP3   OH267485   0.718   6.308   0.902 -0.5388  0.0612  0.5294
15357TIP3    H167486   0.807   6.310   0.937  0.7066 -3.7687 -1.7643
15357TIP3    H267487   0.676   6.235   0.947 -1.8087  0.5071  0.1047
15358TIP3   OH267488   0.691   4.425   1.495  0.4164  0.4055  0.3893
15358TIP3    H167489   0.780   4.426   1.458  0.2524  0.9177 -0.0001
15358TIP3    H267490   0.657   4.338   1.473  0.9190  0.0967  0.7922
15359TIP3   OH267491   5.160   0.301  13.902  0.0204 -0.3704  0.0162
15359TIP3    H167492   5.147   0.235  13.970 -1.8967 -0.8941 -0.8055
15359TIP3    H267493   5.082   0.356  13.907 -0.7385 -1.1068 -2.4738
15360TIP3   OH267494   5.090   3.233   5.047  0.0646  0.4956 -0.3710
15360TIP3    H167495   5.046   3.313   5.017 -0.1690  0.4877 -0.0601
15360TIP3    H267496   5.182   3.247   5.026 -0.1850  0.1862 -1.7538
15361TIP3   OH267497   4.637   5.476  17.133 -0.5126 -0.1813 -0.1040
15361TIP3    H167498   4.603   5.388  17.120 -1.3713  0.2425 -0.8264
15361TIP3    H267499   4.584   5.531  17.076  0.2742  0.7505  0.0351
15362TIP3   OH267500   2.383   3.816  15.125 -0.3625  0.1181  0.0533
15362TIP3    H167501   2.416   3.829  15.214  0.7913 -1.0260 -0.1903
15362TIP3    H267502   2.312   3.752  15.135 -1.3320  1.2001  0.3341
15363TIP3   OH267503   0.520   0.931   4.949 -0.3186 -0.2128  0.5330
15363TIP3    H167504   0.479   0.847   4.926  0.1983 -0.8177  1.7233
15363TIP3    H267505   0.576   0.910   5.024  0.9531  0.9054 -0.0615
15364TIP3   OH267506   1.334   5.747   0.751  0.2058 -0.1922 -0.4190
15364TIP3    H167507   1.410   5.750   0.693 -0.3370 -2.0435 -1.2995
15364TIP3    H267508   1.327   5.655   0.777 -0.9535  0.1842  0.7005
15365TIP3   OH267509   1.352   5.855  13.012 -0.2388 -0.1484 -0.0941
15365TIP3    H167510   1.305   5.924  13.058  1.0221  0.8524 -0.2443
15365TIP3    H267511   1.294   5.830  12.940 -0.6174  0.9208 -0.1695
15366TIP3   OH267512   2.319   0.233  15.621 -0.1297  0.4137 -0.3436
15366TIP3    H167513   2.399   0.181  15.617 -0.2904  0.2125 -1.1709
15366TIP3    H267514   2.348   0.324  15.615  0.0917  0.3847  0.2310
15367TIP3   OH267515   2.027   4.464  16.431 -0.2841 -0.2684  0.4517
15367TIP3    H167516   2.089   4.420  16.373 -1.1041 -1.5270  0.4987
15367TIP3    H267517   2.048   4.557  16.422  1.0435 -0.6012 -0.1698
15368TIP3   OH267518   5.524   2.847  14.385 -0.1407  0.1854 -0.3278
15368TIP3    H167519   5.437   2.816  14.361 -0.3247  0.2731  0.2237
15368TIP3    H267520   5.569   2.859  14.301 -0.8759  0.7782 -0.6477
15369TIP3   OH267521   3.553   3.406  16.562 -0.0530 -0.1735 -0.7150
15369TIP3    H167522   3.573   3.314  16.546 -0.1964 -0.1687 -0.9260
15369TIP3    H267523   3.480   3.405  16.624  1.2884 -0.1906  0.9625
15370TIP3   OH267524   5.400   6.116  12.255 -0.1691  0.1194  0.0412
15370TIP3    H167525   5.475   6.083  12.304 -0.9084 -1.0933  0.4095
15370TIP3    H267526   5.324   6.075  12.297 -0.8886 -0.3591 -1.6268
15371TIP3   OH267527   4.313   4.757   6.766  0.0285 -0.6596  0.1884
15371TIP3    H167528   4.252   4.774   6.695 -1.5899 -0.7390  1.4899
15371TIP3    H267529   4.364   4.837   6.774 -1.6058  0.3818  0.6443
15372TIP3   OH267530   3.733   1.220   2.332  0.1042 -0.1342  0.0639
15372TIP3    H167531   3.708   1.255   2.246  0.8008 -1.1581 -0.5743
15372TIP3    H267532   3.656   1.171   2.361  0.2660 -0.7269 -0.4976
15373TIP3   OH267533   2.458   4.067   5.547 -0.4054  0.1479 -0.2763
15373TIP3    H167534   2.527   4.003   5.564 -0.5903  0.2810  1.0909
15373TIP3    H267535   2.496   4.125   5.481  0.4517 -0.3097 -0.2112
15374TIP3   OH267536   3.945   3.757  13.076  0.1184 -0.2347 -0.5199
15374TIP3    H167537   4.013   3.737  13.142 -0.1565  2.4293  0.7045
15374TIP3    H267538   3.993   3.762  12.993  1.1332 -0.1489  0.0541
15375TIP3   OH267539   1.137   1.490  16.108 -0.8533  0.0415  0.1562
15375TIP3    H167540   1.218   1.439  16.116 -0.8414 -0.3585 -1.8499
15375TIP3    H267541   1.101   1.492  16.196 -0.6201 -3.0733  0.4527
15376TIP3   OH267542   5.146   5.868  16.217  0.1839 -0.0576  0.5840
15376TIP3    H167543   5.149   5.955  16.177 -1.2216 -0.3310 -0.1848
15376TIP3    H267544   5.139   5.808  16.142  0.3947 -0.7849  1.1388
15377TIP3   OH267545   3.844   0.990  17.115  0.1779 -0.3589  0.4244
15377TIP3    H167546   3.818   1.082  17.114  1.4566  0.0823 -2.3545
15377TIP3    H267547   3.829   0.961  17.205 -1.4714  2.1862  1.0569
15378TIP3   OH267548   1.163   3.310  15.659 -0.1624  0.1595  0.2088
15378TIP3    H167549   1.111   3.261  15.595 -2.3533  2.2058  0.2781
15378TIP3    H267550   1.141   3.270  15.743 -1.0033  0.4761  0.1487
15379TIP3   OH267551   3.055   5.094   3.959  0.2651 -0.2554 -0.0889
15379TIP3    H167552   3.033   5.001   3.960 -1.8086  0.1758  0.6064
15379TIP3    H267553   3.149   5.097   3.977  0.6414 -2.2526 -1.4363
15380TIP3   OH267554   2.591   2.549  11.995  0.0877  0.5709  0.0927
15380TIP3    H167555   2.671   2.598  11.976  1.2986 -0.3390  2.3936
15380TIP3    H267556   2.566   2.510  11.911  1.1033  2.2198 -1.0231
15381TIP3   OH267557   6.671   5.818  15.801 -0.1835  0.9467  0.0072
15381TIP3    H167558   6.595   5.760  15.796  1.9364 -1.9514 -1.4573
15381TIP3    H267559   6.678   5.856  15.713  1.2300 -0.5443 -0.5724
15382TIP3   OH267560   6.215   5.420   0.120  0.3742  0.1277 -0.6186
15382TIP3    H167561   6.298   5.424   0.166  0.2591 -0.7592 -0.3089
15382TIP3    H267562   6.161   5.488   0.161  0.5486 -0.1052  0.0030
15383TIP3   OH267563   3.889   0.268  11.955  0.1060  0.1597 -0.0196
15383TIP3    H167564   3.902   0.312  11.871 -1.3741  2.0796  0.6840
15383TIP3    H267565   3.819   0.205  11.938  0.3797 -0.0355 -0.4240
15384TIP3   OH267566   1.868   5.111   3.599 -0.3940  0.3175 -0.7587
15384TIP3    H167567   1.936   5.162   3.642  1.4597 -2.3539 -0.2930
15384TIP3    H267568   1.839   5.166   3.526  1.1694  2.1589 -0.0673
15385TIP3   OH267569   6.577   4.703   4.656  0.5372  0.1648  1.0938
15385TIP3    H167570   6.524   4.710   4.735  0.7628 -1.6842  1.4382
15385TIP3    H267571   6.564   4.613   4.626  1.6302  0.3941 -0.1401
15386TIP3   OH267572   5.498   3.812  16.859  0.3088  0.2270 -0.7555
15386TIP3    H167573   5.496   3.896  16.904 -1.8970 -0.7982  1.2907
15386TIP3    H267574   5.576   3.816  16.804  0.4550  3.4559 -0.5097
15387TIP3   OH267575   0.720   0.218   4.998  0.3888 -0.2359  0.4409
15387TIP3    H167576   0.652   0.172   5.048 -0.9017  0.6255 -0.4439
15387TIP3    H267577   0.747   0.290   5.054  1.4464 -1.2572  1.2783
15388TIP3   OH267578   5.077   4.925  14.477  0.5404 -0.1325  0.4872
15388TIP3    H167579   5.151   4.950  14.532 -0.5579  1.3404  1.3658
15388TIP3    H267580   5.049   4.840  14.511  0.4469  0.3401  1.6250
15389TIP3   OH267581   2.900   4.094   1.891 -0.2022 -0.3127 -0.3408
15389TIP3    H167582   2.925   4.051   1.973  0.8747 -1.0226 -1.0214
15389TIP3    H267583   2.850   4.171   1.919  0.6829 -0.1890  1.0088
15390TIP3   OH267584   4.753   6.620  14.009  0.5698 -0.2595 -0.5238
15390TIP3    H167585   4.701   6.548  13.973 -2.0856  0.7460  1.0291
15390TIP3    H267586   4.834   6.619  13.958 -0.8409 -2.0898 -2.9271
15391TIP3   OH267587   3.342   0.691  16.411  0.0225  0.3531 -0.2925
15391TIP3    H167588   3.270   0.663  16.355 -1.7774  1.0726  1.5548
15391TIP3    H267589   3.319   0.780  16.438  0.7049 -0.0123  1.6801
15392TIP3   OH267590   1.209   2.871   5.648 -0.1661 -0.2624  0.0710
15392TIP3    H167591   1.286   2.905   5.601 -0.2189  1.4011  1.1369
15392TIP3    H267592   1.233   2.781   5.669  0.6287 -0.4458 -1.4478
15393TIP3   OH267593   0.333   6.154   2.149  0.2714  0.2150  0.7066
15393TIP3    H167594   0.285   6.082   2.189 -0.0067  1.7009  3.2358
15393TIP3    H267595   0.411   6.112   2.111 -2.0474 -1.9895 -2.0584
15394TIP3   OH267596   5.653   0.393   2.456 -0.6583 -0.2156 -0.2482
15394TIP3    H167597   5.655   0.486   2.479 -0.4111 -0.3347  0.2178
15394TIP3    H267598   5.744   0.371   2.437 -0.8500 -0.1201 -1.3698
15395TIP3   OH267599   3.387   3.660  13.632 -0.3723  0.0072 -0.2221
15395TIP3    H167600   3.345   3.723  13.573 -0.3116 -0.2526 -0.5434
15395TIP3    H267601   3.431   3.715  13.697 -1.9478  0.2946  0.6554
15396TIP3   OH267602   3.712   5.189  14.007 -0.3759 -0.1650 -0.1554
15396TIP3    H167603   3.668   5.269  14.037 -0.2435  0.9531 -2.7077
15396TIP3    H267604   3.656   5.118  14.040 -1.7873  1.0606  0.2152
15397TIP3   OH267605   2.404   5.203  17.256 -0.3808 -0.3365 -0.0098
15397TIP3    H167606   2.452   5.200  17.338 -3.2295 -4.7979  1.8657
15397TIP3    H267607   2.445   5.135  17.202 -0.7953  0.0591 -0.8450
15398TIP3   OH267608   2.322   0.058   1.471 -0.4325  0.5119 -0.0383
15398TIP3    H167609   2.406   0.068   1.515 -1.1136  0.5482  1.2968
15398TIP3    H267610   2.279  -0.014   1.517 -0.4914 -0.5963 -1.7582
15399TIP3   OH267611   5.013   0.135   0.255 -0.6664  0.1499  0.3039
15399TIP3    H167612   5.019   0.040   0.243 -0.6368  0.0792  0.8629
15399TIP3    H267613   4.922   0.156   0.234 -0.7048 -0.0203  0.3008
15400TIP3   OH267614   5.143   2.820   3.046  0.1928 -0.0675 -0.0195
15400TIP3    H167615   5.187   2.848   3.127 -0.4947 -3.2176  1.6056
15400TIP3    H267616   5.197   2.748   3.014  0.0008  0.6078 -2.0052
15401TIP3   OH267617   3.138   2.125  13.785 -0.1873 -0.6629 -0.2113
15401TIP3    H167618   3.083   2.091  13.856  0.6255  0.3975  0.9492
15401TIP3    H267619   3.211   2.063  13.780  0.8923  0.4194  1.3864
15402TIP3   OH267620   3.377   0.446  14.510 -0.3433 -0.4201  0.1675
15402TIP3    H167621   3.295   0.434  14.462 -0.9787 -2.2873  1.5952
15402TIP3    H267622   3.352   0.440  14.602  1.2904 -0.2313  0.6582
15403TIP3   OH267623   0.781   6.165   3.576  0.0318  0.5093  0.0123
15403TIP3    H167624   0.766   6.092   3.515 -1.4222 -0.7772  1.8085
15403TIP3    H267625   0.785   6.242   3.520 -1.0229 -0.6370 -1.7529
15404TIP3   OH267626   0.895   1.542  11.234  0.0658 -0.6645  0.1040
15404TIP3    H167627   0.931   1.472  11.179 -0.1565  0.0016 -0.9011
15404TIP3    H267628   0.960   1.554  11.303  0.2012 -1.7238  0.1843
15405TIP3   OH267629   0.217   4.351  14.994 -0.3483 -0.4042 -0.1575
15405TIP3    H167630   0.291   4.297  14.969 -0.7854 -1.7068  1.1676
15405TIP3    H267631   0.173   4.372  14.912  2.3438  1.8135 -1.1581
15406TIP3   OH267632   1.785   6.016   0.932  0.6744 -0.0263  0.1416
15406TIP3    H167633   1.750   6.049   1.014 -0.9678 -1.4252  0.0456
15406TIP3    H267634   1.812   5.926   0.950 -0.0753 -0.4909 -0.9140
15407TIP3   OH267635   4.372   2.791  13.317  0.3810  0.1078 -0.2026
15407TIP3    H167636   4.322   2.863  13.355  0.9444  0.1105  0.5437
15407TIP3    H267637   4.362   2.802  13.222 -0.8906  0.1994 -0.0761
15408TIP3   OH267638   1.843   0.331  13.264  0.3841  0.0376  0.8073
15408TIP3    H167639   1.888   0.415  13.263 -1.1806  0.9114  0.3931
15408TIP3    H267640   1.913   0.266  13.272  1.5621  1.4053  2.3863
15409TIP3   OH267641   1.414   5.848  15.780 -0.2677 -0.2727 -0.3343
15409TIP3    H167642   1.434   5.780  15.715 -2.1935 -0.4908 -0.7574
15409TIP3    H267643   1.446   5.812  15.863  2.6592  0.1998 -1.1325
15410TIP3   OH267644   5.785   3.933  12.377  0.5222 -0.0294 -0.2958
15410TIP3    H167645   5.803   3.999  12.444 -1.8078  0.8534 -0.4435
15410TIP3    H267646   5.848   3.863  12.394  3.2447  2.2515 -0.2374
15411TIP3   OH267647   5.538   0.779  15.106  0.3565 -0.5515 -0.4425
15411TIP3    H167648   5.624   0.749  15.135 -0.1360 -2.4640 -0.8329
15411TIP3    H267649   5.556   0.859  15.056  1.7564 -0.2300  0.5271
15412TIP3   OH267650   3.307   6.729   2.961 -0.1701  0.5700 -0.7541
15412TIP3    H167651   3.313   6.755   2.869  1.7625  0.6723 -0.6517
15412TIP3    H267652   3.338   6.806   3.009  0.1794  0.0368 -0.1056
15413TIP3   OH267653   0.886   0.080  14.711  0.2007 -0.0254 -0.4325
15413TIP3    H167654   0.954   0.120  14.765 -0.9731  0.5515  0.6608
15413TIP3    H267655   0.843   0.016  14.769 -0.7841  0.2834 -0.7993
15414TIP3   OH267656   2.188   2.371  17.088 -0.6984 -0.4256  0.4897
15414TIP3    H167657   2.112   2.356  17.032 -0.3586 -1.6730  0.3397
15414TIP3    H267658   2.247   2.424  17.033 -1.0663 -0.2207  0.2826
15415TIP3   OH267659   3.162   3.983  16.425 -0.4164  0.4216  0.3542
15415TIP3    H167660   3.213   4.039  16.483 -1.5236  1.2013  0.5994
15415TIP3    H267661   3.171   3.895  16.463  0.8320  0.5090  0.3101
15416TIP3   OH267662   3.672   5.522   0.379 -0.0003  0.2980  0.1421
15416TIP3    H167663   3.666   5.616   0.394  0.3489  0.2044  0.9099
15416TIP3    H267664   3.586   5.498   0.344 -0.0995  0.8901 -0.0373
15417TIP3   OH267665   5.185   2.578   1.288 -0.0610 -0.0931 -0.6027
15417TIP3    H167666   5.265   2.561   1.338 -0.3570  0.2547  0.0063
15417TIP3    H267667   5.184   2.673   1.276  0.1713 -0.1984 -1.5685
15418TIP3   OH267668   4.678   4.265  16.700  0.7783 -0.3238  0.1377
15418TIP3    H167669   4.767   4.268  16.734  1.5726  0.9063 -1.9138
15418TIP3    H267670   4.653   4.173  16.705  1.3246 -0.3944  2.6902
15419TIP3   OH267671   0.414   2.620   0.517 -0.0577 -0.7074 -0.0425
15419TIP3    H167672   0.501   2.635   0.481  0.2857 -0.2304  0.9628
15419TIP3    H267673   0.378   2.708   0.530 -1.3175 -0.8805 -1.8713
15420TIP3   OH267674   3.465   0.134  14.478 -0.5915  0.0905 -0.1678
15420TIP3    H167675   3.496   0.197  14.412 -0.4838  0.5283  0.2900
15420TIP3    H267676   3.403   0.185  14.531  1.4770  0.6374  1.8840
15421TIP3   OH267677   5.584   0.817  12.679  0.1533 -0.0555 -0.3018
15421TIP3    H167678   5.604   0.724  12.669 -0.4574 -0.2233 -0.0464
15421TIP3    H267679   5.664   0.862  12.654  1.1334 -0.7063  1.4858
15422TIP3   OH267680   3.743   0.837  11.676 -0.3747 -0.5548 -0.2244
15422TIP3    H167681   3.692   0.899  11.729 -0.3341 -0.8231  0.1350
15422TIP3    H267682   3.687   0.760  11.669 -0.5835 -0.3428 -0.9973
15423TIP3   OH267683   5.945   5.413  15.032  0.4586 -0.5952 -0.0609
15423TIP3    H167684   5.940   5.478  15.102  0.1787  0.6845 -1.2327
15423TIP3    H267685   5.881   5.443  14.967  1.6473 -1.0159 -1.4636
15424TIP3   OH267686   5.312   0.548  12.792 -0.5085  0.4567 -0.2262
15424TIP3    H167687   5.240   0.513  12.844 -0.7323 -0.3118 -1.0327
15424TIP3    H267688   5.303   0.643  12.798 -1.0745  0.3661  0.3736
15425TIP3   OH267689   3.182   5.142  16.134  0.2005 -0.1430 -0.5438
15425TIP3    H167690   3.266   5.124  16.176 -1.0456 -3.1863  0.9400
15425TIP3    H267691   3.182   5.087  16.056 -0.7930 -1.0170  0.0500
15426TIP3   OH267692   6.302   4.510  17.164 -0.3259  0.2941 -0.4773
15426TIP3    H167693   6.267   4.547  17.083 -1.9613 -0.7783 -0.3036
15426TIP3    H267694   6.227   4.468  17.205  0.8248 -0.5651  0.8158
15427TIP3   OH267695   6.509   2.784   1.115  0.3975 -0.1835 -0.2624
15427TIP3    H167696   6.603   2.801   1.122  0.4976 -0.7786 -0.1432
15427TIP3    H267697   6.478   2.848   1.051  1.1604 -0.9630 -1.4479
15428TIP3   OH267698   4.727   3.596  11.958 -0.4485  0.3057  0.9191
15428TIP3    H167699   4.668   3.577  11.884  1.9461 -0.0888 -1.0309
15428TIP3    H267700   4.668   3.614  12.031 -2.9728 -0.9230 -0.6460
15429TIP3   OH267701   2.571   3.724   0.239  0.2525 -0.3486  0.1049
15429TIP3    H167702   2.640   3.660   0.220  0.1226 -0.0188 -1.6435
15429TIP3    H267703   2.616   3.795   0.284  1.0904 -0.1311 -1.0253
15430TIP3   OH267704   1.932   4.475  12.468  0.5949 -0.4002  0.4762
15430TIP3    H167705   1.888   4.474  12.553 -0.7517 -2.5061 -0.1875
15430TIP3    H267706   2.004   4.413  12.477 -0.6677 -2.0741 -0.4065
15431TIP3   OH267707   0.784   5.405  12.856  0.2880 -0.5568  0.6122
15431TIP3    H167708   0.744   5.382  12.940 -0.5397  2.0443  1.0112
15431TIP3    H267709   0.720   5.377  12.791 -0.8836  0.8539  1.0999
15432TIP3   OH267710   0.892   4.475  13.696 -0.1512 -0.4075  0.1259
15432TIP3    H167711   0.844   4.544  13.652 -1.1079  0.8233  2.8652
15432TIP3    H267712   0.982   4.508  13.702  0.2337 -1.0416 -1.6960
15433TIP3   OH267713   1.344   1.887   0.182  0.7726 -0.4028 -0.3240
15433TIP3    H167714   1.371   1.871   0.092 -1.7686  1.6118 -1.5950
15433TIP3    H267715   1.425   1.907   0.229  1.9524  1.1579 -2.8341
15434TIP3   OH267716   6.100   2.521   5.807 -0.1923  0.4909  0.0480
15434TIP3    H167717   6.142   2.537   5.891 -0.5142  0.4634  0.2124
15434TIP3    H267718   6.148   2.578   5.746  0.0286  0.5244  0.2499
15435TIP3   OH267719   6.457   4.723  17.084  0.7565 -0.4628 -0.3868
15435TIP3    H167720   6.378   4.777  17.089  2.1964  1.7000  0.2900
15435TIP3    H267721   6.428   4.635  17.110 -1.1133  0.5993  1.4092
15436TIP3   OH267722   4.437   3.923  16.901 -0.2085 -0.2434 -0.0901
15436TIP3    H167723   4.487   3.954  16.826  1.6945  0.5768  1.4350
15436TIP3    H267724   4.409   4.002  16.946  1.2924 -0.6668  1.6853
15437TIP3   OH267725   3.378   2.989   3.664 -0.5145  0.4256 -0.0084
15437TIP3    H167726   3.462   2.985   3.710  1.3451  1.0598 -3.0941
15437TIP3    H267727   3.389   2.931   3.589 -3.0081  0.2637 -0.3313
15438TIP3   OH267728   1.765   3.842   0.964  0.0665 -0.3304 -0.3356
15438TIP3    H167729   1.670   3.835   0.971  0.1302 -0.6442  0.2061
15438TIP3    H267730   1.784   3.933   0.985 -0.2485  0.1723 -2.0167
15439TIP3   OH267731   3.753   0.601  14.788  0.0699 -0.0469  0.1188
15439TIP3    H167732   3.811   0.525  14.783  2.1761  1.4677 -0.0540
15439TIP3    H267733   3.802   0.671  14.743 -2.0905  1.2394 -0.3680
15440TIP3   OH267734   5.213   1.248  17.240  0.5041 -0.6234 -0.2763
15440TIP3    H167735   5.205   1.301  17.160  0.5928  0.4164  0.3783
15440TIP3    H267736   5.149   1.287  17.300 -0.2545 -2.0031 -0.1383
15441TIP3   OH267737   4.714   1.700  11.963  0.3702  0.2176 -0.2264
15441TIP3    H167738   4.774   1.646  12.015 -0.8754  1.5986  2.8618
15441TIP3    H267739   4.629   1.657  11.972  0.5404 -1.1522 -3.7240
15442TIP3   OH267740   1.194   5.240  14.523 -0.1921 -0.0499 -0.4021
15442TIP3    H167741   1.198   5.151  14.489 -1.0521 -0.0391 -0.5512
15442TIP3    H267742   1.203   5.231  14.617  0.6202 -0.2157 -0.4933
15443TIP3   OH267743   3.382   2.212   3.203  0.3231  0.5584  0.0378
15443TIP3    H167744   3.294   2.245   3.186  0.5168  0.6003 -0.9422
15443TIP3    H267745   3.439   2.287   3.186  0.5623  0.5145  0.6073
15444TIP3   OH267746   4.947   5.512   3.081  0.1161  0.4151 -0.1045
15444TIP3    H167747   4.893   5.478   3.153  0.3521  1.7616  0.7461
15444TIP3    H267748   4.884   5.557   3.024  0.0598  0.1500 -0.2554
15445TIP3   OH267749   4.557   1.423  14.391 -0.1005 -0.4394  0.1106
15445TIP3    H167750   4.477   1.410  14.443 -0.7003 -0.5398 -0.8242
15445TIP3    H267751   4.586   1.334  14.370  0.0945 -0.3964  0.1997
15446TIP3   OH267752   1.448   2.854   2.588 -0.6772  0.6307  0.1563
15446TIP3    H167753   1.378   2.918   2.574 -1.0279  0.4447  0.9850
15446TIP3    H267754   1.453   2.846   2.683 -0.7641 -0.7068  0.0607
15447TIP3   OH267755   4.675   2.600  14.311  0.0091 -0.0882  0.5738
15447TIP3    H167756   4.617   2.638  14.245  1.3413  0.4262 -0.3577
15447TIP3    H267757   4.618   2.551  14.369 -1.1658 -0.9317 -1.2232
15448TIP3   OH267758   2.551   5.952  13.507 -0.0829  0.0807  0.1178
15448TIP3    H167759   2.615   5.966  13.436  2.8067  0.1059  2.5102
15448TIP3    H267760   2.519   5.863  13.494  2.2581 -0.8230  0.0582
15449TIP3   OH267761   3.048   6.637  11.959 -0.2179 -0.2862 -0.0569
15449TIP3    H167762   3.134   6.606  11.987  0.7215  1.2864 -1.0123
15449TIP3    H267763   3.038   6.606  11.870  0.1874  1.0105 -0.5816
15450TIP3   OH267764   2.719   6.470  12.244 -0.3995  0.4015  0.4256
15450TIP3    H167765   2.680   6.477  12.156  0.6259 -0.3642 -0.1196
15450TIP3    H267766   2.733   6.560  12.271 -0.2566  0.6451 -0.4199
15451TIP3   OH267767   2.096   2.205   0.294  0.1229  0.5348 -0.4362
15451TIP3    H167768   2.068   2.181   0.206  0.3701 -0.9086 -0.1580
15451TIP3    H267769   2.016   2.205   0.346  0.1824 -0.2445 -0.3338
15452TIP3   OH267770   3.257   2.843  14.303  0.1071  0.9843  0.3082
15452TIP3    H167771   3.336   2.894  14.285 -0.6808  1.8562 -0.8212
15452TIP3    H267772   3.274   2.757  14.263  0.2210  1.3978 -0.5556
15453TIP3   OH267773   4.372   6.296  16.710 -0.1044 -0.0216 -0.4883
15453TIP3    H167774   4.335   6.382  16.696 -0.9699 -0.4679 -1.0132
15453TIP3    H267775   4.433   6.307  16.783 -0.8776  0.8289  0.0401
15454TIP3   OH267776   3.157   4.074  15.922  0.0392 -0.5499  0.1139
15454TIP3    H167777   3.083   4.021  15.893 -0.9381  0.9167 -0.2164
15454TIP3    H267778   3.198   4.104  15.840  0.8267 -1.1103  0.2944
15455TIP3   OH267779   1.586   3.879  15.542 -0.3788 -0.4290 -0.8780
15455TIP3    H167780   1.557   3.836  15.622 -1.0611  0.8717 -0.3933
15455TIP3    H267781   1.601   3.808  15.480  0.7477 -1.5100  0.5710
15456TIP3   OH267782   4.785   0.669   1.417 -0.0785 -0.1785 -0.3057
15456TIP3    H167783   4.875   0.644   1.395 -0.0406  0.5040 -0.9328
15456TIP3    H267784   4.733   0.592   1.394  0.2750 -0.3751 -0.4529
15457TIP3   OH267785   0.396   3.448   4.489  1.0496 -0.4367 -0.8491
15457TIP3    H167786   0.446   3.378   4.449  0.3690 -0.9816 -0.7640
15457TIP3    H267787   0.305   3.422   4.478  0.7681  0.6058 -1.1347
15458TIP3   OH267788   3.693   6.051  15.016  0.4132  0.0088 -0.3700
15458TIP3    H167789   3.612   6.075  15.062 -0.1046 -0.4019 -1.0437
15458TIP3    H267790   3.734   6.134  14.994 -1.3429  0.3719 -2.6722
15459TIP3   OH267791   4.745   1.929   2.085  0.1016  0.0729 -0.1397
15459TIP3    H167792   4.763   1.842   2.122 -0.4886 -0.1820 -0.4459
15459TIP3    H267793   4.822   1.948   2.031 -0.2883 -0.7949 -1.0418
15460TIP3   OH267794   5.115   5.829   2.437  0.2181  0.2521 -0.0498
15460TIP3    H167795   5.192   5.842   2.382 -0.6170  1.5425 -0.9764
15460TIP3    H267796   5.065   5.760   2.392 -0.5119  1.3743 -1.0078
15461TIP3   OH267797   5.838   5.470   0.555 -0.1384 -0.3884 -0.4563
15461TIP3    H167798   5.793   5.555   0.561 -0.9686 -0.5923 -2.7884
15461TIP3    H267799   5.822   5.441   0.465  2.5923 -1.6793 -0.6117
15462TIP3   OH267800   5.595   1.779   2.550 -0.1269 -0.2067 -0.2361
15462TIP3    H167801   5.555   1.857   2.589  0.0863 -1.6475  3.1947
15462TIP3    H267802   5.524   1.736   2.503 -0.8211  0.8636 -0.1938
15463TIP3   OH267803   1.389   4.866  16.019  0.4268  0.8125  0.2394
15463TIP3    H167804   1.389   4.772  16.035  0.2119  0.6226 -0.7962
15463TIP3    H267805   1.314   4.881  15.961 -0.6022  1.8835  1.7754
15464TIP3   OH267806   0.589   0.799  14.164 -0.2242  0.5899 -0.5540
15464TIP3    H167807   0.563   0.890  14.178  0.4113  0.6700  0.1340
15464TIP3    H267808   0.625   0.770  14.248  0.7640  0.1072 -1.1240
15465TIP3   OH267809   0.199   2.193  14.454  0.1826  0.2239  0.1935
15465TIP3    H167810   0.193   2.097  14.449  1.0501  0.1211  0.8009
15465TIP3    H267811   0.114   2.221  14.487 -0.3590 -0.2680 -0.7413
15466TIP3   OH267812   5.685   5.791  17.236  0.1912 -0.0311 -0.6164
15466TIP3    H167813   5.670   5.877  17.197  0.0066  0.5744  0.7192
15466TIP3    H267814   5.644   5.729  17.175 -0.1344  0.8758 -1.3318
15467TIP3   OH267815   1.381   6.721  13.598  0.1373 -0.3392  0.0119
15467TIP3    H167816   1.318   6.651  13.580 -0.6556  0.9212 -2.7378
15467TIP3    H267817   1.335   6.801  13.573  2.0852  0.8478  0.0518
15468TIP3   OH267818   4.501   2.519   5.209 -0.5004  0.1021  0.1449
15468TIP3    H167819   4.578   2.557   5.251  0.3790 -2.3727  0.9541
15468TIP3    H267820   4.537   2.455   5.147 -1.8943  0.1882 -0.7932
15469TIP3   OH267821   5.434   3.720   0.547  0.7692 -0.0719  0.3030
15469TIP3    H167822   5.488   3.666   0.489  1.0526  1.5623 -1.0214
15469TIP3    H267823   5.431   3.671   0.630  4.6025 -0.0940  0.5996
15470TIP3   OH267824   1.223   2.511  12.792 -0.2216 -0.3213  1.0531
15470TIP3    H167825   1.220   2.415  12.799  1.1229 -0.3121  1.9901
15470TIP3    H267826   1.314   2.534  12.809 -0.5988  1.1580  1.2231
15471TIP3   OH267827   5.465   0.705  14.299  0.6476  0.3429  0.5212
15471TIP3    H167828   5.399   0.651  14.257 -0.4946  1.4368  0.8668
15471TIP3    H267829   5.445   0.700  14.393  0.3620  1.5456  0.5406
15472TIP3   OH267830   0.774   1.257  13.852 -0.6237  0.0297  0.0419
15472TIP3    H167831   0.760   1.245  13.946 -0.1220  0.6086  0.1958
15472TIP3    H267832   0.699   1.309  13.823 -0.6314  0.0903  0.1721
15473TIP3   OH267833   2.498   4.530   0.712 -0.2905 -0.1556  0.2952
15473TIP3    H167834   2.554   4.463   0.673 -0.2534  1.0581 -1.8636
15473TIP3    H267835   2.552   4.568   0.782  1.7086  0.9706 -1.6944
15474TIP3   OH267836   6.765   4.459   4.595  0.1159  0.4818 -0.4682
15474TIP3    H167837   6.811   4.543   4.594  2.3503 -0.5971  1.9640
15474TIP3    H267838   6.795   4.414   4.516  0.5439  1.1440 -0.6877
15475TIP3   OH267839   0.771   6.661   0.262 -0.6011  0.2190  0.4954
15475TIP3    H167840   0.713   6.589   0.286  0.9193 -1.3459 -0.3544
15475TIP3    H267841   0.859   6.627   0.276  0.1858  1.6168 -0.7456
15476TIP3   OH267842   0.165   1.828  15.703  0.4165  0.3223 -0.2992
15476TIP3    H167843   0.093   1.791  15.652  0.3309  0.3536 -0.2030
15476TIP3    H267844   0.227   1.859  15.638 -0.1176  1.1962 -0.4092
15477TIP3   OH267845   6.612   3.387  14.502  0.0365 -0.2965  0.1654
15477TIP3    H167846   6.565   3.331  14.440  0.4591 -0.8570  0.3493
15477TIP3    H267847   6.609   3.340  14.585  1.3700 -0.5993  0.0665
15478TIP3   OH267848   5.126   4.313  14.883  0.4339  0.0881  0.4529
15478TIP3    H167849   5.070   4.305  14.960 -0.5033  1.5673 -0.0417
15478TIP3    H267850   5.087   4.383  14.831  1.2349 -0.6458 -1.2237
15479TIP3   OH267851   2.958   0.371   3.376 -0.1129  0.0382 -0.4073
15479TIP3    H167852   3.032   0.327   3.418 -0.1660  0.2110 -0.1273
15479TIP3    H267853   2.997   0.431   3.313 -0.0215 -0.0136 -0.4000
15480TIP3   OH267854   0.018   1.300   2.653  0.2308 -0.4021  0.3556
15480TIP3    H167855   0.053   1.336   2.571  1.8138 -0.8370  0.8108
15480TIP3    H267856  -0.041   1.368   2.686 -1.9114 -0.9385 -2.0240
15481TIP3   OH267857   2.647   0.517   3.757 -0.1088  0.0551 -0.5682
15481TIP3    H167858   2.619   0.517   3.666  0.5079  0.4707 -0.7582
15481TIP3    H267859   2.598   0.444   3.797 -0.5939  0.0528 -1.1555
15482TIP3   OH267860   0.466   1.522   2.179  0.0427  0.4846  0.5875
15482TIP3    H167861   0.551   1.489   2.207  0.2768  0.0849 -0.5600
15482TIP3    H267862   0.480   1.615   2.160  0.8227 -0.0464 -1.8033
15483TIP3   OH267863   2.373   2.822   4.310 -0.4667 -0.2708  0.0254
15483TIP3    H167864   2.303   2.865   4.262 -2.1873 -0.9286  1.8432
15483TIP3    H267865   2.421   2.894   4.352 -0.9787  0.0930 -0.0050
15484TIP3   OH267866   5.278   5.262  17.117 -0.1930 -0.2039 -0.4790
15484TIP3    H167867   5.334   5.186  17.128 -0.1827 -0.0180  0.9675
15484TIP3    H267868   5.268   5.271  17.022  0.0715 -1.7927 -0.6843
15485TIP3   OH267869   1.874   2.864  14.986  0.2584  0.1834  0.7409
15485TIP3    H167870   1.943   2.855  14.921  0.9056 -2.3523  1.6475
15485TIP3    H267871   1.919   2.901  15.063 -0.0035  0.9864  0.5215
15486TIP3   OH267872   0.387   5.840  10.448 -0.0286  0.1688 -0.2169
15486TIP3    H167873   0.334   5.765  10.420  0.8752 -0.3455 -0.5904
15486TIP3    H267874   0.470   5.801  10.475  0.2230  0.9822  0.2053
15487TIP3   OH267875   2.758   1.730  11.079  0.3006 -0.1590  0.1664
15487TIP3    H167876   2.779   1.745  11.171  1.9588 -0.1071 -0.2005
15487TIP3    H267877   2.766   1.636  11.066  2.5730  0.0689 -0.4661
15488TIP3   OH267878   2.274   3.753  13.899 -0.1543  0.2167  0.2239
15488TIP3    H167879   2.201   3.721  13.953 -0.5455 -1.1080 -1.0524
15488TIP3    H267880   2.336   3.789  13.963 -1.3035  0.1184  1.4412
15489TIP3   OH267881   5.966   0.659  17.078 -0.4153 -0.6530 -0.5819
15489TIP3    H167882   5.881   0.671  17.037 -1.0725  0.2935  0.9347
15489TIP3    H267883   5.974   0.565  17.090 -1.8534 -0.6897  0.3929
15490TIP3   OH267884   5.359   1.129   4.107 -0.0577  0.0690  0.4304
15490TIP3    H167885   5.352   1.187   4.031 -0.9585 -1.3151 -0.6196
15490TIP3    H267886   5.314   1.049   4.079 -1.3906 -0.1192  2.8222
15491TIP3   OH267887   2.651   3.177  16.241  0.3813  0.4183 -0.0091
15491TIP3    H167888   2.631   3.170  16.334  1.0107  0.4056  0.1340
15491TIP3    H267889   2.582   3.231  16.205 -0.9306 -1.1126  0.1033
15492TIP3   OH267890   2.097   5.524   1.582 -0.1654  0.2316 -0.1088
15492TIP3    H167891   2.187   5.556   1.585 -0.0406 -0.1784  1.2876
15492TIP3    H267892   2.105   5.433   1.556  0.0951 -0.5611  2.4880
15493TIP3   OH267893   2.594   5.803  10.939  0.7184  0.0826 -0.3949
15493TIP3    H167894   2.660   5.746  10.901  1.5142  0.8192 -0.1335
15493TIP3    H267895   2.566   5.860  10.867  0.8339  0.2012 -0.3452
15494TIP3   OH267896   0.906   1.394  11.914 -0.0691  0.6357 -0.1130
15494TIP3    H167897   0.922   1.464  11.978  1.2450 -0.7847  1.1777
15494TIP3    H267898   0.811   1.382  11.916 -0.0267  0.1746  2.1467
15495TIP3   OH267899   4.875   1.239   4.008 -0.1047  0.0382  0.2574
15495TIP3    H167900   4.846   1.287   4.086 -1.3878  1.1435 -0.8430
15495TIP3    H267901   4.926   1.303   3.958  0.2304 -0.4809 -0.0710
15496TIP3   OH267902   2.690   0.328  16.026  0.3825 -0.3437 -0.3437
15496TIP3    H167903   2.620   0.380  16.064 -1.1641 -1.4402 -1.5289
15496TIP3    H267904   2.749   0.392  15.986 -0.6590  0.5649 -0.4782
15497TIP3   OH267905   0.060   5.246  12.635  0.2296 -0.1679 -0.0275
15497TIP3    H167906   0.039   5.153  12.625  2.6179 -1.0097  1.6280
15497TIP3    H267907   0.049   5.284  12.548 -3.2910 -1.3636 -0.2350
15498TIP3   OH267908   1.318   5.313   4.026 -0.1442  0.4795 -0.5186
15498TIP3    H167909   1.260   5.340   3.954 -0.3245 -0.3075 -0.6754
15498TIP3    H267910   1.281   5.356   4.103 -1.1026 -0.2061 -0.5776
15499TIP3   OH267911   6.267   6.773   5.673 -0.6983  0.2048 -0.0604
15499TIP3    H167912   6.202   6.723   5.722 -1.5199  0.6239 -0.7086
15499TIP3    H267913   6.284   6.850   5.727  0.5758 -0.7318  0.9450
15500TIP3   OH267914   2.820   4.165   1.205  0.2089  0.1453 -0.4754
15500TIP3    H167915   2.905   4.170   1.162 -0.3724  1.6793 -1.5255
15500TIP3    H267916   2.805   4.252   1.241 -0.8285 -0.1620 -0.1230
15501TIP3   OH267917   3.193   4.656  12.279  0.2212 -0.0074 -0.3239
15501TIP3    H167918   3.272   4.626  12.324 -0.2199  0.7409  0.9766
15501TIP3    H267919   3.180   4.746  12.311 -0.9486  0.0083 -0.8107
15502TIP3   OH267920   3.286   5.071   1.875  0.3005 -0.6978  0.2366
15502TIP3    H167921   3.229   5.143   1.904  0.0680 -1.6360  2.3021
15502TIP3    H267922   3.347   5.058   1.948  1.3295 -1.5954 -0.7504
15503TIP3   OH267923   3.695   3.247   2.763  0.3450 -0.0579  0.1969
15503TIP3    H167924   3.742   3.311   2.709  0.1224 -1.2021 -1.4381
15503TIP3    H267925   3.631   3.299   2.811  2.5617  1.4326  1.7553
15504TIP3   OH267926   0.236   6.086   4.453 -0.1767  0.0416  0.1011
15504TIP3    H167927   0.291   6.069   4.376 -0.0273 -1.7248  0.5627
15504TIP3    H267928   0.213   6.000   4.486  0.1994  0.7446  2.3698
15505TIP3   OH267929   6.331   5.124  17.244  0.5648  0.3332  0.0732
15505TIP3    H167930   6.400   5.114  17.178  1.1705 -2.9115  0.9905
15505TIP3    H267931   6.378   5.145  17.325  0.0070  2.3204 -0.0743
15506TIP3   OH267932   4.914   2.108   0.036  0.2584 -0.4689 -0.7181
15506TIP3    H167933   4.872   2.025   0.059  0.4928 -0.6424 -0.9091
15506TIP3    H267934   4.918   2.157   0.118 -0.1833 -0.5098 -0.6706
15507TIP3   OH267935   6.625   4.744   1.249 -0.4590  0.0893 -0.0528
15507TIP3    H167936   6.553   4.804   1.269 -0.6829  0.0066 -0.6004
15507TIP3    H267937   6.587   4.656   1.260  0.0287  0.0270  1.3325
15508TIP3   OH267938   4.820   5.087  15.053 -0.3830  0.0970 -0.2720
15508TIP3    H167939   4.744   5.028  15.056  0.3481 -0.8438  0.3279
15508TIP3    H267940   4.882   5.044  14.995  1.0138 -0.8384  1.8019
15509TIP3   OH267941   4.072   2.950  15.973  0.1723 -0.1164 -0.0800
15509TIP3    H167942   4.154   2.993  15.996 -0.4709  1.7156 -0.9711
15509TIP3    H267943   4.093   2.857  15.968  2.5847  0.4324 -1.8242
15510TIP3   OH267944   2.931   6.717   1.413  0.2864 -0.0974 -0.0630
15510TIP3    H167945   2.841   6.719   1.446 -0.3630  0.0189 -1.7641
15510TIP3    H267946   2.925   6.670   1.330  1.2027  2.7177 -1.8741
15511TIP3   OH267947   1.858   4.273   0.372  0.0026  0.2936 -0.1995
15511TIP3    H167948   1.938   4.239   0.330  0.4420  1.3023 -0.1984
15511TIP3    H267949   1.847   4.218   0.449  1.6614  1.1742  0.7252
15512TIP3   OH267950   2.299   4.494   1.317  0.8475  0.1774  0.0142
15512TIP3    H167951   2.211   4.520   1.290  0.8089  0.6930  0.6118
15512TIP3    H267952   2.290   4.402   1.341 -0.0651  0.7633  2.1815
15513TIP3   OH267953   5.290   2.769  14.929  0.2685  0.1284 -0.3088
15513TIP3    H167954   5.320   2.750  15.018 -0.0135  0.5172 -0.1246
15513TIP3    H267955   5.217   2.707  14.915 -0.2266  0.6229  0.0451
15514TIP3   OH267956   6.516   5.668  14.554  0.0039  0.0142 -0.2979
15514TIP3    H167957   6.598   5.650  14.508 -0.5488  0.3618 -1.4546
15514TIP3    H267958   6.476   5.739  14.504 -1.2121 -0.4453 -0.0147
15515TIP3   OH267959   0.480   4.707   5.261 -0.3382  0.3461  0.2271
15515TIP3    H167960   0.527   4.790   5.265 -0.7051  0.7257 -1.9806
15515TIP3    H267961   0.534   4.651   5.204 -0.0195 -1.0178  1.7876
15516TIP3   OH267962   0.002   2.915   0.917 -0.1120  0.0314 -0.2150
15516TIP3    H167963   0.065   2.971   0.962 -0.4028  0.6181 -0.5206
15516TIP3    H267964  -0.082   2.958   0.931 -0.2472  0.0585 -1.0544
15517TIP3   OH267965   2.919   5.712  15.592  0.4268  0.2300 -0.1100
15517TIP3    H167966   2.935   5.618  15.599  0.0143  0.1152 -0.6446
15517TIP3    H267967   2.834   5.725  15.635 -0.3967  0.0667 -1.6220
15518TIP3   OH267968   1.508   0.630   2.583 -0.0062  0.0838  0.3695
15518TIP3    H167969   1.498   0.725   2.576  1.6727  0.2111 -0.8115
15518TIP3    H267970   1.571   0.607   2.515  0.5728 -1.7149  1.4402
15519TIP3   OH267971   1.302   2.424  17.179 -0.1908  0.5337 -0.4454
15519TIP3    H167972   1.354   2.363  17.230 -1.5671  0.2846  0.7359
15519TIP3    H267973   1.264   2.484  17.243 -1.2097  0.8116 -1.2678
15520TIP3   OH267974   3.782   0.935   0.074  0.5798 -0.2835 -0.5332
15520TIP3    H167975   3.736   0.944   0.158 -0.1410 -1.4635 -0.7908
15520TIP3    H267976   3.875   0.931   0.098  0.3631 -0.9014  0.2417
15521TIP3   OH267977   1.253   5.043   0.984  0.0377  0.1586  0.2388
15521TIP3    H167978   1.280   5.008   1.069 -0.2221 -2.0279 -0.5150
15521TIP3    H267979   1.202   5.121   1.005 -1.7495 -1.4408  2.2309
15522TIP3   OH267980   3.152   3.240   2.590 -0.0345 -0.3105 -0.1230
15522TIP3    H167981   3.210   3.253   2.665 -0.3989 -0.4526  0.1855
15522TIP3    H267982   3.155   3.145   2.574  1.3093 -0.0873 -1.3135
15523TIP3   OH267983   5.724   3.129   2.362  0.2676  0.0454 -0.4263
15523TIP3    H167984   5.734   3.036   2.382 -0.8815  0.2758  1.3818
15523TIP3    H267985   5.635   3.137   2.329 -0.4615  0.8066  1.6051
15524TIP3   OH267986   0.336   4.967   3.907  0.3355 -0.1943  0.3885
15524TIP3    H167987   0.288   5.016   3.840  0.6734  0.0571  0.3314
15524TIP3    H267988   0.285   4.886   3.917 -0.1365  0.0910  0.3696
15525TIP3   OH267989   1.946   2.588  12.852  0.2806 -0.6936 -0.4479
15525TIP3    H167990   1.943   2.625  12.764  1.7452 -1.5259 -0.8722
15525TIP3    H267991   2.025   2.535  12.854  0.7266 -0.0600  1.6315
15526TIP3   OH267992   1.918   5.330   1.765  0.2242  0.8659 -0.0593
15526TIP3    H167993   1.940   5.285   1.683 -1.0778  1.1508 -0.6019
15526TIP3    H267994   1.844   5.280   1.800 -0.4111  1.8226 -0.0165
15527TIP3   OH267995   2.923   2.064   6.113 -0.3315  0.4502  0.4689
15527TIP3    H167996   2.843   2.016   6.134  0.3481 -1.3987 -0.8940
15527TIP3    H267997   2.992   2.018   6.161  0.2066  0.6572 -0.0974
15528TIP3   OH267998   5.244   2.826   4.952  0.3225 -0.4418  0.1120
15528TIP3    H167999   5.290   2.773   5.016  0.8953 -0.9938 -0.7408
15528TIP3    H268000   5.173   2.770   4.920 -1.1115  0.4711  1.5595
15529TIP3   OH268001   6.550   2.398   1.176  0.3471 -0.1740  0.6091
15529TIP3    H168002   6.580   2.390   1.266  1.2524  1.3168  0.4686
15529TIP3    H268003   6.495   2.476   1.175  1.0150  0.3193 -0.2561
15530TIP3   OH268004   5.828   6.204   5.519  0.7040  0.0754 -0.7304
15530TIP3    H168005   5.797   6.265   5.453  0.8216 -1.0048 -1.8312
15530TIP3    H268006   5.812   6.248   5.602 -0.6806  0.9305 -1.4082
15531TIP3   OH268007   2.139   5.468  14.155  0.5283  0.3861  0.3854
15531TIP3    H168008   2.195   5.466  14.077  0.3104  0.0693  0.2328
15531TIP3    H268009   2.199   5.452  14.228  0.4082 -1.8404  0.0760
15532TIP3   OH268010   4.068   2.083  15.636  0.1637  0.2974 -0.1149
15532TIP3    H168011   4.077   2.168  15.678  0.7399 -0.0135  0.3912
15532TIP3    H268012   4.127   2.086  15.561  0.3235  0.2701  0.0118
15533TIP3   OH268013   4.848   5.649  14.293 -0.3999  0.6137 -0.4458
15533TIP3    H168014   4.761   5.662  14.330 -0.4116  0.3723 -0.3880
15533TIP3    H268015   4.898   5.609  14.364 -0.2454  0.7392 -0.4831
15534TIP3   OH268016   6.106   2.143  14.052  0.1281  0.1170 -0.1373
15534TIP3    H168017   6.199   2.121  14.055  0.2846  0.5725 -1.2588
15534TIP3    H268018   6.076   2.109  13.967 -0.6621  0.2250  0.0878
15535TIP3   OH268019   4.523   2.942  17.270  0.1932  0.2675 -0.0172
15535TIP3    H168020   4.494   2.998  17.198  0.8515 -0.2228 -0.6792
15535TIP3    H268021   4.570   2.871  17.227  1.4197  0.4673  0.9520
15536TIP3   OH268022   0.885   6.226  11.950 -0.3033 -0.2672 -0.2240
15536TIP3    H168023   0.945   6.157  11.980  1.6524  1.2383 -0.4338
15536TIP3    H268024   0.852   6.194  11.867  0.2888 -1.1195 -0.1475
15537TIP3   OH268025   4.400   1.656  16.392 -0.6431 -0.7051  0.5921
15537TIP3    H168026   4.327   1.645  16.332 -0.8380 -2.9251  1.1449
15537TIP3    H268027   4.464   1.590  16.365  1.7866  1.9132 -0.6225
15538TIP3   OH268028   4.397   2.363   3.226 -0.0305 -0.4400  0.1105
15538TIP3    H168029   4.386   2.438   3.285  1.3020  1.7281 -2.2085
15538TIP3    H268030   4.312   2.353   3.183  0.1671  0.6669 -0.5586
15539TIP3   OH268031   2.055   6.652  12.970 -0.3987 -0.4259 -0.2432
15539TIP3    H168032   2.007   6.699  12.902 -1.1503 -1.6740 -0.6145
15539TIP3    H268033   2.126   6.711  12.995  0.4800 -0.2947 -2.7787
15540TIP3   OH268034   5.366   4.501  14.754  0.0231 -0.0482  0.4859
15540TIP3    H168035   5.356   4.440  14.827  1.0439 -0.9638 -0.1040
15540TIP3    H268036   5.406   4.449  14.684 -1.5734  0.6227 -0.9909
15541TIP3   OH268037   3.787   1.050  16.295  0.2137  0.6433 -0.2934
15541TIP3    H168038   3.755   1.083  16.211 -0.1754  2.1493  0.4081
15541TIP3    H268039   3.735   0.971  16.311  0.0314  0.5508 -1.2818
15542TIP3   OH268040   1.947   0.556   2.731  0.5443  0.5690 -0.3338
15542TIP3    H168041   1.925   0.488   2.667 -0.0242 -0.5883  1.0341
15542TIP3    H268042   2.032   0.590   2.701 -0.7524  1.7622 -3.0096
15543TIP3   OH268043   3.289   4.626  15.592 -0.0449 -0.1397 -0.1371
15543TIP3    H168044   3.379   4.601  15.571  0.3971 -0.0098  1.4344
15543TIP3    H268045   3.292   4.722  15.599 -0.4119 -0.0982 -0.5225
15544TIP3   OH268046   3.216   4.442  15.797 -0.0172 -0.0966  0.2439
15544TIP3    H168047   3.248   4.493  15.723  0.1874 -0.4770  0.0673
15544TIP3    H268048   3.200   4.355  15.762  1.1409 -0.5965  0.8633
15545TIP3   OH268049   5.768   2.842   4.828 -0.2167 -0.0988 -0.3681
15545TIP3    H168050   5.848   2.864   4.875 -0.2469 -0.5740 -0.0785
15545TIP3    H268051   5.793   2.770   4.770 -0.8050 -1.4734  1.0003
15546TIP3   OH268052   4.617   0.423   5.508 -0.1302 -0.0833 -0.4767
15546TIP3    H168053   4.599   0.486   5.439  1.0666  2.6069  1.4907
15546TIP3    H268054   4.710   0.403   5.499 -0.0581 -0.0267  0.1234
15547TIP3   OH268055   6.553   5.120   2.906 -0.5391 -0.1296  0.1923
15547TIP3    H168056   6.522   5.076   2.985 -1.3531  0.5078  0.2479
15547TIP3    H268057   6.591   5.202   2.937  1.1789 -0.8637  0.1115
15548TIP3   OH268058   0.963   1.438  12.795  0.1462  0.2779 -0.0274
15548TIP3    H168059   0.946   1.480  12.880 -1.5012 -1.5810  0.6399
15548TIP3    H268060   0.877   1.435  12.753  0.1613 -2.4415  0.0094
15549TIP3   OH268061   2.557   5.969   2.074  0.4277  0.3796  0.0582
15549TIP3    H168062   2.609   6.021   2.135  2.3519 -1.0181 -0.2665
15549TIP3    H268063   2.530   5.893   2.126  2.6487 -1.1582 -0.8695
15550TIP3   OH268064   3.639   1.531   1.002 -0.1124 -0.0290 -0.0505
15550TIP3    H168065   3.709   1.596   1.006 -1.0812  1.0458  0.0001
15550TIP3    H268066   3.656   1.473   1.076  0.7183  0.2099 -0.0379
15551TIP3   OH268067   6.461   6.707   0.966  0.0825 -0.6610 -0.1725
15551TIP3    H168068   6.541   6.739   0.925  0.5119  0.2720  1.3263
15551TIP3    H268069   6.492   6.653   1.039 -0.6655 -0.8996 -0.0259
15552TIP3   OH268070   4.385   4.012   2.502 -0.1555 -0.8085  0.3680
15552TIP3    H168071   4.409   3.964   2.580  0.4731 -1.2419 -0.0809
15552TIP3    H268072   4.401   4.104   2.524 -2.2922 -0.6556  1.5652
15553TIP3   OH268073   2.025   3.559   6.754  0.0717 -0.0673 -0.3962
15553TIP3    H168074   1.947   3.607   6.726  0.4539  0.0613 -1.2764
15553TIP3    H268075   2.090   3.627   6.770  0.6899 -0.2670 -1.8733
15554TIP3   OH268076   5.009   0.888   3.236 -0.0629 -0.1153  0.6087
15554TIP3    H168077   4.992   0.981   3.249 -0.9563 -0.2049  0.1783
15554TIP3    H268078   4.982   0.847   3.319 -0.4431 -0.0748  0.5081
15555TIP3   OH268079   1.602   2.931  16.014 -0.3696  0.7308 -0.3327
15555TIP3    H168080   1.628   2.880  16.091  0.9220  0.7157 -0.7540
15555TIP3    H268081   1.671   2.997  16.005 -0.8717  1.1657 -1.0816
15556TIP3   OH268082   0.090   0.169  16.038 -0.2068  0.2212  0.6082
15556TIP3    H168083   0.160   0.125  16.087 -0.8932 -0.8694  0.6346
15556TIP3    H268084   0.106   0.144  15.947 -1.8048 -1.8758  0.8377
15557TIP3   OH268085   2.017   5.324  11.043 -0.0240 -0.8845 -0.0696
15557TIP3    H168086   2.065   5.300  10.965 -0.1822  0.0684 -0.4746
15557TIP3    H268087   1.925   5.313  11.019 -0.0859 -0.2841 -0.1422
15558TIP3   OH268088   4.723   4.289   0.833 -0.3696 -0.3998  0.0464
15558TIP3    H168089   4.639   4.244   0.825 -0.4524 -0.4016  0.8639
15558TIP3    H268090   4.736   4.299   0.927  0.8058 -0.8963 -0.0495
15559TIP3   OH268091   3.194   2.897   1.355  0.2944 -0.0539  0.0876
15559TIP3    H168092   3.234   2.981   1.379 -0.8112  0.8581 -1.1013
15559TIP3    H268093   3.167   2.909   1.264 -0.2112 -1.5933  0.0120
15560TIP3   OH268094   1.848   5.656   0.129 -0.1846 -0.3314 -0.3871
15560TIP3    H168095   1.824   5.743   0.161 -0.3789 -0.4051 -0.3308
15560TIP3    H268096   1.899   5.617   0.199  1.9048  0.6037 -1.2944
15561TIP3   OH268097   4.812   4.999  12.651 -0.1616 -0.2780  0.7182
15561TIP3    H168098   4.724   4.983  12.685 -0.7891  2.0319  0.3480
15561TIP3    H268099   4.798   5.053  12.573  1.6137  0.9716  1.2252
15562TIP3   OH268100   2.086   5.742  13.233 -0.4115  0.1892 -0.0374
15562TIP3    H168101   2.081   5.835  13.252 -1.0150  0.3668 -1.0245
15562TIP3    H268102   2.008   5.724  13.180  0.8670 -0.4282 -1.7771
15563TIP3   OH268103   5.007   2.351  16.025  0.2003 -0.1580 -0.6702
15563TIP3    H168104   5.052   2.329  15.944 -0.5931  2.3436 -1.8812
15563TIP3    H268105   4.918   2.373  15.998 -0.2938  0.0422  0.9846
15564TIP3   OH268106   5.748   1.740   3.977 -0.5435  0.4307 -0.0363
15564TIP3    H168107   5.782   1.779   3.897  0.5467 -0.4921 -0.0521
15564TIP3    H268108   5.772   1.647   3.971 -1.4247  0.1203  0.8482
15565TIP3   OH268109   6.137   1.658   6.267 -0.8381 -0.3652  0.0782
15565TIP3    H168110   6.061   1.715   6.259 -0.1541  0.5303 -0.1990
15565TIP3    H268111   6.211   1.712   6.239 -0.3846 -1.9466 -1.9982
15566TIP3   OH268112   4.622   2.561   4.757 -0.2562 -0.3632 -0.0981
15566TIP3    H168113   4.709   2.529   4.778 -0.6595 -1.2854  0.2151
15566TIP3    H268114   4.621   2.568   4.662 -0.4625 -2.2445 -0.2701
15567TIP3   OH268115   0.809   5.063  15.147  0.4938 -0.5618  0.5890
15567TIP3    H168116   0.775   4.997  15.086 -1.1704  0.9906 -0.2738
15567TIP3    H268117   0.878   5.018  15.195  1.0600 -2.2369 -1.6062
15568TIP3   OH268118   5.277   6.057  15.542  0.7702  0.1147 -0.3105
15568TIP3    H168119   5.212   6.087  15.605  0.1219 -1.7750 -0.0332
15568TIP3    H268120   5.297   6.135  15.490 -0.5637  1.0996  0.5883
15569TIP3   OH268121   1.825   6.242   1.434  0.2842  0.1304 -0.4891
15569TIP3    H168122   1.846   6.163   1.485  0.4046  0.7997  0.5119
15569TIP3    H268123   1.729   6.242   1.429  0.3012 -0.3003 -0.8494
15570TIP3   OH268124   6.200   0.906   1.730 -0.1240 -0.4102 -0.2768
15570TIP3    H168125   6.155   0.917   1.647 -0.9586  0.0041  0.2194
15570TIP3    H268126   6.184   0.815   1.755 -1.2747 -0.0941  0.2123
15571TIP3   OH268127   2.594   2.036   5.627 -0.8578  0.1718  0.4246
15571TIP3    H168128   2.502   2.038   5.603 -0.8482 -1.4471  0.1440
15571TIP3    H268129   2.600   1.968   5.694  0.1351  0.2993  0.4803
15572TIP3   OH268130   0.643   3.556  16.949  0.4741  0.1264 -0.3193
15572TIP3    H168131   0.700   3.623  16.985  2.6745 -1.7103 -0.1461
15572TIP3    H268132   0.703   3.489  16.915 -1.5712 -1.9786 -0.0423
15573TIP3   OH268133   1.172   3.565  15.603  0.4727  0.3160  0.2522
15573TIP3    H168134   1.162   3.470  15.608  2.2075  0.1067  0.3585
15573TIP3    H268135   1.204   3.581  15.514  1.3894  0.6626  0.6351
15574TIP3   OH268136   3.052   1.426  13.366 -0.3978  0.9166 -0.1589
15574TIP3    H168137   3.080   1.360  13.303 -0.1664  1.7102 -0.8948
15574TIP3    H268138   2.995   1.378  13.426 -0.3850  0.0852 -0.7911
15575TIP3   OH268139   5.323   5.780  12.739 -0.1315 -0.6150 -0.3407
15575TIP3    H168140   5.355   5.856  12.786 -1.7166 -0.6855  0.9596
15575TIP3    H268141   5.343   5.797  12.647  0.5170  0.8438  0.0567
15576TIP3   OH268142   6.754   3.892  14.950  0.1387 -0.7226  0.3797
15576TIP3    H168143   6.716   3.833  14.884  0.0900 -0.2092 -0.0582
15576TIP3    H268144   6.689   3.962  14.960 -0.0686 -1.0390  1.3281
15577TIP3   OH268145   5.060   3.836  12.765  0.6718 -0.1321 -0.4687
15577TIP3    H168146   4.979   3.801  12.727  0.6258  0.3778 -0.8629
15577TIP3    H268147   5.033   3.871  12.850  0.7897 -1.3449  0.0762
15578TIP3   OH268148   2.841   4.523   2.647  0.0267  0.3782 -0.1136
15578TIP3    H168149   2.913   4.582   2.669  0.7935 -0.0474 -1.3963
15578TIP3    H268150   2.869   4.437   2.678 -0.5899  0.4636  0.7164
15579TIP3   OH268151   6.692   5.043  14.529 -0.1065  0.3702 -0.0504
15579TIP3    H168152   6.710   4.982  14.458  1.2077 -0.1819  0.7259
15579TIP3    H268153   6.651   4.989  14.597 -0.2794  0.6544  0.0732
15580TIP3   OH268154   2.337   2.094  13.219  0.0320 -0.3727 -0.3115
15580TIP3    H168155   2.381   2.148  13.154 -0.8175  0.3836 -0.2610
15580TIP3    H268156   2.408   2.064  13.276  0.6264 -0.0709 -0.8779
15581TIP3   OH268157   4.048   5.091  13.515 -0.0030  0.8007  0.7466
15581TIP3    H168158   3.995   5.028  13.562 -0.6482  0.0491 -0.8915
15581TIP3    H268159   4.129   5.097  13.564 -0.1004 -1.0007  1.1698
15582TIP3   OH268160   6.031   2.160  14.497  0.4268  0.4193 -0.3665
15582TIP3    H168161   6.103   2.108  14.461  0.4843  1.4076 -1.7645
15582TIP3    H268162   6.053   2.169  14.590  0.2369 -2.2787  0.0251
15583TIP3   OH268163   5.001   3.408  14.763  0.3297  0.2014  0.3516
15583TIP3    H168164   5.024   3.482  14.819 -0.5438  0.0002  0.9959
15583TIP3    H268165   4.908   3.418  14.746  0.1393 -0.8882  0.6662
15584TIP3   OH268166   6.701   2.052   3.561  0.5266 -0.1120 -0.3024
15584TIP3    H168167   6.626   2.062   3.502  1.4700 -1.2846 -1.7391
15584TIP3    H268168   6.708   2.138   3.604 -1.0356  0.3244 -0.8256
15585TIP3   OH268169   2.025   3.053   0.582  0.0603  0.7364  0.2918
15585TIP3    H168170   2.078   3.101   0.646 -0.7054  1.7189  0.2284
15585TIP3    H268171   1.983   2.983   0.633 -1.2236  2.0300  1.1073
15586TIP3   OH268172   5.605   0.707  11.242 -0.6001 -0.1386 -0.3376
15586TIP3    H168173   5.620   0.618  11.275 -1.5372 -0.5648 -0.9835
15586TIP3    H268174   5.599   0.761  11.321 -0.5460 -0.7415  0.0921
15587TIP3   OH268175   4.098   6.030   4.808 -0.5579  0.4365  0.1611
15587TIP3    H168176   4.049   6.071   4.879 -0.8912 -0.0139  0.2005
15587TIP3    H268177   4.041   5.958   4.779 -0.4079  0.5940 -0.5337
15588TIP3   OH268178   6.156   0.229  11.352 -0.2652 -0.5582  0.0928
15588TIP3    H168179   6.181   0.204  11.263  0.2685 -0.3388  0.1762
15588TIP3    H268180   6.072   0.186  11.367 -0.9312  0.3283 -0.9411
15589TIP3   OH268181   3.737   1.282  16.764  0.9465  0.8010  0.0240
15589TIP3    H168182   3.800   1.210  16.773  1.0785  0.9018 -0.0925
15589TIP3    H268183   3.730   1.296  16.669  2.4247  2.2660  0.0991
15590TIP3   OH268184   2.952   5.931  11.919  0.2733 -0.0510 -0.1004
15590TIP3    H168185   3.018   5.881  11.871 -0.9597 -1.7986 -0.0874
15590TIP3    H268186   2.949   5.891  12.006 -0.9700 -0.1957 -0.1840
15591TIP3   OH268187   1.197   4.031  14.534 -0.2669  0.3341  0.0011
15591TIP3    H168188   1.281   4.076  14.547 -0.7633  1.5678 -0.8625
15591TIP3    H268189   1.142   4.096  14.491 -1.3021 -0.8544 -0.5157
15592TIP3   OH268190   1.638   5.201  13.275 -0.1307  0.0294 -0.0952
15592TIP3    H168191   1.710   5.191  13.213  0.9089  1.1958  0.8713
15592TIP3    H268192   1.561   5.213  13.220  0.6468  0.2910 -1.1692
15593TIP3   OH268193   3.710   4.360   3.920  0.1836  0.9282 -0.0217
15593TIP3    H168194   3.694   4.418   3.994  0.2630  1.1651 -0.1915
15593TIP3    H268195   3.662   4.398   3.847 -0.0030  0.6230 -0.0618
15594TIP3   OH268196   6.468   4.422  16.339 -0.1185  0.5872  0.1325
15594TIP3    H168197   6.517   4.460  16.266 -0.0683  0.2288 -0.0222
15594TIP3    H268198   6.390   4.478  16.347 -0.3797  0.3244 -0.5284
15595TIP3   OH268199   1.576   4.425  17.070  1.0978 -0.0575 -0.4334
15595TIP3    H168200   1.608   4.513  17.048 -1.7254  1.6566  1.5461
15595TIP3    H268201   1.560   4.383  16.986 -0.7617  2.6903 -1.5781
15596TIP3   OH268202   0.662   1.044  14.752 -0.0762 -0.2406 -0.0926
15596TIP3    H168203   0.591   1.013  14.696  1.5246 -1.4112 -1.5835
15596TIP3    H268204   0.668   1.138  14.735 -0.0277 -0.4710 -1.4696
15597TIP3   OH268205   1.307   6.662  15.788  0.0636  0.6008 -0.3408
15597TIP3    H168206   1.396   6.628  15.780  0.2561  0.8597  0.5898
15597TIP3    H268207   1.256   6.590  15.825  0.4210  1.1957  1.4083
15598TIP3   OH268208   1.337   0.416  16.295  0.6748  0.3596 -0.1900
15598TIP3    H168209   1.386   0.497  16.309  1.4750  0.2846 -2.1948
15598TIP3    H268210   1.369   0.356  16.362 -0.2728  1.7875  1.6413
15599TIP3   OH268211   3.587   3.111  13.931 -0.0188 -0.0430  0.0803
15599TIP3    H168212   3.496   3.130  13.911 -0.3793 -1.3595  0.3536
15599TIP3    H268213   3.637   3.178  13.885 -1.0357 -0.3776 -1.5645
15600TIP3   OH268214   3.819   6.397   3.007 -0.2529  0.0264  0.5315
15600TIP3    H168215   3.784   6.341   2.937  1.1250 -3.1348  2.1276
15600TIP3    H268216   3.912   6.406   2.986 -0.1948  0.5829  1.0057
15601TIP3   OH268217   3.261   2.930   5.380  0.4148 -0.2880 -0.1323
15601TIP3    H168218   3.279   2.866   5.449  0.3900  0.6454  0.7545
15601TIP3    H268219   3.347   2.965   5.357  0.3454 -0.1017 -0.1014
15602TIP3   OH268220   0.697   1.115  16.058 -0.8349 -0.1379 -0.1306
15602TIP3    H168221   0.741   1.031  16.044 -2.4025 -1.0123  0.0433
15602TIP3    H268222   0.745   1.176  16.002  0.4529 -1.0841 -0.1218
15603TIP3   OH268223   2.238   3.408  16.986 -0.5068  0.2490 -0.5371
15603TIP3    H168224   2.150   3.376  17.007 -1.1613  1.7325 -0.8390
15603TIP3    H268225   2.255   3.377  16.898  0.1391 -1.7281  0.2321
15604TIP3   OH268226   4.190   2.571   0.192  0.6825 -0.2223 -0.8166
15604TIP3    H168227   4.280   2.560   0.220  0.0647 -1.0639  1.0149
15604TIP3    H268228   4.193   2.639   0.125  2.9165 -1.7017 -2.3460
15605TIP3   OH268229   0.756   3.902   2.053 -0.4470  0.0889 -0.1987
15605TIP3    H168230   0.775   3.823   2.003 -0.5900 -0.5794  0.7756
15605TIP3    H268231   0.759   3.874   2.145  0.9087  1.5137  0.2385
15606TIP3   OH268232   4.014   5.776  13.595  0.5599 -0.4671  0.0549
15606TIP3    H168233   4.024   5.815  13.508  1.7279  0.7456  0.7066
15606TIP3    H268234   4.047   5.686  13.585 -0.0545 -0.6030 -0.9195
15607TIP3   OH268235   2.840   1.820  17.209  0.4682 -0.3819  0.1549
15607TIP3    H168236   2.870   1.868  17.286 -0.4537 -0.7936  0.7899
15607TIP3    H268237   2.809   1.736  17.243  0.9095 -0.9396 -0.7859
15608TIP3   OH268238   1.755   2.541   2.058 -0.5693 -0.4715 -0.0244
15608TIP3    H168239   1.746   2.593   2.138 -0.9980 -0.2251 -0.2239
15608TIP3    H268240   1.830   2.578   2.013 -0.8369 -0.0523 -0.1368
15609TIP3   OH268241   1.481   5.802  16.622 -0.2960  0.1073  0.3834
15609TIP3    H168242   1.452   5.713  16.607 -1.7119  0.5881  0.1245
15609TIP3    H268243   1.563   5.809  16.573  0.6669 -1.4869  1.6977
15610TIP3   OH268244   1.842   2.020  12.709  0.3075  0.3000  0.0776
15610TIP3    H168245   1.825   1.973  12.627  0.8286 -1.5232  0.9644
15610TIP3    H268246   1.772   1.992  12.768  0.4855  0.8463  0.5587
15611TIP3   OH268247   4.353   3.185  12.617 -0.3390  0.3574 -0.3092
15611TIP3    H168248   4.356   3.264  12.564  2.3864  0.8835  0.4595
15611TIP3    H268249   4.325   3.215  12.704 -1.5111  0.0594 -0.5674
15612TIP3   OH268250   5.630   0.595  11.931  0.3280 -0.2636  0.0091
15612TIP3    H168251   5.605   0.684  11.956  0.4555 -0.2935  0.2410
15612TIP3    H268252   5.591   0.583  11.844 -1.0035 -0.5390  0.6355
15613TIP3   OH268253   6.452   6.252   2.191 -0.4726  0.3328  0.3586
15613TIP3    H168254   6.478   6.167   2.155  0.0429 -0.4445  2.4337
15613TIP3    H268255   6.459   6.241   2.286 -0.5731  2.6495  0.6876
15614TIP3   OH268256   2.946   3.163   2.169 -0.2729  0.2812 -0.2213
15614TIP3    H168257   2.867   3.153   2.223 -0.5063  1.1538 -0.3720
15614TIP3    H268258   2.988   3.242   2.204  1.5431 -1.1620  1.0823
15615TIP3   OH268259   6.299   1.598   0.749  0.0241  0.7220  0.1774
15615TIP3    H168260   6.239   1.669   0.727 -0.9941 -0.3163 -0.4678
15615TIP3    H268261   6.310   1.550   0.667 -0.0710 -0.4216  0.8239
15616TIP3   OH268262   6.301   6.100   1.062 -0.2173 -0.2297 -0.2440
15616TIP3    H168263   6.372   6.049   1.101  1.2894  1.7162 -0.2450
15616TIP3    H268264   6.321   6.100   0.968 -0.8974 -0.6250 -0.3939
15617TIP3   OH268265   3.544   0.137  12.022 -0.4453  0.3332 -0.6349
15617TIP3    H168266   3.465   0.094  11.988  0.1549 -1.1592 -0.1960
15617TIP3    H268267   3.615   0.076  12.004  0.4467  1.1590 -0.0136
15618TIP3   OH268268   4.508   1.625  13.700  0.3042  0.1367  0.1856
15618TIP3    H168269   4.412   1.621  13.707  0.1224  0.3532 -1.7063
15618TIP3    H268270   4.537   1.639  13.790 -1.3224 -1.7049  1.0885
15619TIP3   OH268271   5.767   6.628  11.068 -0.0658 -0.2624  0.2942
15619TIP3    H168272   5.752   6.698  11.005  2.1398  0.6259  0.6539
15619TIP3    H268273   5.777   6.549  11.015 -0.2888  0.1010 -0.2977
15620TIP3   OH268274   5.300   5.967   2.247  0.0020  0.3557  0.5599
15620TIP3    H168275   5.303   5.969   2.151 -0.4161 -1.8822  0.4495
15620TIP3    H268276   5.351   5.889   2.270 -2.2504 -0.8044  1.9692
15621TIP3   OH268277   0.819   0.348  15.619  0.3318 -0.2051  0.5160
15621TIP3    H168278   0.809   0.255  15.598 -0.2447 -0.4432  1.7322
15621TIP3    H268279   0.894   0.352  15.678  0.5406  0.1440  0.2290
15622TIP3   OH268280   6.686   1.785   5.428 -0.2098  0.1528  0.3126
15622TIP3    H168281   6.618   1.838   5.468 -0.1705 -0.5173  1.3013
15622TIP3    H268282   6.768   1.822   5.461 -0.1632 -0.1904  0.5813
15623TIP3   OH268283   3.543   3.136  16.593  0.4221 -0.3543 -0.2617
15623TIP3    H168284   3.572   3.048  16.616  0.0294 -0.7135 -1.0901
15623TIP3    H268285   3.490   3.164  16.667  2.6452  0.2340  1.1995
15624TIP3   OH268286   3.679   1.263  14.349  0.0090  0.2398  0.0064
15624TIP3    H168287   3.731   1.199  14.398 -0.6575  0.1687  0.6327
15624TIP3    H268288   3.663   1.221  14.264  1.6828  0.6068 -0.5335
15625TIP3   OH268289   1.371   0.853   0.162 -0.6986  0.0368 -0.2630
15625TIP3    H168290   1.376   0.843   0.257 -1.5469  1.2607 -0.0753
15625TIP3    H268291   1.278   0.860   0.143 -0.5944 -1.0891 -1.3065
15626TIP3   OH268292   5.535   3.137  16.062 -0.0101  0.5142  0.7906
15626TIP3    H168293   5.458   3.132  16.006 -0.1945  2.3619  0.8140
15626TIP3    H268294   5.513   3.083  16.138 -1.5803  1.5121  1.1016
15627TIP3   OH268295   2.552   0.308  11.349  0.3365  0.0105  0.2702
15627TIP3    H168296   2.504   0.267  11.421  0.4528  1.5721  1.2865
15627TIP3    H268297   2.509   0.275  11.270 -0.4346 -0.9822  1.0753
15628TIP3   OH268298   2.578   2.269   1.858  0.0421 -0.3037  0.0717
15628TIP3    H168299   2.504   2.277   1.798  0.1227  1.9582  0.2033
15628TIP3    H268300   2.578   2.350   1.908 -0.0818 -2.1551  3.2980
15629TIP3   OH268301   5.472   0.251   1.515 -0.4854  0.0912  0.0079
15629TIP3    H168302   5.523   0.236   1.436 -0.9398 -0.3413 -0.2123
15629TIP3    H268303   5.535   0.282   1.579 -0.2740  1.4178 -0.8031
15630TIP3   OH268304   3.306   2.592   2.880 -0.4226  0.5830  0.0138
15630TIP3    H168305   3.275   2.505   2.905  1.0228 -0.6577 -2.2208
15630TIP3    H268306   3.281   2.600   2.788 -0.1596  2.3939  0.0689
15631TIP3   OH268307   1.584   6.345  14.311  0.3187  0.2420  0.6738
15631TIP3    H168308   1.499   6.383  14.331  0.3820 -0.4558  2.5116
15631TIP3    H268309   1.633   6.352  14.393  2.3678  1.4184 -0.5666
15632TIP3   OH268310   3.881   1.836  12.429  0.3607 -0.0743 -0.4297
15632TIP3    H168311   3.821   1.899  12.469  1.3815 -0.2106  1.4338
15632TIP3    H268312   3.967   1.878  12.436  0.9210 -1.2330 -0.0548
15633TIP3   OH268313   1.111   5.037   3.805 -0.5996 -0.1486 -0.1520
15633TIP3    H168314   1.028   5.084   3.812 -1.7949 -2.1681 -0.2097
15633TIP3    H268315   1.140   5.025   3.895 -0.6425  0.0626 -0.1092
15634TIP3   OH268316   3.108   3.304   4.412 -0.3181 -0.0906 -0.1234
15634TIP3    H168317   3.039   3.370   4.423  0.5021  0.6400  0.8131
15634TIP3    H268318   3.077   3.248   4.340 -1.5565  0.6318 -0.1720
15635TIP3   OH268319   1.512   0.313   6.172  0.0120 -0.0964  0.3197
15635TIP3    H168320   1.432   0.306   6.224 -0.2076 -1.0356 -0.1418
15635TIP3    H268321   1.536   0.223   6.151  0.2201  0.2530 -1.0327
15636TIP3   OH268322   5.340   3.727  16.336  0.3938 -0.1226 -0.2343
15636TIP3    H168323   5.260   3.736  16.284  1.1130 -0.9904 -1.5445
15636TIP3    H268324   5.407   3.699  16.273  0.7035 -4.1552  1.5809
15637TIP3   OH268325   3.463   0.034  14.995 -0.2690 -0.3134 -0.7915
15637TIP3    H168326   3.451  -0.040  14.937  0.3702 -1.2505  0.2298
15637TIP3    H268327   3.548   0.018  15.037  0.0549  1.1731 -0.7967
15638TIP3   OH268328   4.737   2.665   5.338 -0.5941 -0.3115 -0.0263
15638TIP3    H168329   4.800   2.692   5.271 -0.1498  0.3414  0.6446
15638TIP3    H268330   4.767   2.579   5.367  1.9864  1.3251  2.6344
15639TIP3   OH268331   3.100   0.266   0.803 -0.0679 -0.3618  0.2722
15639TIP3    H168332   3.069   0.179   0.778  0.6804 -0.3778 -0.6733
15639TIP3    H268333   3.195   0.256   0.813 -0.0724  0.1664  0.9843
15640TIP3   OH268334   0.122   4.320   4.298  0.3880 -0.3656 -0.3978
15640TIP3    H168335   0.053   4.256   4.314  0.5081  0.1543  2.6823
15640TIP3    H268336   0.202   4.276   4.327  0.9450  0.0978 -1.1970
15641TIP3   OH268337   3.423   5.796  17.097 -0.2254  0.1937 -0.0619
15641TIP3    H168338   3.454   5.861  17.034 -0.8232  0.2686 -0.2872
15641TIP3    H268339   3.366   5.845  17.156 -0.1562 -0.0010  0.1697
15642TIP3   OH268340   4.900   5.933   6.190  0.0682 -0.3138 -0.5907
15642TIP3    H168341   4.895   5.875   6.266  2.7415  0.2143  0.1185
15642TIP3    H268342   4.993   5.935   6.168 -0.2819  1.6722 -2.1962
15643TIP3   OH268343   4.887   0.624  16.357  0.1642  0.3902  0.0215
15643TIP3    H168344   4.796   0.605  16.332  0.4734 -1.5765  0.2280
15643TIP3    H268345   4.928   0.538  16.364  1.3775  1.0806  2.4899
15644TIP3   OH268346   6.214   0.241   4.628 -0.0230  0.6271  0.1796
15644TIP3    H168347   6.300   0.250   4.670 -0.1190 -0.5727  0.6711
15644TIP3    H268348   6.234   0.232   4.534  0.5288 -1.1765  0.4314
15645TIP3   OH268349   5.963   1.841  12.370  0.2775  0.3919 -0.2397
15645TIP3    H168350   5.897   1.826  12.438  0.2036  1.1626 -0.1299
15645TIP3    H268351   6.034   1.780  12.391  0.2437  0.6053  0.5201
15646TIP3   OH268352   1.225   6.086  17.191 -0.2350  0.4610 -0.3428
15646TIP3    H168353   1.302   6.130  17.154  0.0955 -0.4683 -0.7868
15646TIP3    H268354   1.193   6.147  17.257  0.2037  1.3799 -0.9452
15647TIP3   OH268355   4.985   2.861   4.370  0.0680  0.1223 -0.3878
15647TIP3    H168356   4.949   2.835   4.285  1.2430  1.7607 -1.4504
15647TIP3    H268357   4.923   2.826   4.434 -0.8152 -1.2226 -1.9008
15648TIP3   OH268358   3.877   3.051  12.250 -0.7317 -0.2160 -0.2011
15648TIP3    H168359   3.944   3.086  12.191 -1.4627  1.9506  0.1485
15648TIP3    H268360   3.817   3.003  12.193 -0.0033 -0.4279 -0.8052
15649TIP3   OH268361   6.085   4.737  14.491 -0.1037  0.6327 -0.3913
15649TIP3    H168362   5.994   4.766  14.500 -0.5732 -0.3082 -1.7332
15649TIP3    H268363   6.079   4.654  14.444  1.3682 -0.3448  1.0441
15650TIP3   OH268364   2.980   0.121   4.119  0.7773 -0.3953 -0.4112
15650TIP3    H168365   3.070   0.153   4.127  0.4578  0.3769  0.2643
15650TIP3    H268366   2.969   0.063   4.194 -0.2321  1.9351  1.3865
15651TIP3   OH268367   6.683   5.249   5.007  0.5803  0.3559  0.6517
15651TIP3    H168368   6.595   5.240   5.043  0.1632 -2.2877 -0.7964
15651TIP3    H268369   6.701   5.164   4.967  3.3035  1.2506 -0.1994
15652TIP3   OH268370   6.335   5.287  13.427  0.1296  0.9953 -0.0671
15652TIP3    H168371   6.327   5.323  13.339  1.4101  0.0655 -0.5910
15652TIP3    H268372   6.266   5.221  13.432  1.0881 -0.1074 -0.9879
15653TIP3   OH268373   1.871   2.502  11.741  0.1849 -0.1476  0.2543
15653TIP3    H168374   1.943   2.561  11.763  1.5669 -2.7248  3.3162
15653TIP3    H268375   1.856   2.451  11.821 -0.4301 -4.4382 -2.3170
15654TIP3   OH268376   2.866   3.787   3.104  0.1265  0.1999 -0.0997
15654TIP3    H168377   2.933   3.773   3.171  1.1145 -0.0246 -1.1061
15654TIP3    H268378   2.803   3.847   3.145  0.4731 -0.2755  1.1708
15655TIP3   OH268379   4.650   1.938  16.748 -0.3280 -0.1291 -0.1644
15655TIP3    H168380   4.646   1.934  16.843  0.0430 -1.2736 -0.1899
15655TIP3    H268381   4.729   1.890  16.725 -0.7060 -0.3344 -1.0816
15656TIP3   OH268382   1.232   0.618   4.010 -0.3551 -0.0683 -0.4718
15656TIP3    H168383   1.257   0.709   3.998 -2.1353  0.4146 -0.7471
15656TIP3    H268384   1.147   0.621   4.053  1.3539 -1.6576  3.6624
15657TIP3   OH268385   2.771   4.859   4.007  0.1918 -0.2089 -0.0329
15657TIP3    H168386   2.843   4.800   3.983 -1.9979 -2.5103 -1.3375
15657TIP3    H268387   2.693   4.805   4.003 -1.6615  2.1372  1.5871
15658TIP3   OH268388   1.879   3.474   2.038  0.0238 -0.0733 -0.5384
15658TIP3    H168389   1.907   3.476   2.129  1.9408 -0.7973 -1.0635
15658TIP3    H268390   1.820   3.398   2.032 -0.9752  0.6011  0.2801
15659TIP3   OH268391   4.273   1.966   3.583  0.5314 -0.4856  0.1749
15659TIP3    H168392   4.314   2.038   3.535 -0.0652  0.3182  0.8387
15659TIP3    H268393   4.182   1.992   3.593  0.1724 -1.5913 -0.0370
15660TIP3   OH268394   3.266   4.655   4.841  0.0827  0.4975  0.2951
15660TIP3    H168395   3.265   4.573   4.891 -0.5153 -0.2126 -0.8385
15660TIP3    H268396   3.333   4.708   4.884  1.2127 -0.9823  0.4520
15661TIP3   OH268397   0.524   5.010   1.820 -0.1164  0.4391  0.0435
15661TIP3    H168398   0.518   5.058   1.737  1.7752 -0.4186 -0.6575
15661TIP3    H268399   0.503   4.920   1.797  1.3168  0.0244  0.2680
15662TIP3   OH268400   6.348   5.532   3.127 -0.4733  0.3320 -0.0308
15662TIP3    H168401   6.295   5.486   3.062  1.2454 -1.9876  0.0628
15662TIP3    H268402   6.429   5.553   3.081  0.5180 -0.7888  1.1389
15663TIP3   OH268403   4.257   5.566  13.995 -0.0314 -0.2384 -0.0553
15663TIP3    H168404   4.279   5.481  14.033 -0.0065  0.3648  1.3417
15663TIP3    H268405   4.264   5.553  13.900 -1.8801 -2.2905  0.0115
15664TIP3   OH268406   1.377   3.915   3.088  0.2580 -0.5910 -0.2651
15664TIP3    H168407   1.386   3.848   3.021 -0.6691 -0.8487 -0.1486
15664TIP3    H268408   1.434   3.886   3.159  1.2637 -0.3027 -0.9297
15665TIP3   OH268409   2.449   4.721   5.283  0.0053 -0.0267 -0.1505
15665TIP3    H168410   2.429   4.802   5.236 -0.1800  0.1641  0.2576
15665TIP3    H268411   2.510   4.675   5.225  0.5788  0.6754 -0.1206
15666TIP3   OH268412   5.410   2.018  10.287 -0.4817 -0.5246  0.4031
15666TIP3    H168413   5.391   2.061  10.203  0.4707  0.3581  0.6134
15666TIP3    H268414   5.465   2.081  10.334 -0.2349 -1.3939  1.3134
15667TIP3   OH268415   3.649   0.498  15.927  0.1824 -0.3193  0.0268
15667TIP3    H168416   3.716   0.451  15.878 -0.2190 -0.3802 -0.4598
15667TIP3    H268417   3.622   0.570  15.869  0.3664  0.1599  0.5225
15668TIP3   OH268418   2.858   2.264  14.913 -0.7100 -0.0425 -0.5143
15668TIP3    H168419   2.832   2.173  14.922 -0.4781  0.0504  1.8886
15668TIP3    H268420   2.930   2.274  14.975 -1.2875  1.9578 -0.0896
15669TIP3   OH268421   2.749   6.208  14.247  0.2170 -0.6508 -0.3415
15669TIP3    H168422   2.737   6.256  14.165  0.9488  0.5279  0.2165
15669TIP3    H268423   2.713   6.121  14.229 -0.9881  0.0281 -1.4428
15670TIP3   OH268424   2.267   5.753   4.114  0.7958  0.9490  0.1049
15670TIP3    H168425   2.323   5.676   4.104 -0.2174  0.4279 -2.1087
15670TIP3    H268426   2.186   5.719   4.150  1.2015  1.4056  1.4926
15671TIP3   OH268427   5.578   1.617   1.746  0.5611 -0.3041  0.9453
15671TIP3    H168428   5.563   1.531   1.707  1.5643  0.0980 -0.4211
15671TIP3    H268429   5.517   1.621   1.820 -1.4979 -1.0848 -0.6232
15672TIP3   OH268430   1.771   0.094   6.117  0.3585  0.0150  0.2868
15672TIP3    H168431   1.709   0.032   6.156  1.6714 -2.2091 -0.9708
15672TIP3    H268432   1.840   0.103   6.182 -1.1579  2.5100  1.6975
15673TIP3   OH268433   2.226   4.871   0.213 -0.2975 -0.0261 -0.6054
15673TIP3    H168434   2.187   4.862   0.300  0.4488 -0.9484 -0.3496
15673TIP3    H268435   2.153   4.862   0.152 -0.5460 -1.3568 -0.1223
15674TIP3   OH268436   0.837   2.886   5.763 -0.1368 -0.0235 -0.4823
15674TIP3    H168437   0.776   2.822   5.726  1.0395 -1.0872 -0.6210
15674TIP3    H268438   0.865   2.848   5.845 -0.9863  1.2908  0.4672
15675TIP3   OH268439   1.858   1.441   3.823 -0.6145  0.0365 -0.1854
15675TIP3    H168440   1.934   1.383   3.810 -0.1969  1.0266 -2.8229
15675TIP3    H268441   1.895   1.522   3.858 -0.7825 -0.2041  0.5719
15676TIP3   OH268442   6.368   6.032  14.647 -0.3461  0.3342  0.7114
15676TIP3    H168443   6.357   5.942  14.677 -5.1047  0.2645 -0.4012
15676TIP3    H268444   6.355   6.085  14.726  0.1696  0.1074  0.9570
15677TIP3   OH268445   3.448   0.366  12.146 -0.6000 -0.5229 -0.0683
15677TIP3    H168446   3.497   0.371  12.227  0.5604 -3.4515 -0.4533
15677TIP3    H268447   3.473   0.282  12.108 -2.4388 -0.0558 -2.6001
15678TIP3   OH268448   0.049   6.143   2.372 -0.5179  0.6014 -0.5201
15678TIP3    H168449   0.002   6.082   2.315 -2.3038 -0.1522  1.6151
15678TIP3    H268450   0.042   6.227   2.328 -2.0821  0.1024 -1.3052
15679TIP3   OH268451   4.076   1.843  15.397  0.7662  0.2535 -1.0924
15679TIP3    H168452   3.984   1.868  15.396 -0.0725 -2.4516 -0.8584
15679TIP3    H268453   4.100   1.833  15.305  0.3693 -0.4535 -1.1243
15680TIP3   OH268454   5.316   0.823   0.383 -0.1597  0.2987  0.0020
15680TIP3    H168455   5.258   0.757   0.420  0.0205  0.4178  0.5158
15680TIP3    H268456   5.278   0.906   0.411 -0.1409  0.3965 -0.2658
15681TIP3   OH268457   2.513   6.610  11.909 -0.3644  0.1200 -0.1135
15681TIP3    H168458   2.526   6.702  11.932 -1.0852 -0.3267  2.3843
15681TIP3    H268459   2.601   6.573  11.907 -0.1916  0.4157  1.1188
15682TIP3   OH268460   6.158   4.372  16.812 -0.0453  0.5395 -0.0281
15682TIP3    H168461   6.096   4.331  16.872  0.2462  0.2195  0.0573
15682TIP3    H268462   6.206   4.299  16.774  0.4570  0.8007  0.0998
15683TIP3   OH268463   5.791   5.059  11.265 -0.2082  0.3280  0.3013
15683TIP3    H168464   5.773   5.082  11.174  0.8320 -1.7571 -0.5095
15683TIP3    H268465   5.871   5.007  11.261 -1.3771 -1.7946  2.0939
15684TIP3   OH268466   0.972   1.704   1.840  0.5794 -0.0133 -0.5544
15684TIP3    H168467   0.885   1.744   1.842  0.7636  0.3806 -0.0493
15684TIP3    H268468   0.982   1.670   1.751 -0.8725 -1.8274 -0.0935
15685TIP3   OH268469   1.804   2.659   1.698 -0.4250 -0.6928  0.1613
15685TIP3    H168470   1.894   2.628   1.706 -0.2198 -0.0517  0.3823
15685TIP3    H268471   1.799   2.734   1.757 -0.6415  0.2920 -1.0846
15686TIP3   OH268472   6.504   0.699  16.604 -0.2189 -0.0832 -0.2821
15686TIP3    H168473   6.410   0.684  16.598 -0.5019  1.3820  0.0154
15686TIP3    H268474   6.534   0.706  16.513 -0.8359  1.7407 -0.3823
15687TIP3   OH268475   2.672   3.583   5.108 -0.3109  0.3990 -0.2388
15687TIP3    H168476   2.646   3.589   5.016  0.1315 -0.0431 -0.3938
15687TIP3    H268477   2.724   3.662   5.123  1.9306 -0.7995 -1.1312
15688TIP3   OH268478   5.430   1.162   2.736 -0.0366 -0.2527  0.0809
15688TIP3    H168479   5.410   1.070   2.716  1.5453 -0.8481  1.0396
15688TIP3    H268480   5.521   1.173   2.710  0.1156  0.7440  0.9591
15689TIP3   OH268481   4.721   0.895  11.654 -0.3373  0.3063  0.5146
15689TIP3    H168482   4.769   0.846  11.720  2.1591  0.1698 -1.2735
15689TIP3    H268483   4.630   0.892  11.683  0.6022  0.0024  3.7343
15690TIP3   OH268484   0.949   0.029  10.722 -0.0702  0.0979 -0.5114
15690TIP3    H168485   0.961   0.118  10.756 -0.1646 -0.6281  1.5497
15690TIP3    H268486   1.029   0.012  10.672  1.5013  0.2203  1.7889
15691TIP3   OH268487   1.957   0.652   0.142  0.1157 -0.2233 -0.7000
15691TIP3    H168488   1.870   0.654   0.101 -1.5641  1.0312  2.5092
15691TIP3    H268489   1.966   0.738   0.183  2.7068 -0.5108 -0.5035
15692TIP3   OH268490   5.723   4.141   5.665 -0.5258 -0.2023 -0.1133
15692TIP3    H168491   5.754   4.061   5.707 -0.5163 -0.0448  0.1810
15692TIP3    H268492   5.635   4.118   5.633 -0.2802 -0.5143 -0.5677
15693TIP3   OH268493   0.534   2.927  15.173  0.5778  0.4119  0.0300
15693TIP3    H168494   0.467   2.863  15.195  1.9551 -0.7202  1.0551
15693TIP3    H268495   0.499   3.011  15.205 -0.3379 -0.1608  0.5551
15694TIP3   OH268496   2.071   0.243   1.741 -0.6780  0.2436  0.7031
15694TIP3    H168497   2.069   0.182   1.814 -0.3503  0.5303  0.9544
15694TIP3    H268498   2.021   0.199   1.671  0.7104 -0.9080  0.3968
15695TIP3   OH268499   0.976   4.467   4.483  0.2997 -0.1821  0.0927
15695TIP3    H168500   0.894   4.507   4.456  0.2131 -0.3316  0.1367
15695TIP3    H268501   1.011   4.527   4.549 -0.1567 -0.5239  0.6468
15696TIP3   OH268502   1.737   4.713   4.683  0.6705  0.2661 -0.1566
15696TIP3    H168503   1.785   4.642   4.725  0.3660  0.3459  0.3345
15696TIP3    H268504   1.712   4.771   4.755 -0.5098  0.0165 -0.3488
15697TIP3   OH268505   6.153   4.636  13.332  0.7078 -0.3284 -0.2341
15697TIP3    H168506   6.145   4.572  13.261 -0.7907 -0.2721 -0.1484
15697TIP3    H268507   6.215   4.701  13.298  0.5790 -0.6860 -1.1997
15698TIP3   OH268508   0.865   4.995   4.713 -0.1701 -0.5795  0.0092
15698TIP3    H168509   0.836   5.000   4.804 -0.5295 -3.6216  0.1768
15698TIP3    H268510   0.936   4.931   4.713  0.6386  0.2366 -1.7066
15699TIP3   OH268511   0.617   4.455   5.406  0.6129  0.1983  0.1490
15699TIP3    H168512   0.641   4.483   5.494 -0.6444  0.2655  0.4855
15699TIP3    H268513   0.699   4.422   5.369  1.4653  1.4585  0.8279
15700TIP3   OH268514   3.718   5.502  13.376  0.1802  0.0183 -0.3263
15700TIP3    H168515   3.778   5.429  13.387 -0.5038 -0.2196  2.3970
15700TIP3    H268516   3.727   5.554  13.455 -1.6644  1.1342 -0.7739
15701TIP3   OH268517   6.681   2.049   5.249  0.0285  0.2124 -0.1760
15701TIP3    H168518   6.673   2.138   5.283  1.4488  0.8012 -1.2837
15701TIP3    H268519   6.615   2.044   5.179 -0.0571  0.4024 -0.1090
15702TIP3   OH268520   5.529   5.940  11.156 -0.4400  0.5074  0.5302
15702TIP3    H168521   5.439   5.955  11.127 -0.6698  0.3767  1.1713
15702TIP3    H268522   5.583   5.981  11.088 -0.9713  0.1619 -0.1052
15703TIP3   OH268523   3.515   2.806   0.597 -0.2576  0.0904  0.0171
15703TIP3    H168524   3.515   2.813   0.502 -3.8156 -3.4333 -0.4960
15703TIP3    H268525   3.586   2.746   0.617  0.6789  1.0558 -0.3128
15704TIP3   OH268526   5.291   1.103  13.578 -0.5993 -0.0222  0.0821
15704TIP3    H168527   5.282   1.107  13.673  0.3787  1.2823  0.1573
15704TIP3    H268528   5.385   1.107  13.563 -0.7903  2.1308 -0.9718
15705TIP3   OH268529   1.483   6.538   2.395  0.0027  0.0005  0.1212
15705TIP3    H168530   1.445   6.547   2.482  1.6169 -1.7827  1.0793
15705TIP3    H268531   1.461   6.448   2.369  1.6616 -0.3429 -0.1982
15706TIP3   OH268532   1.137   0.487   3.679 -0.6708  0.1322  0.2870
15706TIP3    H168533   1.167   0.462   3.592  1.1810  1.6317  0.4349
15706TIP3    H268534   1.164   0.414   3.736 -0.6752 -0.2322 -0.1706
15707TIP3   OH268535   6.185   1.102  14.923 -0.8536  0.1426  0.1499
15707TIP3    H168536   6.247   1.174  14.913  0.9823 -1.4041 -0.1235
15707TIP3    H268537   6.214   1.056  15.001 -2.7448  0.3319  1.0341
15708TIP3   OH268538   3.898   0.420   4.992  0.7304 -0.4576 -0.0786
15708TIP3    H168539   3.955   0.346   4.975  1.5766  0.0943  0.2920
15708TIP3    H268540   3.846   0.430   4.912  0.8791 -1.1969 -0.2740
15709TIP3   OH268541   1.678   3.790  11.940 -0.1616 -0.0304 -0.3053
15709TIP3    H168542   1.610   3.753  11.996 -0.5341  0.7229 -0.2559
15709TIP3    H268543   1.753   3.731  11.951 -0.0106  0.4489  1.4631
15710TIP3   OH268544   5.297   6.184   4.497  0.1026  0.6337 -0.6198
15710TIP3    H168545   5.310   6.191   4.402  0.4952  2.2021 -0.4768
15710TIP3    H268546   5.381   6.208   4.535 -0.2653  0.7518  0.1450
15711TIP3   OH268547   3.612   1.033  11.811  0.6760 -0.6215  0.1379
15711TIP3    H168548   3.613   1.121  11.774  1.6490 -1.0573 -0.9266
15711TIP3    H268549   3.593   1.046  11.904  2.9735  0.9184  0.4823
15712TIP3   OH268550   3.684   0.818   2.986 -0.2230  0.4475 -0.5289
15712TIP3    H168551   3.710   0.750   3.048  2.2200  0.9613 -0.8535
15712TIP3    H268552   3.647   0.888   3.040  0.9671  0.4782  0.2951
15713TIP3   OH268553   5.293   0.152   6.335  0.4056  0.4507 -0.4313
15713TIP3    H168554   5.263   0.242   6.321  1.0480  0.6704 -0.4655
15713TIP3    H268555   5.215   0.098   6.326  0.3341  0.8068 -2.4366
15714TIP3   OH268556   1.343   6.071   0.214  0.3490  0.3377  0.4133
15714TIP3    H168557   1.267   6.013   0.217 -0.2191  1.0553  0.1597
15714TIP3    H268558   1.414   6.016   0.181 -0.0327 -0.3648  0.7439
15715TIP3   OH268559   1.156   2.886   6.485 -0.3092  0.4413  0.1768
15715TIP3    H168560   1.107   2.831   6.547  0.2751  0.0474  0.2923
15715TIP3    H268561   1.225   2.829   6.451 -1.1235  0.4021 -1.4766
15716TIP3   OH268562   3.704   6.064   0.519  0.3042  0.5490  0.2408
15716TIP3    H168563   3.792   6.076   0.556 -0.0878 -0.1075  1.4633
15716TIP3    H268564   3.695   6.133   0.454  2.3272 -0.3615 -1.0944
15717TIP3   OH268565   4.368   0.220   3.654  0.2024  0.7966 -0.4153
15717TIP3    H168566   4.404   0.131   3.648 -0.5721  0.4426 -0.0232
15717TIP3    H268567   4.288   0.217   3.602 -0.7136  0.7788  0.9477
15718TIP3   OH268568   5.632   1.925  12.005  0.4114  0.5670  1.0774
15718TIP3    H168569   5.582   1.994  11.961 -0.1568  0.6216  1.7906
15718TIP3    H268570   5.623   1.945  12.098  0.8723 -0.0473  1.2583
15719TIP3   OH268571   2.374   3.206  12.568 -0.0185  0.0907  0.1203
15719TIP3    H168572   2.375   3.253  12.485 -1.2738 -0.5732 -0.3093
15719TIP3    H268573   2.301   3.244  12.616 -1.0167 -1.3137 -0.2125
15720TIP3   OH268574   6.377   6.157   3.089 -0.2756 -0.2654 -0.1460
15720TIP3    H168575   6.328   6.076   3.101 -1.0427 -0.0565 -1.6329
15720TIP3    H268576   6.358   6.183   2.999  2.6420 -0.2424 -0.8810
15721TIP3   OH268577   0.075   2.954  11.435  0.5672  0.0640 -0.0009
15721TIP3    H168578   0.117   3.029  11.394 -1.0717 -0.3413 -2.6271
15721TIP3    H268579   0.110   2.878  11.388 -0.4361 -0.5290  0.1784
15722TIP3   OH268580   2.465   0.059  15.408 -0.1721 -0.2061 -0.1544
15722TIP3    H168581   2.557   0.036  15.394 -0.4284 -0.2625 -1.8936
15722TIP3    H268582   2.427   0.062  15.321 -1.0793  3.0226  0.2149
15723TIP3   OH268583   3.863   2.129   3.820 -0.3040 -0.4640 -0.6060
15723TIP3    H168584   3.921   2.187   3.870 -0.8095 -0.4365 -0.0404
15723TIP3    H268585   3.918   2.055   3.795  0.2095  0.0012 -0.8639
15724TIP3   OH268586   0.655   3.865  13.541 -0.3575 -0.9402 -0.2710
15724TIP3    H168587   0.589   3.924  13.503 -0.9500 -1.9718 -0.8822
15724TIP3    H268588   0.723   3.859  13.475 -0.9106 -1.9371 -0.7729
15725TIP3   OH268589   0.583   4.531   2.434  0.2646 -0.4755 -0.7114
15725TIP3    H168590   0.612   4.487   2.355 -0.9218 -0.6648 -1.0501
15725TIP3    H268591   0.488   4.528   2.431  0.1900 -0.1372  0.5273
15726TIP3   OH268592   1.418   5.730  13.673  0.2142  0.0495  0.1004
15726TIP3    H168593   1.392   5.782  13.597  0.5794  2.0454  1.2614
15726TIP3    H268594   1.512   5.746  13.682  0.1034  0.1641  1.1830
15727TIP3   OH268595   0.292   0.204   3.846 -0.0767  0.7158  0.1564
15727TIP3    H168596   0.209   0.159   3.832  1.2030 -2.5542  2.0554
15727TIP3    H268597   0.294   0.224   3.940  1.5516 -0.0008  0.3197
15728TIP3   OH268598   1.853   2.627  14.857 -0.3082 -0.5005  0.2615
15728TIP3    H168599   1.829   2.714  14.888 -1.3172  0.1390 -2.1045
15728TIP3    H268600   1.931   2.604  14.908 -0.9328  1.0776  2.0374
15729TIP3   OH268601   2.057   4.726  14.968  0.5921  0.1073  0.2848
15729TIP3    H168602   2.120   4.796  14.951 -0.0101  0.3768 -0.9638
15729TIP3    H268603   2.093   4.679  15.043  2.8356 -0.3929 -1.0198
15730TIP3   OH268604   5.452   5.886  15.424  0.1882  0.0071  0.6124
15730TIP3    H168605   5.401   5.810  15.450 -3.1067  0.8332 -2.5732
15730TIP3    H268606   5.400   5.961  15.454 -1.0016  0.8891 -3.1146
15731TIP3   OH268607   1.666   1.601   1.922  0.4424  0.2822  0.5444
15731TIP3    H168608   1.604   1.548   1.872  1.2437  1.1809 -1.5183
15731TIP3    H268609   1.619   1.625   2.002 -1.0817 -0.7890  0.0037
15732TIP3   OH268610   4.269   5.741   2.764  0.2468  0.1491  0.6312
15732TIP3    H168611   4.242   5.651   2.747 -0.0304  0.5401 -1.2046
15732TIP3    H268612   4.187   5.789   2.774  0.3514  0.4216  0.2346
15733TIP3   OH268613   1.510   1.397   3.933 -0.4971 -0.1627 -0.3384
15733TIP3    H168614   1.548   1.415   3.847 -0.0649  3.5206  0.4376
15733TIP3    H268615   1.551   1.316   3.961  0.0353 -0.9945 -3.1798
15734TIP3   OH268616   0.825   2.298   3.882 -0.0494 -0.5544  0.4469
15734TIP3    H168617   0.735   2.299   3.848 -0.3872 -1.3539  1.2608
15734TIP3    H268618   0.862   2.382   3.855 -0.1770 -1.2410 -2.1273
15735TIP3   OH268619   1.434   3.449   5.881 -0.6719 -0.6437  0.5818
15735TIP3    H168620   1.463   3.377   5.825  1.1272  0.3034  0.2302
15735TIP3    H268621   1.455   3.420   5.970  0.7689 -0.2711  0.3860
15736TIP3   OH268622   5.112   1.712  16.095  0.4101  0.0040  0.0320
15736TIP3    H168623   5.188   1.684  16.045  0.7707 -0.1083  0.6414
15736TIP3    H268624   5.092   1.638  16.152  0.5601  0.4713  0.7032
15737TIP3   OH268625   0.361   4.959  14.862 -0.1766  0.0503  0.2285
15737TIP3    H168626   0.328   4.905  14.934  0.7444  1.4291  1.7813
15737TIP3    H268627   0.399   4.897  14.801  0.2851 -1.1209  1.6399
15738TIP3   OH268628   0.232   5.435  11.108  0.1449 -0.3826  0.2430
15738TIP3    H168629   0.181   5.511  11.081 -0.2949 -0.7282  0.0911
15738TIP3    H268630   0.172   5.361  11.099  1.3210 -1.1410 -2.1577
15739TIP3   OH268631   3.806   4.945   4.521  0.3030 -0.4080  0.4963
15739TIP3    H168632   3.760   4.977   4.599  0.3870  2.5246 -0.5345
15739TIP3    H268633   3.841   4.860   4.548 -1.2096 -0.3502  3.0345
15740TIP3   OH268634   0.046   1.074  11.373 -0.3805  0.0644 -0.0464
15740TIP3    H168635   0.091   1.034  11.299 -1.2317  0.5992 -0.8656
15740TIP3    H268636  -0.018   1.009  11.401  0.7849 -0.6509  1.0483
15741TIP3   OH268637   4.725   0.946   0.417  0.0611 -0.5945  0.4310
15741TIP3    H168638   4.673   0.892   0.357 -0.6266  2.0478 -1.5180
15741TIP3    H268639   4.660   0.985   0.475  0.3206 -0.2819  0.5091
15742TIP3   OH268640   1.916   3.739  12.287  0.6500 -0.2981 -0.5356
15742TIP3    H168641   2.011   3.733  12.283  0.6191 -0.0053 -2.1048
15742TIP3    H268642   1.889   3.659  12.334  1.6569 -0.2685  0.1222
15743TIP3   OH268643   0.595   0.549  16.012  0.2176 -0.3576  0.5614
15743TIP3    H168644   0.626   0.586  16.095 -1.7902 -0.1227  1.2637
15743TIP3    H268645   0.509   0.512  16.033  0.0307 -1.0317 -1.2485
15744TIP3   OH268646   5.535   4.595   1.810  0.3262 -0.2220 -0.0785
15744TIP3    H168647   5.499   4.682   1.793 -1.5350 -1.0663 -0.7065
15744TIP3    H268648   5.596   4.608   1.882 -2.8546  1.0130  2.6521
15745TIP3   OH268649   1.372   2.686  11.399 -0.2286 -0.2786 -0.2579
15745TIP3    H168650   1.298   2.746  11.404 -0.7641 -0.7777 -1.6602
15745TIP3    H268651   1.447   2.737  11.430 -0.7049  1.0674 -1.2326
15746TIP3   OH268652   2.453   5.711  13.460  0.0958 -0.0494  0.5315
15746TIP3    H168653   2.357   5.709  13.458  0.0259  1.9543 -1.3070
15746TIP3    H268654   2.480   5.675  13.376  0.8829  0.5514  0.5146
15747TIP3   OH268655   3.940   5.200   0.779  0.0996  0.2224  0.2336
15747TIP3    H168656   4.001   5.271   0.760  1.2424 -0.4287  1.3631
15747TIP3    H268657   3.917   5.166   0.692 -0.3587  1.8497 -0.3165
15748TIP3   OH268658   5.921   1.836  15.129  0.2808  0.0414 -0.2510
15748TIP3    H168659   5.877   1.752  15.141 -0.1609  0.1164 -1.2760
15748TIP3    H268660   5.903   1.861  15.038 -1.9402  2.5915  0.7522
15749TIP3   OH268661   3.911   3.149   1.402 -0.5855  0.3568 -0.1278
15749TIP3    H168662   3.993   3.179   1.440 -0.0175  1.1193 -1.8557
15749TIP3    H268663   3.863   3.230   1.381 -0.0423  0.0870 -2.7194
15750TIP3   OH268664   4.894   4.191   2.507 -0.5084 -0.1254  0.2381
15750TIP3    H168665   4.870   4.225   2.421 -3.8717  1.5768  1.7045
15750TIP3    H268666   4.824   4.130   2.529 -0.4614  0.5046  2.3134
15751TIP3   OH268667   4.692   4.897   6.145  0.3610 -0.1385 -0.4236
15751TIP3    H168668   4.661   4.811   6.116 -0.5171 -0.4578  1.3171
15751TIP3    H268669   4.627   4.926   6.209  0.1276  2.2784 -1.6332
15752TIP3   OH268670   4.542   3.067  12.242 -0.0841 -0.6561 -0.1975
15752TIP3    H168671   4.630   3.078  12.205  0.6759 -0.9836  1.4332
15752TIP3    H268672   4.485   3.117  12.184  1.1240 -0.7237 -1.4900
15753TIP3   OH268673   0.077   0.008   3.318  0.0518 -1.0945  0.3313
15753TIP3    H168674   0.067  -0.012   3.225  1.3165  1.3107 -0.3902
15753TIP3    H268675   0.006   0.069   3.337  1.3008  0.4554  0.2270
15754TIP3   OH268676   0.113   2.782   0.283  0.3869 -0.3619 -0.0844
15754TIP3    H168677   0.096   2.737   0.200  0.2392 -0.4753  0.0064
15754TIP3    H268678   0.178   2.728   0.327  0.3619 -0.3775 -0.0660
15755TIP3   OH268679   1.976   5.606   5.061  0.3027 -0.5515  0.1204
15755TIP3    H168680   1.913   5.577   4.995  0.2917 -0.3327  0.0343
15755TIP3    H268681   2.051   5.548   5.049  0.0633 -0.9124  0.3210
15756TIP3   OH268682   0.266   6.254   2.519 -0.5724  0.1633 -0.1519
15756TIP3    H168683   0.339   6.261   2.457 -1.3942 -1.3647 -1.3759
15756TIP3    H268684   0.189   6.240   2.464 -1.4577 -0.4340  1.1875
15757TIP3   OH268685   5.020   5.692  13.620 -0.2297 -0.5445 -0.7204
15757TIP3    H168686   5.063   5.777  13.623 -0.5891 -0.3881  1.2182
15757TIP3    H268687   5.060   5.642  13.692 -1.5718 -1.2289 -0.4094
15758TIP3   OH268688   2.233   6.226   3.389  0.0992 -0.1644 -0.3367
15758TIP3    H168689   2.208   6.290   3.323  1.3624  0.8513  0.1238
15758TIP3    H268690   2.255   6.279   3.466  0.0647 -1.2297  0.4301
15759TIP3   OH268691   0.452   0.728  13.774  0.0525 -0.8243  0.1652
15759TIP3    H168692   0.363   0.697  13.791  0.0739 -0.5106  0.9030
15759TIP3    H268693   0.504   0.648  13.763 -0.4961 -1.0016 -1.2955
15760TIP3   OH268694   0.463   1.478  11.231 -0.3460 -0.2054  0.6387
15760TIP3    H168695   0.527   1.427  11.280  0.0816 -0.4223 -0.1342
15760TIP3    H268696   0.492   1.569  11.241  0.2196 -0.3237  0.1004
15761TIP3   OH268697   0.122   2.040  12.297  0.7966 -0.1226  0.1928
15761TIP3    H168698   0.117   2.026  12.202 -2.1810  0.3585  0.1895
15761TIP3    H268699   0.076   2.123  12.311 -0.3473 -1.0220  2.1964
15762TIP3   OH268700   4.954   0.230  14.678 -0.3758 -0.0421 -0.2150
15762TIP3    H168701   4.990   0.144  14.700  1.8858  0.4666 -1.6141
15762TIP3    H268702   4.890   0.212  14.609 -0.4968 -0.6631  0.0466
15763TIP3   OH268703   3.600   0.635  12.855  0.1614  0.4979  0.1600
15763TIP3    H168704   3.516   0.676  12.836  0.0978 -0.0988 -0.8939
15763TIP3    H268705   3.616   0.576  12.782  1.3807  0.4047  0.4716
15764TIP3   OH268706   1.453   6.179   1.923  0.1901 -0.8257 -0.9022
15764TIP3    H168707   1.529   6.205   1.871  1.9912 -0.4221  1.7335
15764TIP3    H268708   1.402   6.260   1.935  1.2460 -0.2871  0.1758
15765TIP3   OH268709   0.556   1.010   2.075 -0.5726  0.0569 -0.1564
15765TIP3    H168710   0.543   1.019   2.169  0.2164  0.3514 -0.0717
15765TIP3    H268711   0.628   0.948   2.066 -1.3854 -0.8562 -0.5996
15766TIP3   OH268712   0.960   3.029  15.494  0.2208  0.0332 -0.0403
15766TIP3    H168713   1.011   3.086  15.436  1.1053 -0.0234  0.6546
15766TIP3    H268714   0.915   2.969  15.435 -0.1294  0.9667 -0.7428
15767TIP3   OH268715   1.324   4.245  12.693  0.1649  0.2641 -0.3731
15767TIP3    H168716   1.265   4.193  12.638  1.5460 -0.7165 -0.9946
15767TIP3    H268717   1.393   4.184  12.718  0.7122  1.2726  0.6636
15768TIP3   OH268718   4.251   0.977  13.933 -0.4029 -0.1462  1.0277
15768TIP3    H168719   4.274   0.991  13.841 -2.1931 -0.6614  0.4663
15768TIP3    H268720   4.332   0.995  13.981  0.0795  2.0467 -0.4626
15769TIP3   OH268721   2.158   0.672  11.441  0.8634 -0.2180  0.7764
15769TIP3    H168722   2.064   0.659  11.430  0.9173 -1.2034  1.3511
15769TIP3    H268723   2.166   0.745  11.502  0.4756 -0.0804  0.6625
15770TIP3   OH268724   2.936   4.148  14.742 -0.1271 -1.0328  0.3378
15770TIP3    H168725   2.940   4.232  14.697  0.2580 -1.6933 -0.8903
15770TIP3    H268726   2.861   4.157  14.801  0.4087  0.4558  0.8688
15771TIP3   OH268727   0.116   5.746   1.553 -0.2857  0.5423 -0.3110
15771TIP3    H168728   0.142   5.836   1.530 -0.1297  0.8783  1.1054
15771TIP3    H268729   0.023   5.743   1.533 -0.3907  1.1674  0.0585
15772TIP3   OH268730   0.526   0.990  16.992  0.6480 -0.1300 -0.3864
15772TIP3    H168731   0.543   0.951  17.078  0.0112 -0.4038 -0.3724
15772TIP3    H268732   0.464   1.060  17.010 -0.3723 -0.9117 -0.7454
15773TIP3   OH268733   2.973   3.061  12.153  0.4700  0.4372  0.1469
15773TIP3    H168734   2.989   3.104  12.070 -1.1113 -0.3271 -0.6001
15773TIP3    H268735   2.997   2.969  12.137  0.2446  0.3032  0.5659
15774TIP3   OH268736   6.325   5.378   2.894  0.2856 -0.0836  0.4283
15774TIP3    H168737   6.340   5.305   2.954  2.4970  0.8142  1.0856
15774TIP3    H268738   6.255   5.348   2.837  1.5081 -3.0046  0.2661
15775TIP3   OH268739   3.468   3.483  15.200 -0.2540 -0.3394 -0.0763
15775TIP3    H168740   3.559   3.464  15.178 -0.1696 -1.0406  0.7953
15775TIP3    H268741   3.421   3.402  15.180  0.0367 -1.5435  3.3125
15776TIP3   OH268742   2.219   2.604  16.284 -0.2954 -0.3356  0.1990
15776TIP3    H168743   2.158   2.575  16.217  0.5051 -1.2804 -0.1580
15776TIP3    H268744   2.235   2.526  16.338  0.1804  0.0290  0.6054
15777TIP3   OH268745   2.779   5.773   2.795 -1.4521  0.4292  0.2808
15777TIP3    H168746   2.846   5.717   2.833  1.6048  2.2573 -1.9104
15777TIP3    H268747   2.718   5.713   2.752 -1.1367 -1.3062  2.1166
15778TIP3   OH268748   1.775   2.127   1.141  0.5719  0.5414 -0.1666
15778TIP3    H168749   1.776   2.210   1.095  0.2794  1.3925  1.2976
15778TIP3    H268750   1.793   2.062   1.074 -0.1569  1.6923 -1.5146
15779TIP3   OH268751   5.307   4.378  13.358  0.2766 -1.2356  0.4375
15779TIP3    H168752   5.236   4.419  13.307 -0.9913 -2.1191  1.4342
15779TIP3    H268753   5.386   4.395  13.306 -0.6059  0.0236 -0.5749
15780TIP3   OH268754   5.091   3.045   2.892 -0.1215 -0.2524  0.1708
15780TIP3    H168755   5.056   3.098   2.964  0.9735  0.8454 -0.0727
15780TIP3    H268756   5.139   2.974   2.936  0.5717  0.4327  0.5442
15781TIP3   OH268757   0.987   1.972  12.450  0.0251 -0.2622  0.1616
15781TIP3    H168758   1.008   1.990  12.358 -0.0220  0.4352  0.2845
15781TIP3    H268759   0.902   2.014  12.464 -0.2362 -0.8552  0.3701
15782TIP3   OH268760   1.188   5.878   1.123  0.7314  0.1002  0.2314
15782TIP3    H168761   1.116   5.941   1.131  0.2126 -0.4429 -0.0987
15782TIP3    H268762   1.244   5.915   1.055  0.4359  0.2164  0.0502
15783TIP3   OH268763   4.305   3.629  13.770 -0.4583 -0.6055 -0.3330
15783TIP3    H168764   4.309   3.654  13.863 -0.4122  1.8154 -0.9311
15783TIP3    H268765   4.275   3.538  13.772 -2.2383 -0.0881  2.0082
15784TIP3   OH268766   1.953   4.078  10.677  0.2859  0.0936 -0.0418
15784TIP3    H168767   2.040   4.093  10.640 -0.4238  2.7994 -0.8738
15784TIP3    H268768   1.957   3.990  10.715  2.9281 -0.3927 -1.2567
15785TIP3   OH268769   5.160   2.274   0.257 -0.4743 -0.4924 -0.0025
15785TIP3    H168770   5.073   2.290   0.221 -0.5910  2.6220  1.4151
15785TIP3    H268771   5.216   2.262   0.181 -1.6568  0.2354 -1.0108
15786TIP3   OH268772   1.758   3.927   5.876 -0.1564  0.0697 -0.3727
15786TIP3    H168773   1.725   3.886   5.956 -0.6266 -1.0448 -1.0988
15786TIP3    H268774   1.810   3.858   5.835 -0.6550  0.3176 -1.4578
15787TIP3   OH268775   2.574   6.757   2.064  0.3784 -0.5356  0.2669
15787TIP3    H168776   2.644   6.774   2.001 -0.1732 -2.6727 -1.0343
15787TIP3    H268777   2.607   6.789   2.147  1.4905  1.6181 -0.9255
15788TIP3   OH268778   1.412   5.004   2.940 -0.0385 -0.6187  0.7468
15788TIP3    H168779   1.352   4.983   3.011 -1.7614 -1.1495 -0.7651
15788TIP3    H268780   1.389   4.941   2.871  0.9272  0.4559 -0.6016
15789TIP3   OH268781   0.435   3.416   1.412  0.2826  0.1885  0.0660
15789TIP3    H168782   0.357   3.435   1.463 -0.3953 -0.0199 -0.8638
15789TIP3    H268783   0.402   3.384   1.328  1.3398 -2.4527  0.5367
15790TIP3   OH268784   0.962   0.106   0.549 -0.1911 -0.3459  0.0735
15790TIP3    H168785   0.952   0.034   0.487 -2.2107 -1.8736  1.9857
15790TIP3    H268786   0.896   0.170   0.522 -0.2619 -0.4718 -0.0526
15791TIP3   OH268787   3.120   2.039   0.370  0.6080  0.0170 -0.9099
15791TIP3    H168788   3.115   2.091   0.290  1.8740  0.7934 -0.5377
15791TIP3    H268789   3.094   2.100   0.439  0.7111 -0.2780 -0.6082
15792TIP3   OH268790   2.842   3.696  12.456 -0.4786 -0.3429 -0.2651
15792TIP3    H168791   2.764   3.737  12.493 -0.1211 -1.1125  1.4437
15792TIP3    H268792   2.813   3.608  12.431 -0.3854 -0.2970 -0.5365
15793TIP3   OH268793   2.067   6.092  15.846 -0.5834 -0.0678  0.3069
15793TIP3    H168794   2.089   6.182  15.823  1.9622 -0.7303 -0.0685
15793TIP3    H268795   2.128   6.069  15.915 -1.8619 -1.2285  1.1024
15794TIP3   OH268796   1.680   1.405  16.186 -0.1954 -0.3371  0.5842
15794TIP3    H168797   1.600   1.391  16.135 -0.1766 -0.7530  0.6640
15794TIP3    H268798   1.655   1.381  16.276 -0.4398  1.0852  0.9265
15795TIP3   OH268799   2.385   6.542   4.458 -0.3478  0.1944 -0.1308
15795TIP3    H168800   2.435   6.600   4.401 -0.0533 -0.9082 -1.0436
15795TIP3    H268801   2.395   6.579   4.546  1.6368  0.2961 -0.3607
15796TIP3   OH268802   0.448   5.792   4.435 -0.3140  0.0410 -0.0425
15796TIP3    H168803   0.357   5.809   4.456 -0.6516 -1.5780 -0.0489
15796TIP3    H268804   0.445   5.731   4.361  0.6625 -2.1794  1.6025
15797TIP3   OH268805   0.444   2.228  12.661  0.3353  0.3154 -0.8755
15797TIP3    H168806   0.523   2.219  12.608  0.0478 -1.1864 -1.0811
15797TIP3    H268807   0.372   2.208  12.601 -0.0733 -0.2102 -0.2272
15798TIP3   OH268808   5.731   5.352   2.322  0.1449 -0.3858  0.6552
15798TIP3    H168809   5.694   5.414   2.260 -0.5173 -0.7226  0.7092
15798TIP3    H268810   5.817   5.330   2.287  0.2565  0.3267  0.4785
15799TIP3   OH268811   5.399   5.594   1.079  0.1680 -0.2286 -0.5140
15799TIP3    H168812   5.398   5.500   1.099 -0.8384 -0.2127 -0.4272
15799TIP3    H268813   5.416   5.598   0.985  0.2395 -0.4893 -0.5155
15800TIP3   OH268814   4.846   0.414  13.153  0.2759 -0.0053 -0.4290
15800TIP3    H168815   4.871   0.488  13.098  1.5124  0.5001  0.7585
15800TIP3    H268816   4.930   0.375  13.179 -0.3389 -1.6394 -0.7636
15801TIP3   OH268817   6.761   4.114  11.616 -0.5618  0.5581 -0.0715
15801TIP3    H168818   6.843   4.111  11.568 -0.4428  0.2813  0.1438
15801TIP3    H268819   6.732   4.022  11.619 -1.7234  0.8388 -1.5943
15802TIP3   OH268820   3.892   2.322   1.651 -0.1627 -0.2758  0.2772
15802TIP3    H168821   3.986   2.323   1.631 -0.2016 -1.4702 -0.0529
15802TIP3    H268822   3.851   2.365   1.575 -0.0689 -2.1186 -0.8789
15803TIP3   OH268823   3.458   5.812   0.919  0.2715  0.2278 -0.3685
15803TIP3    H168824   3.370   5.840   0.892  0.5868  0.6965 -0.9321
15803TIP3    H268825   3.505   5.800   0.836  0.9356  0.6266 -0.0531
15804TIP3   OH268826   3.087   0.569  11.288  0.4623  0.2616  0.0484
15804TIP3    H168827   3.019   0.595  11.226 -0.8045 -1.2312  0.7543
15804TIP3    H268828   3.160   0.541  11.232  0.2944  1.3393 -0.7304
15805TIP3   OH268829   1.863   3.492  14.484 -0.0258 -0.3654  0.0668
15805TIP3    H168830   1.810   3.419  14.452 -1.4908  1.5108 -2.1109
15805TIP3    H268831   1.937   3.497  14.423 -0.8202  0.8968 -0.8672
15806TIP3   OH268832   5.556   6.092   1.807 -0.1628  0.1223 -0.0680
15806TIP3    H168833   5.643   6.114   1.840  0.9382 -2.5180 -1.0052
15806TIP3    H268834   5.559   5.999   1.789 -2.0651  0.5498 -3.4492
15807TIP3   OH268835   6.708   4.934   2.009 -0.2933  0.4307 -0.0410
15807TIP3    H168836   6.653   4.943   1.931  0.8138  2.2568 -0.6772
15807TIP3    H268837   6.779   4.997   1.996  0.3721  0.2132  2.0835
15808TIP3   OH268838   1.569   3.070   1.094 -0.4847 -0.7474 -0.1278
15808TIP3    H168839   1.612   2.998   1.139 -2.6946 -2.6629 -0.8191
15808TIP3    H268840   1.620   3.083   1.014  0.4809 -0.8865  0.4598
15809TIP3   OH268841   2.183   0.815   1.564  0.8532 -0.9985  0.5007
15809TIP3    H168842   2.191   0.762   1.644  1.5043 -1.3756  0.1900
15809TIP3    H268843   2.093   0.802   1.536 -0.2336  1.1667  2.5741
15810TIP3   OH268844   4.580   0.522   4.760  0.6817  0.4688  0.5468
15810TIP3    H168845   4.637   0.456   4.799  1.0301 -0.4776 -1.4278
15810TIP3    H268846   4.501   0.474   4.735  0.9080  0.7860 -0.8560
15811TIP3   OH268847   6.430   0.513   2.322 -0.4079 -0.0033  0.4114
15811TIP3    H168848   6.430   0.417   2.326  0.7291 -0.0096  0.8107
15811TIP3    H268849   6.450   0.541   2.412 -1.6978  0.6486  0.5192
15812TIP3   OH268850   0.941   1.236  14.613  0.0437  0.2036 -0.0394
15812TIP3    H168851   0.964   1.144  14.611  1.2624  0.3963  1.9980
15812TIP3    H268852   0.886   1.246  14.691  0.7012  1.3128  0.3197
15813TIP3   OH268853   4.718   0.337   4.915  0.0302  0.5966  0.7234
15813TIP3    H168854   4.734   0.332   5.010  0.5233  0.2165  0.6199
15813TIP3    H268855   4.784   0.281   4.876 -2.3640 -2.2029  0.3473
15814TIP3   OH268856   2.442   3.827   2.490 -0.5557  0.2748 -0.1324
15814TIP3    H168857   2.462   3.888   2.561 -0.3931  1.1538 -0.9104
15814TIP3    H268858   2.526   3.814   2.446 -0.7755  0.2232 -0.5383
15815TIP3   OH268859   1.150   2.479   3.987 -0.1629 -0.0686  0.7392
15815TIP3    H168860   1.223   2.534   3.957  0.6167 -1.1881  0.5361
15815TIP3    H268861   1.190   2.394   4.006 -1.2798 -0.4614  1.4257
15816TIP3   OH268862   6.111   3.948   2.940  0.0181  0.1481 -0.7652
15816TIP3    H168863   6.095   3.995   2.858 -1.2132  0.9888 -0.0756
15816TIP3    H268864   6.123   4.018   3.005 -1.8392 -0.4301  0.2870
15817TIP3   OH268865   6.321   1.040   1.947  0.5178  0.4189  0.7622
15817TIP3    H168866   6.270   1.009   1.873 -0.5667  1.0145  1.2401
15817TIP3    H268867   6.364   1.120   1.916 -0.0495  0.7453  0.8133
15818TIP3   OH268868   1.661   4.071   3.356 -0.2169  0.8920 -0.0572
15818TIP3    H168869   1.603   4.095   3.429 -3.1972  4.3351 -3.1397
15818TIP3    H268870   1.645   3.978   3.342 -0.0617  0.2594  3.0801
15819TIP3   OH268871   2.919   4.631  13.285  0.3781 -0.3399 -0.3553
15819TIP3    H168872   2.851   4.694  13.308  0.5295  0.0725 -1.0424
15819TIP3    H268873   2.880   4.577  13.216  0.6174 -0.3352 -0.4969
15820TIP3   OH268874   2.655   2.895   1.980 -0.4582 -0.2722  0.1734
15820TIP3    H168875   2.671   2.844   1.901 -0.7601  0.1491 -0.1643
15820TIP3    H268876   2.742   2.916   2.014 -0.3183 -1.7805  0.8250
15821TIP3   OH268877   3.862   3.090  16.868 -0.2253  0.6368 -0.2881
15821TIP3    H168878   3.785   3.143  16.888 -0.3904  0.7041 -1.0438
15821TIP3    H268879   3.936   3.143  16.895 -0.4605 -0.4630  2.8579
15822TIP3   OH268880   0.143   6.007  13.894 -0.2960 -0.8172 -0.1281
15822TIP3    H168881   0.219   5.978  13.844  1.2085 -0.1777  1.6586
15822TIP3    H268882   0.148   5.958  13.977 -1.3243 -0.1315  0.3630
15823TIP3   OH268883   0.592   6.574   6.851  0.3831  0.9430  0.0987
15823TIP3    H168884   0.679   6.590   6.814 -0.4017 -1.4144 -3.1799
15823TIP3    H268885   0.605   6.504   6.915  0.7055 -1.0152 -1.9993
15824TIP3   OH268886   5.282   0.379   0.067 -0.5862  0.3820  0.0082
15824TIP3    H168887   5.298   0.293   0.106 -1.2883 -1.2379 -2.9851
15824TIP3    H268888   5.322   0.440   0.128 -0.4336 -1.9930  2.5081
15825TIP3   OH268889   4.200   5.981  13.383 -0.2437  0.0706 -0.3960
15825TIP3    H168890   4.243   6.008  13.302  0.1077  1.2050  0.1392
15825TIP3    H268891   4.113   5.951  13.356  0.6753 -1.7756 -1.4280
15826TIP3   OH268892   4.812   2.129  15.021 -0.2364 -0.3112 -0.1708
15826TIP3    H168893   4.866   2.055  14.992  0.6687  0.2289  0.0966
15826TIP3    H268894   4.731   2.120  14.972 -0.1813 -1.5410 -0.0765
15827TIP3   OH268895   4.880   5.939  13.034 -0.6361  0.3609 -0.3298
15827TIP3    H168896   4.876   6.035  13.042  0.4675  0.3776  0.3243
15827TIP3    H268897   4.873   5.908  13.125  2.2228  0.0118 -0.1338
15828TIP3   OH268898   4.218   4.702  12.820 -0.2379 -0.2260  0.5712
15828TIP3    H168899   4.245   4.688  12.729 -2.0569 -1.3863  0.1592
15828TIP3    H268900   4.129   4.668  12.824 -0.6316  0.9019  2.5183
15829TIP3   OH268901   2.385   3.133   0.333  0.2803 -0.4110  0.2519
15829TIP3    H168902   2.335   3.207   0.367  0.1282  0.3130 -1.4331
15829TIP3    H268903   2.472   3.168   0.315 -0.0076 -0.3963 -1.2756
15830TIP3   OH268904   2.293   0.081   2.248  0.0449 -0.4897  0.4602
15830TIP3    H168905   2.291  -0.002   2.201  0.1058  0.5161 -1.3874
15830TIP3    H268906   2.258   0.145   2.186  0.3799  0.9488  1.6918
15831TIP3   OH268907   4.726   1.602  16.001 -0.1953 -0.0055 -0.3426
15831TIP3    H168908   4.770   1.629  16.082 -1.1437  0.0291  0.1687
15831TIP3    H268909   4.648   1.657  15.996 -1.5565 -1.7907  0.1099
15832TIP3   OH268910   5.101   5.859  15.487  0.4080  0.2808  0.6112
15832TIP3    H168911   5.116   5.791  15.423  0.4585  1.3807 -0.5857
15832TIP3    H268912   5.181   5.912  15.486  0.2363  0.5658  1.2477
15833TIP3   OH268913   1.071   5.163  12.173  0.1444  0.1287 -0.4990
15833TIP3    H168914   1.147   5.118  12.211 -0.8484 -3.6515 -2.4403
15833TIP3    H268915   1.006   5.164  12.243  0.5381 -0.6754 -0.1100
15834TIP3   OH268916   3.573   5.152  13.625 -0.8490  0.4587 -0.4083
15834TIP3    H168917   3.552   5.061  13.645  1.3139  0.1617  0.8309
15834TIP3    H268918   3.649   5.147  13.567 -1.6009  1.4914 -1.5275
15835TIP3   OH268919   1.366   0.002   4.548 -0.1181 -0.5369 -0.5663
15835TIP3    H168920   1.300  -0.053   4.507  0.6727 -0.6464 -1.7775
15835TIP3    H268921   1.331   0.023   4.634 -1.1850 -1.5441 -0.7316
15836TIP3   OH268922   4.646   1.631   3.795  0.2405  0.6414 -0.2982
15836TIP3    H168923   4.604   1.702   3.748 -1.3333 -0.1147 -0.0874
15836TIP3    H268924   4.589   1.555   3.783  1.7182 -0.5479 -0.2990
15837TIP3   OH268925   6.576   2.715   4.763  0.2510 -0.4275  0.5508
15837TIP3    H168926   6.548   2.649   4.700 -1.7772  0.9716 -0.1296
15837TIP3    H268927   6.515   2.706   4.835  0.3020  0.3338  0.6932
15838TIP3   OH268928   4.902   2.755   3.381 -0.7303 -0.2714  0.7188
15838TIP3    H168929   4.938   2.843   3.393 -1.8511  0.0833  1.7316
15838TIP3    H268930   4.807   2.768   3.379 -0.9592 -1.5331  1.8095
15839TIP3   OH268931   5.665   2.495  13.163  0.1784 -0.2032  0.3522
15839TIP3    H168932   5.569   2.493  13.155  0.0094  0.6083  1.9177
15839TIP3    H268933   5.688   2.411  13.202 -0.1816  0.5373  2.2831
15840TIP3   OH268934   2.907   0.333  16.276 -0.0891 -0.8184 -0.2172
15840TIP3    H168935   2.900   0.403  16.211 -0.6216  0.0183  0.7172
15840TIP3    H268936   3.001   0.319  16.288  0.0140 -1.1366 -1.3161
15841TIP3   OH268937   0.565   1.938   0.482  0.4155 -0.2543 -0.2472
15841TIP3    H168938   0.650   1.948   0.523  0.5231  0.8182 -0.6918
15841TIP3    H268939   0.502   1.958   0.552  0.5687  0.4012 -0.2913
15842TIP3   OH268940   5.128   4.891   3.048  0.7416  0.3515 -0.1889
15842TIP3    H168941   5.169   4.966   3.004  1.6349  0.4813  0.8358
15842TIP3    H268942   5.196   4.824   3.048 -0.0634 -0.5046 -1.1285
15843TIP3   OH268943   1.190   1.433   0.924 -0.8692 -0.0903  0.3427
15843TIP3    H168944   1.153   1.467   0.843 -0.1035 -1.0883 -0.4587
15843TIP3    H268945   1.283   1.456   0.920 -1.2042  1.7995  2.0081
15844TIP3   OH268946   5.287   5.624  16.376 -0.5173 -0.4688 -0.9225
15844TIP3    H168947   5.212   5.668  16.415  0.5348 -1.3003  2.3813
15844TIP3    H268948   5.346   5.695  16.351 -0.7141  0.1316  0.2330
15845TIP3   OH268949   6.198   0.243   0.005 -0.2646  0.3663 -0.3112
15845TIP3    H168950   6.170   0.303  -0.064  0.7413  0.6874 -0.4541
15845TIP3    H268951   6.293   0.253   0.009 -0.1543 -0.6891  0.1615
15846TIP3   OH268952   6.283   4.872  13.822 -0.2441  0.4255  0.2044
15846TIP3    H168953   6.319   4.937  13.762 -0.9140  1.4008  0.8321
15846TIP3    H268954   6.253   4.801  13.765  0.0562  0.8771 -0.5351
15847TIP3   OH268955   5.509   0.126  14.160  0.2581  0.3560  0.4870
15847TIP3    H168956   5.502   0.221  14.147  1.5724  0.2703 -1.3308
15847TIP3    H268957   5.603   0.108  14.149 -0.1996 -1.3731 -1.0750
15848TIP3   OH268958   6.770   4.318   3.157 -0.2007 -0.4973 -0.4030
15848TIP3    H168959   6.842   4.324   3.221  0.7422  1.1224 -1.5433
15848TIP3    H268960   6.800   4.252   3.095  0.5160  0.4382 -1.0820
15849TIP3   OH268961   3.116   6.766   1.033 -0.4970 -0.3657  0.2312
15849TIP3    H168962   3.036   6.817   1.044 -0.0931  0.0122  1.5581
15849TIP3    H268963   3.161   6.808   0.959 -1.0073  0.1076  0.1865
15850TIP3   OH268964   3.051   3.046  13.739 -0.3510 -0.6524  0.2250
15850TIP3    H168965   3.007   2.967  13.771 -1.0344 -1.2054 -1.9693
15850TIP3    H268966   3.023   3.055  13.648  0.5402  1.5509  0.1015
15851TIP3   OH268967   5.979   3.569  16.154  0.0535  0.2081  0.2791
15851TIP3    H168968   6.068   3.544  16.180 -0.2486  1.3104  2.6463
15851TIP3    H268969   5.924   3.496  16.182  0.0259  0.2950  0.4575
15852TIP3   OH268970   4.524   6.377  13.440 -0.4664 -0.0047 -0.7877
15852TIP3    H168971   4.452   6.431  13.472 -0.6476 -0.2775 -0.7370
15852TIP3    H268972   4.495   6.345  13.355 -1.3292 -1.8747  0.1455
15853TIP3   OH268973   3.421   2.099   1.969 -0.0921  0.1975 -0.3117
15853TIP3    H168974   3.418   2.130   2.060 -0.4931 -0.1959 -0.1854
15853TIP3    H268975   3.472   2.018   1.973  2.7984  1.8614 -0.9606
15854TIP3   OH268976   3.044   6.705  14.524  0.0945  0.2947 -0.2588
15854TIP3    H168977   2.995   6.628  14.495  0.8066 -0.3495  0.2190
15854TIP3    H268978   3.004   6.730  14.607  0.6933 -0.3486  0.2275
15855TIP3   OH268979   0.316   3.754   6.180 -0.2555  0.2314 -0.0720
15855TIP3    H168980   0.271   3.835   6.205 -0.6102  1.0326 -2.8994
15855TIP3    H268981   0.246   3.693   6.160 -0.0273 -0.0047 -0.1509
15856TIP3   OH268982   1.393   2.581   3.824 -0.1926  0.3081 -0.2043
15856TIP3    H168983   1.401   2.604   3.731  2.8921  0.7235  0.0595
15856TIP3    H268984   1.392   2.485   3.824  1.8389  0.2411 -0.6414
15857TIP3   OH268985   1.025   3.793   0.565 -0.3199 -0.1046  0.0019
15857TIP3    H168986   1.072   3.873   0.541  0.6037 -0.7909 -0.5478
15857TIP3    H268987   1.086   3.745   0.621 -0.2689 -1.0857 -0.8653
15858TIP3   OH268988   0.474   0.036   2.807 -0.4928  0.2221  0.1270
15858TIP3    H168989   0.491   0.061   2.898 -3.1210 -0.8333  1.0213
15858TIP3    H268990   0.561   0.023   2.769  0.7146  1.7686  2.1518
15859TIP3   OH268991   4.491   1.314  11.563 -0.0382  0.2930 -0.4444
15859TIP3    H168992   4.411   1.294  11.514 -0.9557  1.5224  0.4791
15859TIP3    H268993   4.470   1.393  11.611  0.8721 -0.7537  1.8117
15860TIP3   OH268994   1.606   4.516  15.881 -0.5671 -0.6559 -0.4699
15860TIP3    H168995   1.636   4.426  15.896 -0.5419 -0.8104 -1.3752
15860TIP3    H268996   1.682   4.560  15.843  0.1369  0.3626  1.9055
15861TIP3   OH268997   4.446   0.861  15.922  0.1583  0.0850 -0.5078
15861TIP3    H168998   4.431   0.904  15.838 -1.2572  1.3198  0.3134
15861TIP3    H268999   4.471   0.933  15.981 -1.5072 -0.2893  0.7257
15862TIP3   OH269000   4.005   0.225  12.213 -0.3736  0.3069 -0.0585
15862TIP3    H169001   4.089   0.267  12.195 -0.9067  1.5445  0.1992
15862TIP3    H269002   3.964   0.216  12.127 -0.0989 -0.0383 -0.1550
15863TIP3   OH269003   3.108   1.851  11.446  0.2684 -1.0212 -0.6016
15863TIP3    H169004   3.186   1.901  11.469 -0.4914 -0.2934  0.4859
15863TIP3    H269005   3.139   1.785  11.384  1.9993 -1.6664  0.8849
15864TIP3   OH269006   6.332   4.464   1.504  0.3360 -0.3446 -0.2138
15864TIP3    H169007   6.378   4.432   1.426  0.7159  0.2072 -0.2208
15864TIP3    H269008   6.239   4.452   1.484  0.4692 -1.4041 -0.2303
15865TIP3   OH269009   3.202   5.605   1.586  0.1134 -0.3833 -0.5149
15865TIP3    H169010   3.276   5.550   1.560  0.5337 -0.2495  0.3714
15865TIP3    H269011   3.163   5.634   1.503  0.3706 -1.3589 -0.9842
15866TIP3   OH269012   2.795   0.387  11.513  0.0810 -0.5973  0.2740
15866TIP3    H169013   2.741   0.385  11.592  0.4684 -0.7843  0.5378
15866TIP3    H269014   2.732   0.380  11.441 -0.2871 -0.2257  0.5597
15867TIP3   OH269015   0.206   4.457  15.893 -0.2465 -0.2137 -0.4116
15867TIP3    H169016   0.186   4.410  15.974 -1.4612 -0.4081 -0.7951
15867TIP3    H269017   0.272   4.522  15.918 -0.3666 -0.4877  0.6599
15868TIP3   OH269018   2.377   5.210   0.820 -0.6097  0.5101  0.3136
15868TIP3    H169019   2.467   5.177   0.823 -1.7244 -2.9229  0.3112
15868TIP3    H269020   2.386   5.302   0.797  2.8218 -0.1697 -1.7656
15869TIP3   OH269021   3.528   0.011  16.480  0.6541 -0.1307 -0.5142
15869TIP3    H169022   3.529   0.105  16.501 -0.1109 -0.2400  0.0724
15869TIP3    H269023   3.460   0.003  16.412  1.0665 -0.1985 -0.9258
15870TIP3   OH269024   2.190   4.462  12.121  0.2005 -0.3112  0.1909
15870TIP3    H169025   2.220   4.427  12.205  1.0623  1.0420  0.4940
15870TIP3    H269026   2.186   4.387  12.063 -1.2447 -1.4318  1.6460
15871TIP3   OH269027   3.230   5.348  16.769 -0.2991  0.1403  0.1232
15871TIP3    H169028   3.278   5.266  16.778 -1.1932 -0.2142  2.5556
15871TIP3    H269029   3.266   5.404  16.838 -0.8435  1.1961 -0.4318
15872TIP3   OH269030   3.779   3.508  16.666 -0.3422  0.1719 -0.3958
15872TIP3    H169031   3.704   3.487  16.610 -0.8345 -0.3624  0.4232
15872TIP3    H269032   3.855   3.498  16.610 -0.8068 -0.6131 -0.9044
15873TIP3   OH269033   2.512   4.784   1.330  0.3104  0.2431 -0.2386
15873TIP3    H169034   2.569   4.819   1.261 -0.1571 -2.0045 -1.8842
15873TIP3    H269035   2.511   4.690   1.314  0.4988 -0.4576  3.1613
15874TIP3   OH269036   3.273   0.336  13.746 -0.6962  1.1635 -0.1835
15874TIP3    H169037   3.359   0.308  13.714 -0.7646 -1.1833  1.4772
15874TIP3    H269038   3.287   0.425  13.777  0.8861  1.1884 -0.8555
15875TIP3   OH269039   1.910   2.763   3.685  0.6489  0.0317  0.3713
15875TIP3    H169040   1.931   2.856   3.689  0.6256 -0.0023  1.9705
15875TIP3    H269041   1.952   2.732   3.604  1.8378  1.1453  0.5305
15876TIP3   OH269042   5.244   3.831   1.664 -0.1772 -0.1005 -0.4099
15876TIP3    H169043   5.288   3.843   1.580 -2.4248  0.0648 -1.6331
15876TIP3    H269044   5.307   3.782   1.717  1.9920  1.3031 -1.5389
15877TIP3   OH269045   5.592   0.513  12.503 -0.1385 -0.2356  0.1944
15877TIP3    H169046   5.509   0.507  12.456 -0.8937  0.1020  1.4483
15877TIP3    H269047   5.628   0.424  12.500 -0.0430 -0.1840 -1.1791
15878TIP3   OH269048   0.820   1.362  14.398 -0.0052 -0.4731  0.1353
15878TIP3    H169049   0.863   1.318  14.471  0.9851 -0.1508 -0.2339
15878TIP3    H269050   0.892   1.393  14.343 -0.7339 -0.5483 -0.8802
15879TIP3   OH269051   4.215   0.350  12.083  0.0935  0.3253 -0.6510
15879TIP3    H169052   4.264   0.368  12.164 -0.3948  1.4227 -0.5753
15879TIP3    H269053   4.228   0.429  12.030 -1.9245  0.8305 -0.4597
15880TIP3   OH269054   0.030   5.012   5.268 -0.4354  0.0900  1.3423
15880TIP3    H169055   0.041   4.924   5.232 -2.7732  0.4546 -0.5279
15880TIP3    H269056   0.112   5.029   5.316 -0.9897 -4.1395  4.3308
15881TIP3   OH269057   2.575   1.392  15.016  0.4549  0.3198 -0.6143
15881TIP3    H169058   2.499   1.361  15.066  0.9876  1.1162  0.7510
15881TIP3    H269059   2.547   1.387  14.925 -0.4977 -1.3529 -0.2791
15882TIP3   OH269060   4.151   2.831  14.044  0.4326 -0.1599  0.0074
15882TIP3    H169061   4.115   2.917  14.023  1.1522  0.1529  0.0374
15882TIP3    H269062   4.148   2.783  13.961  0.0492 -0.1049 -0.0128
15883TIP3   OH269063   3.579   0.532   5.055  0.2049 -0.3971 -0.3365
15883TIP3    H169064   3.489   0.554   5.030 -0.9430 -2.9842  1.1145
15883TIP3    H269065   3.591   0.571   5.141  0.7733  0.5357 -0.8186
15884TIP3   OH269066   5.924   0.582  15.916 -0.2050  0.5596 -0.5437
15884TIP3    H169067   5.892   0.670  15.900  0.1023  0.8252  0.2837
15884TIP3    H269068   6.015   0.583  15.884  0.8190  1.4400  2.1428
15885TIP3   OH269069   6.292   4.952   6.140 -0.2470 -0.3601  0.5665
15885TIP3    H169070   6.261   4.959   6.049  0.7075  0.3209  0.2787
15885TIP3    H269071   6.211   4.945   6.192 -0.9438  1.6610 -0.1403
15886TIP3   OH269072   1.341   3.969  12.939  0.1385 -0.3306 -0.1503
15886TIP3    H169073   1.365   3.886  12.982 -0.0471 -0.6571 -0.6637
15886TIP3    H269074   1.251   3.985  12.967 -0.4141 -1.1773 -1.3535
15887TIP3   OH269075   1.203   1.872  14.830  0.3124  0.0531  0.4114
15887TIP3    H169076   1.172   1.962  14.838 -2.3963 -0.8092  0.5466
15887TIP3    H269077   1.229   1.864  14.738 -0.4454  0.6881  0.1325
15888TIP3   OH269078   5.612   2.426   0.407 -0.1120 -0.6787 -0.2148
15888TIP3    H169079   5.561   2.383   0.476 -0.4767 -1.9105 -1.2126
15888TIP3    H269080   5.702   2.399   0.424 -0.2823 -1.5194 -0.5666
15889TIP3   OH269081   4.927   4.243   5.682 -0.3594  0.4634  0.7406
15889TIP3    H169082   4.996   4.303   5.710  1.5360 -0.5273 -1.5344
15889TIP3    H269083   4.870   4.296   5.627  0.2255  0.6480  0.3007
15890TIP3   OH269084   3.321   2.536  16.641 -0.1293 -0.1631  0.4141
15890TIP3    H169085   3.372   2.585  16.706  1.5927 -0.7636 -0.4508
15890TIP3    H269086   3.245   2.592  16.624  1.7378  2.2601 -0.5265
15891TIP3   OH269087   0.525   5.234   4.070  0.5206 -0.5272 -0.0550
15891TIP3    H169088   0.434   5.220   4.045  0.3855 -2.2275  1.2420
15891TIP3    H269089   0.529   5.328   4.092 -1.1230 -0.5746  0.6233
15892TIP3   OH269090   4.305   6.328   3.549 -0.1774 -0.1852 -0.8304
15892TIP3    H169091   4.343   6.366   3.470  0.5485 -1.7304 -1.2649
15892TIP3    H269092   4.354   6.368   3.621 -1.9866  2.5418 -0.9892
15893TIP3   OH269093   1.325   0.523  13.975  0.0508 -0.1378 -0.1403
15893TIP3    H169094   1.385   0.596  13.958 -0.7249  1.0873  1.9190
15893TIP3    H269095   1.265   0.557  14.042 -2.5984 -1.4706 -1.6490
15894TIP3   OH269096   1.264   1.897  17.122 -0.2584 -0.5184  0.0052
15894TIP3    H169097   1.350   1.908  17.164 -0.0689 -1.7837 -0.0085
15894TIP3    H269098   1.217   1.978  17.143  0.1052 -0.7590  1.9947
15895TIP3   OH269099   0.339   6.681  11.898 -0.6246  0.6077  0.4059
15895TIP3    H169100   0.427   6.688  11.861  0.2063 -1.2619  1.8446
15895TIP3    H269101   0.286   6.642  11.829  0.5261 -1.3756  0.5580
15896TIP3   OH269102   0.371   6.599   3.783  0.0628 -0.3376 -0.5076
15896TIP3    H169103   0.289   6.549   3.784 -0.3683  0.3125 -1.5883
15896TIP3    H269104   0.364   6.654   3.705  2.0159 -1.0721 -1.2622
15897TIP3   OH269105   3.558   0.680  14.461 -0.2661  0.3890 -0.3006
15897TIP3    H169106   3.517   0.612  14.514 -0.0199  0.7988  0.4257
15897TIP3    H269107   3.532   0.762  14.502  0.4733  0.6862 -0.4132
15898TIP3   OH269108   5.605   5.589   3.369 -0.3511 -0.6994 -0.4998
15898TIP3    H169109   5.539   5.626   3.310 -0.2317 -0.0167 -0.2095
15898TIP3    H269110   5.629   5.661   3.427  0.5452 -0.9865 -0.4982
15899TIP3   OH269111   5.630   5.451  15.198  0.6525  0.8641  0.0831
15899TIP3    H169112   5.588   5.536  15.210 -0.1076  0.6518 -0.8491
15899TIP3    H269113   5.644   5.417  15.286  0.5374  1.7529  0.4476
15900TIP3   OH269114   5.778   5.109   0.169 -0.2857 -0.3020 -0.3385
15900TIP3    H169115   5.816   5.061   0.095  0.2326 -0.4555  0.0256
15900TIP3    H269116   5.683   5.103   0.154 -0.1956 -0.5610 -0.8470
15901TIP3   OH269117   0.810   2.649   0.162 -0.0959  0.3450 -0.0882
15901TIP3    H169118   0.804   2.736   0.122 -1.3555 -0.0856 -0.9118
15901TIP3    H269119   0.807   2.588   0.088 -1.3697 -0.4471  0.5609
15902TIP3   OH269120   4.054   0.835   4.084  0.0123 -0.1060 -0.7654
15902TIP3    H169121   4.108   0.914   4.092 -1.4649  0.8946 -0.2543
15902TIP3    H269122   4.070   0.805   3.995 -0.2390  1.4231 -1.3560
15903TIP3   OH269123   1.610   2.522   3.002  0.9758 -0.1849  0.1426
15903TIP3    H169124   1.613   2.451   3.066  0.6736 -1.4451 -1.1990
15903TIP3    H269125   1.701   2.532   2.974  1.0957  0.3132  0.6847
15904TIP3   OH269126   0.787   0.279   1.786 -0.0024  0.3610  0.0591
15904TIP3    H169127   0.744   0.284   1.700 -2.9551  0.9526  1.4495
15904TIP3    H269128   0.773   0.365   1.825 -1.5881 -0.8363  2.3571
15905TIP3   OH269129   3.138   5.019   2.388 -0.2879 -0.1421  0.2616
15905TIP3    H169130   3.153   4.934   2.348 -1.8328  0.2333 -1.2416
15905TIP3    H269131   3.092   4.999   2.470 -0.0065 -0.7715  0.2713
15906TIP3   OH269132   2.283   3.424   5.477  0.6900 -0.2852  0.3991
15906TIP3    H169133   2.277   3.500   5.535  0.0275  0.7343 -0.9592
15906TIP3    H269134   2.329   3.457   5.399 -0.5052 -0.9908 -0.6369
15907TIP3   OH269135   1.310   1.034   0.805 -0.1534  0.2858 -0.0321
15907TIP3    H169136   1.296   0.979   0.882 -2.5870  0.9498  0.0997
15907TIP3    H269137   1.232   1.021   0.752  0.1641  2.0126 -1.0032
15908TIP3   OH269138   1.165   2.683   2.586  0.1310 -0.3824  0.0285
15908TIP3    H169139   1.190   2.639   2.505  0.5260 -0.1413  0.0176
15908TIP3    H269140   1.083   2.642   2.611 -0.7064  0.4774 -1.2115
15909TIP3   OH269141   4.842   6.030  12.057  0.0442 -0.0197 -0.3282
15909TIP3    H169142   4.889   5.947  12.063  2.0636  1.0179 -0.8195
15909TIP3    H269143   4.758   6.014  12.100  1.1648 -1.7331  1.3496
15910TIP3   OH269144   0.127   1.637   5.608  0.2871 -0.2468 -0.3888
15910TIP3    H169145   0.089   1.556   5.641  3.3764 -2.3141 -1.4014
15910TIP3    H269146   0.107   1.636   5.514  2.9220 -1.6466 -1.0510
15911TIP3   OH269147   3.731   5.257   3.926 -0.7588 -0.4555 -0.1708
15911TIP3    H169148   3.683   5.338   3.943 -1.0821 -1.0765  2.1950
15911TIP3    H269149   3.777   5.274   3.844 -1.7031  1.6968 -0.3316
15912TIP3   OH269150   2.767   4.702  15.648  0.5426 -0.1163  0.1378
15912TIP3    H169151   2.852   4.682  15.608  1.5628  0.0537  2.0883
15912TIP3    H269152   2.744   4.788  15.615  1.4343  0.0866  0.0189
15913TIP3   OH269153   2.662   0.131  13.349 -0.0940 -0.3818  0.1134
15913TIP3    H169154   2.720   0.206  13.362  0.2937 -0.6896  0.1801
15913TIP3    H269155   2.705   0.079  13.281 -0.6429 -0.2641 -0.3336
15914TIP3   OH269156   2.491   0.134   4.937 -0.0585  0.2693  0.0417
15914TIP3    H169157   2.428   0.170   4.876  0.2853 -1.1151 -1.2022
15914TIP3    H269158   2.458   0.046   4.958  0.0027  0.5800  1.6156
15915TIP3   OH269159   2.754   2.344  11.554 -0.6842 -0.2628  0.0901
15915TIP3    H169160   2.833   2.356  11.607 -3.0618 -0.4421  4.0795
15915TIP3    H269161   2.741   2.249  11.552 -0.7887 -0.2366 -0.5654
15916TIP3   OH269162   0.639   0.268  12.681 -0.4663 -0.7565 -0.4772
15916TIP3    H169163   0.733   0.272  12.664 -0.5504  1.2742 -0.7451
15916TIP3    H269164   0.616   0.357  12.709 -1.8691 -1.8170  2.0877
15917TIP3   OH269165   0.931   1.888  11.511 -0.2610  0.0698 -0.3244
15917TIP3    H169166   0.989   1.913  11.438  0.6339 -0.2210  0.2702
15917TIP3    H269167   0.952   1.796  11.527 -0.7185  0.0311  0.0653
15918TIP3   OH269168   0.558   1.658   2.837  0.1417 -0.3764 -0.1487
15918TIP3    H169169   0.476   1.660   2.787  0.2735 -1.9278 -0.4873
15918TIP3    H269170   0.595   1.746   2.826 -1.5309  0.4089  0.1405
15919TIP3   OH269171   1.854   0.518  15.637 -0.5389  0.2396 -0.9563
15919TIP3    H169172   1.937   0.485  15.672 -1.5185 -1.0915  0.2466
15919TIP3    H269173   1.838   0.465  15.559 -0.1194  0.7360 -1.3926
15920TIP3   OH269174   3.451   0.671   1.211  0.2915  0.1101 -0.0198
15920TIP3    H169175   3.378   0.617   1.242 -0.0511 -1.1153 -2.6733
15920TIP3    H269176   3.528   0.636   1.255 -0.0435 -2.1010 -1.0678
15921TIP3   OH269177   0.615   2.740  15.579 -0.0847  0.0368  0.2559
15921TIP3    H169178   0.644   2.665  15.630  3.1284  0.4051 -0.7563
15921TIP3    H269179   0.653   2.816  15.624 -0.4443  0.7133 -0.5493
15922TIP3   OH269180   2.939   2.188   3.694  0.3639 -0.2394 -0.4222
15922TIP3    H169181   2.879   2.261   3.679  1.1061 -0.1173 -3.3149
15922TIP3    H269182   3.023   2.229   3.714  0.1988 -0.3694  0.5812
15923TIP3   OH269183   0.795   0.060   3.416  0.8739  0.6040  0.1481
15923TIP3    H169184   0.781   0.119   3.342  0.5951  1.7762  1.1203
15923TIP3    H269185   0.708   0.024   3.436  0.8005  0.9393  0.4391
15924TIP3   OH269186   3.637   1.710   2.715  0.2038  0.4882 -1.1948
15924TIP3    H169187   3.712   1.771   2.720  0.2705  0.5338 -2.4992
15924TIP3    H269188   3.627   1.679   2.805  1.8111  0.4644 -0.9797
15925TIP3   OH269189   6.510   6.718  16.041 -0.0759  0.4473 -0.3104
15925TIP3    H169190   6.541   6.772  15.969  1.6499 -0.8475 -0.6090
15925TIP3    H269191   6.422   6.690  16.014 -0.1879  1.4387 -1.0468
15926TIP3   OH269192   1.397   5.561  15.833 -0.0247  0.6868  0.0450
15926TIP3    H169193   1.484   5.564  15.872  0.1405 -0.0018 -0.2500
15926TIP3    H269194   1.413   5.566  15.739 -0.2969  0.5127 -0.0127
15927TIP3   OH269195   4.501   2.309  12.978  0.5933 -0.3531 -0.5977
15927TIP3    H169196   4.461   2.231  13.018  1.2010 -1.0227 -1.2628
15927TIP3    H269197   4.562   2.274  12.913 -0.3514  0.7143 -2.1051
15928TIP3   OH269198   4.427   2.010   1.221 -0.0947  0.2804  0.4577
15928TIP3    H169199   4.489   2.077   1.251  1.7102 -0.9734 -0.3100
15928TIP3    H269200   4.414   2.030   1.128  0.9531 -0.7566  0.0642
15929TIP3   OH269201   1.845   1.079   6.266  0.0861 -0.0542  0.7281
15929TIP3    H169202   1.927   1.091   6.219 -0.5776 -0.0114 -0.4620
15929TIP3    H269203   1.840   1.154   6.326  2.3291 -1.6078  3.0607
15930TIP3   OH269204   5.937   3.740   2.722  0.0869 -0.4743  0.3498
15930TIP3    H169205   5.932   3.833   2.702 -0.4149 -0.2094  1.6258
15930TIP3    H269206   5.961   3.735   2.814 -0.2508 -1.5949  0.4051
15931TIP3   OH269207   1.340   1.505  11.674  0.0031  0.2123 -0.1796
15931TIP3    H169208   1.369   1.547  11.594  0.6258 -0.8481 -0.5377
15931TIP3    H269209   1.320   1.577  11.734  0.4779  1.0029 -0.9523
15932TIP3   OH269210   6.423   5.615   4.972  0.1515 -0.0626 -0.0388
15932TIP3    H169211   6.426   5.694   5.026 -0.5213  0.7937 -1.2284
15932TIP3    H269212   6.424   5.543   5.036 -2.4166  0.9166  1.2351
15933TIP3   OH269213   4.188   5.583  15.228 -0.7283  0.0536  0.3035
15933TIP3    H169214   4.120   5.541  15.280 -1.5837  0.4961 -0.4251
15933TIP3    H269215   4.182   5.676  15.249 -0.6602  0.1547 -0.1009
15934TIP3   OH269216   1.725   4.531  14.412  0.0033 -0.5040  0.2964
15934TIP3    H169217   1.649   4.473  14.405  0.6299 -1.2055 -0.9952
15934TIP3    H269218   1.722   4.584  14.332  1.0596 -0.7824  0.0576
15935TIP3   OH269219   3.538   1.932   4.848  0.1485 -0.7167  1.0304
15935TIP3    H169220   3.593   1.879   4.906 -0.4334 -0.8140  1.4935
15935TIP3    H269221   3.563   1.904   4.759  2.0958  0.4379  1.1421
15936TIP3   OH269222   1.208   5.729   3.465  0.0609 -0.1262 -0.2037
15936TIP3    H169223   1.234   5.806   3.516  1.7059 -0.0383 -1.1006
15936TIP3    H269224   1.203   5.761   3.375  2.1681 -1.3287 -0.8089
15937TIP3   OH269225   0.062   1.684  12.384 -0.6408 -0.5286 -0.1870
15937TIP3    H169226   0.008   1.614  12.420 -0.4969 -1.0732 -0.9912
15937TIP3    H269227   0.016   1.711  12.304 -0.8026  0.4396  0.2229
15938TIP3   OH269228   4.640   1.928  12.972  0.4713  0.3152 -0.4375
15938TIP3    H169229   4.675   2.010  12.937 -0.0789  1.4066  1.4409
15938TIP3    H269230   4.699   1.861  12.937  2.5688  1.7616  0.0755
15939TIP3   OH269231   3.777   3.084   0.477  0.1229  0.1622 -0.1745
15939TIP3    H169232   3.833   3.012   0.505 -1.0039 -0.6793 -0.0242
15939TIP3    H269233   3.717   3.098   0.551 -0.3749  0.5064 -0.6361
15940TIP3   OH269234   2.457   4.007  10.717 -0.1652 -0.4211 -0.0293
15940TIP3    H169235   2.525   4.058  10.761  1.3994 -2.1799 -0.2929
15940TIP3    H269236   2.505   3.951  10.656 -2.1399  0.8016 -2.9344
15941TIP3   OH269237   2.064   6.016  16.896  0.1786 -0.0815  0.0864
15941TIP3    H169238   2.103   5.929  16.884  0.7266 -0.0208  1.3051
15941TIP3    H269239   2.101   6.048  16.978 -0.3040  1.1586 -0.1538
15942TIP3   OH269240   6.123   0.691  13.130  0.0120  0.0732 -0.1910
15942TIP3    H169241   6.193   0.658  13.186 -0.1214  0.6662  0.3314
15942TIP3    H269242   6.135   0.786  13.129 -0.9615  0.2085  0.1542
15943TIP3   OH269243   3.496   3.451  10.521  0.3949 -0.1109  0.0449
15943TIP3    H169244   3.554   3.508  10.471  0.2966 -1.4685 -1.6946
15943TIP3    H269245   3.424   3.507  10.548  1.8816  1.3267  1.2407
15944TIP3   OH269246   0.183   6.129   1.739 -0.4044  0.4105  0.6329
15944TIP3    H169247   0.090   6.142   1.757 -0.3562 -0.7738  1.9273
15944TIP3    H269248   0.186   6.095   1.650 -1.2949 -0.3123  0.8638
15945TIP3   OH269249   3.585   5.697   2.757 -0.1506  0.3305 -0.7243
15945TIP3    H169250   3.493   5.693   2.783  0.2830 -0.0751  0.8757
15945TIP3    H269251   3.583   5.692   2.661 -1.7862  0.3923 -0.7273
15946TIP3   OH269252   6.467   0.002   6.384 -0.3640 -0.0159 -0.1189
15946TIP3    H169253   6.385   0.047   6.402  0.2465  0.5175  1.5564
15946TIP3    H269254   6.441  -0.088   6.365 -1.3046 -0.1441  1.5324
15947TIP3   OH269255   3.534   6.094   3.850 -0.5193 -0.7926 -0.5390
15947TIP3    H169256   3.452   6.055   3.882 -0.3893 -0.5825  0.0585
15947TIP3    H269257   3.584   6.020   3.817  0.6436 -1.5275  2.5336
15948TIP3   OH269258   0.493   5.580   5.043  0.2830 -0.0213 -0.2658
15948TIP3    H169259   0.512   5.565   5.136  0.3940  1.7234  0.0412
15948TIP3    H269260   0.571   5.625   5.010 -0.5444  1.1369 -0.6992
15949TIP3   OH269261   1.669   6.246  11.533 -0.1765 -0.1123  0.3180
15949TIP3    H169262   1.574   6.241  11.547 -0.4115  1.7387 -0.2644
15949TIP3    H269263   1.686   6.339  11.517  1.5356 -0.5847 -1.0016
15950TIP3   OH269264   5.255   2.959  13.776 -0.2117  0.2996  0.2490
15950TIP3    H169265   5.346   2.932  13.766  0.8763  3.1065  1.4837
15950TIP3    H269266   5.214   2.889  13.827  1.0861 -1.2179 -0.7048
15951TIP3   OH269267   4.407   0.990  16.613 -0.0965  0.0040 -0.1208
15951TIP3    H169268   4.458   0.929  16.667  1.9311  0.4331 -1.4409
15951TIP3    H269269   4.354   0.935  16.557  0.3587 -0.5019 -0.0563
15952TIP3   OH269270   2.231   5.345  15.788 -0.0389  0.1615  0.2163
15952TIP3    H169271   2.142   5.368  15.815 -1.0918 -0.2553 -2.5409
15952TIP3    H269272   2.277   5.430  15.783 -0.7786  0.5640  0.1219
15953TIP3   OH269273   1.053   1.578  11.449 -0.2340 -0.1076 -0.2367
15953TIP3    H169274   1.043   1.535  11.534 -1.8567  1.7766  0.5893
15953TIP3    H269275   1.108   1.517  11.399 -1.2984 -2.4865  1.2725
15954TIP3   OH269276   4.416   2.399   0.883 -0.4276 -0.5208  0.4561
15954TIP3    H169277   4.368   2.429   0.960 -0.7796  0.2240 -0.0386
15954TIP3    H269278   4.349   2.362   0.825 -0.2537 -0.5354  0.2626
15955TIP3   OH269279   0.628   2.231   5.014  0.2944 -0.1621 -0.1528
15955TIP3    H169280   0.683   2.257   5.088  1.2115 -1.9751 -0.1402
15955TIP3    H269281   0.684   2.245   4.937 -0.0040  0.0206 -0.3360
15956TIP3   OH269282   6.774   5.160   6.303  0.1461  0.0987  0.0886
15956TIP3    H169283   6.735   5.212   6.374  1.8767  2.2270 -0.4177
15956TIP3    H269284   6.709   5.164   6.233 -0.3084  0.5015  0.5230
15957TIP3   OH269285   3.261   2.140   5.423  0.0054 -0.3215 -0.1984
15957TIP3    H169286   3.177   2.184   5.412 -0.2322 -0.0399  2.2874
15957TIP3    H269287   3.317   2.178   5.355 -1.1214  1.3903 -0.2223
15958TIP3   OH269288   3.079   6.133   6.450  0.0351 -1.2059  0.0185
15958TIP3    H169289   3.116   6.156   6.535 -0.8276 -0.8153  0.2947
15958TIP3    H269290   3.149   6.153   6.387 -0.4220  1.6236  0.2998
15959TIP3   OH269291   2.482   6.616   2.345 -0.2777  0.1833  0.0513
15959TIP3    H169292   2.565   6.579   2.313  0.6328  0.5698  1.8390
15959TIP3    H269293   2.418   6.546   2.331  0.2030  0.0551 -1.8254
15960TIP3   OH269294   5.127   4.076  11.974  0.4995 -0.0278  0.2910
15960TIP3    H169295   5.114   4.071  11.879  0.1145 -2.5189  0.3990
15960TIP3    H269296   5.171   4.160  11.988 -2.1556  1.8429 -1.7096
15961TIP3   OH269297   0.394   3.728  13.991 -0.4726 -0.0978  0.2313
15961TIP3    H169298   0.419   3.729  14.083 -2.8385  1.6905  0.9566
15961TIP3    H269299   0.340   3.650  13.981  0.4729 -0.7491  0.1232
15962TIP3   OH269300   5.380   5.908   2.717 -0.3112  0.2558 -0.5838
15962TIP3    H169301   5.366   6.002   2.702  1.0150  0.5630 -0.0188
15962TIP3    H269302   5.454   5.904   2.777 -0.0578 -1.1838 -0.9639
15963TIP3   OH269303   5.991   0.186  13.565  0.0587  0.8862 -0.1224
15963TIP3    H169304   5.968   0.159  13.654 -0.8898 -1.8360 -1.0546
15963TIP3    H269305   6.059   0.124  13.538 -0.1459  1.2214 -1.4935
15964TIP3   OH269306   3.566   4.027  13.607 -0.2179 -0.3203 -0.0404
15964TIP3    H169307   3.532   4.108  13.570 -0.9250 -0.1340  0.9725
15964TIP3    H269308   3.576   4.046  13.700  1.4109 -0.8081 -0.0857
15965TIP3   OH269309   0.417   1.281  16.112  0.1144 -0.0067  0.3508
15965TIP3    H169310   0.491   1.294  16.052  0.1653  0.5096  0.5221
15965TIP3    H269311   0.447   1.315  16.196 -0.4427  0.5512  0.3323
15966TIP3   OH269312   5.100   4.550   3.778 -0.1056 -0.4622 -0.1271
15966TIP3    H169313   5.078   4.558   3.685  1.3328  0.4530 -0.4174
15966TIP3    H269314   5.115   4.456   3.791  0.4014 -0.5179 -1.0063
15967TIP3   OH269315   5.296   4.573  12.812  0.0612 -0.9808 -0.1020
15967TIP3    H169316   5.335   4.546  12.729  0.2878  0.1868 -0.3937
15967TIP3    H269317   5.348   4.528  12.879  0.5351 -1.1206 -0.5575
15968TIP3   OH269318   4.077   2.638   5.996 -0.1887  0.4100 -0.7225
15968TIP3    H169319   4.088   2.605   6.085 -0.0703  0.0126 -0.8824
15968TIP3    H269320   3.996   2.688   5.999  0.2880  1.1766 -0.1689
15969TIP3   OH269321   2.941   3.273   1.592  0.1783 -0.4570  0.3586
15969TIP3    H169322   2.924   3.218   1.668  1.5240  1.2837  2.0000
15969TIP3    H269323   2.921   3.362   1.621  0.6405  0.2556 -1.3643
15970TIP3   OH269324   1.690   1.692   4.767 -0.5327 -0.1617  0.3113
15970TIP3    H169325   1.607   1.647   4.781  1.0669 -2.9933  1.5227
15970TIP3    H269326   1.732   1.644   4.695  0.3512  0.7624  0.1767
15971TIP3   OH269327   5.896   3.907  14.951  0.6471  0.3711 -0.4062
15971TIP3    H169328   5.919   3.971  14.883  0.7611 -0.5617 -1.2632
15971TIP3    H269329   5.829   3.852  14.911  0.5765 -0.0814  0.3141
15972TIP3   OH269330   6.058   6.381   1.880  0.4748  0.6770  0.1398
15972TIP3    H169331   6.101   6.461   1.846 -0.9968  1.1044 -0.7932
15972TIP3    H269332   6.106   6.309   1.838  0.0102  1.1540 -1.2568
15973TIP3   OH269333   3.635   3.471  12.589 -0.3872 -0.2368  0.3197
15973TIP3    H169334   3.635   3.553  12.540 -1.5209 -1.2221 -1.4154
15973TIP3    H269335   3.726   3.461  12.619  0.3718  0.3810 -1.6643
15974TIP3   OH269336   4.561   2.025  14.903 -0.5348  0.3428 -0.0850
15974TIP3    H169337   4.502   2.055  14.973 -0.7268  1.0447 -0.5338
15974TIP3    H269338   4.506   2.025  14.825  0.2405  1.7465 -0.6583
15975TIP3   OH269339   3.998   6.687  15.648 -0.1866  0.1284  0.1106
15975TIP3    H169340   3.932   6.657  15.585  0.3242 -0.4254 -0.1747
15975TIP3    H269341   4.004   6.615  15.711 -0.3693  0.4875  0.5411
15976TIP3   OH269342   0.028   1.910  16.089  0.7780 -0.1977  0.4437
15976TIP3    H169343   0.083   1.890  16.165 -0.6552  3.2694  2.6182
15976TIP3    H269344  -0.057   1.932  16.126 -0.0279  1.5490 -2.1639
15977TIP3   OH269345   3.527   2.579   4.265  0.0061 -0.2515  0.2838
15977TIP3    H169346   3.455   2.561   4.205 -1.1194 -0.5485  1.6817
15977TIP3    H269347   3.490   2.568   4.353  1.4692  0.6335  1.0711
15978TIP3   OH269348   2.627   5.846   0.643  0.0548  0.2349 -0.5986
15978TIP3    H169349   2.645   5.752   0.634 -1.7255 -0.2246  0.1580
15978TIP3    H269350   2.546   5.850   0.693 -0.0729  2.1894 -0.8807
15979TIP3   OH269351   2.498   1.429  13.197  0.3633  0.1631  0.7663
15979TIP3    H169352   2.487   1.430  13.292 -0.1095  0.6582  0.7079
15979TIP3    H269353   2.448   1.504  13.165 -0.7205 -0.8420  0.0007
15980TIP3   OH269354   3.306   3.912   4.799 -0.3836 -0.2953  0.3037
15980TIP3    H169355   3.245   3.839   4.786  0.0038 -0.7223  0.8506
15980TIP3    H269356   3.358   3.886   4.875  2.0839 -1.0126 -1.5265
15981TIP3   OH269357   6.427   0.539  16.043 -1.2960 -0.1270  0.1149
15981TIP3    H169358   6.461   0.460  16.001  1.2508  0.3598  1.0903
15981TIP3    H269359   6.394   0.509  16.128 -2.0142 -0.3699 -0.2357
15982TIP3   OH269360   6.060   4.008  14.172 -0.4196 -0.3319  0.0467
15982TIP3    H169361   6.051   4.103  14.166  0.0678 -0.2373  0.6721
15982TIP3    H269362   5.991   3.980  14.232 -1.4132 -0.5457 -1.1567
15983TIP3   OH269363   0.321   2.489  15.297  0.0661  0.3570 -0.3711
15983TIP3    H169364   0.301   2.483  15.204 -0.9702 -1.6363 -0.0696
15983TIP3    H269365   0.352   2.401  15.320 -0.6518  0.5323  1.3615
15984TIP3   OH269366   4.866   5.894  10.994  0.3770 -0.6340 -0.1801
15984TIP3    H169367   4.851   5.826  11.059  0.6152  0.7798  1.4243
15984TIP3    H269368   4.954   5.876  10.960 -1.0053 -3.4228 -2.7806
15985TIP3   OH269369   5.124   2.064   4.214 -0.4665  0.0200 -0.0597
15985TIP3    H169370   5.100   2.076   4.306 -3.2997 -0.4752 -0.6273
15985TIP3    H269371   5.206   2.014   4.217  1.7802  3.4012  2.1209
15986TIP3   OH269372   2.331   3.553   2.852  0.0584 -0.8978  0.3097
15986TIP3    H169373   2.338   3.465   2.889 -1.2193 -0.9488  0.4824
15986TIP3    H269374   2.238   3.574   2.859  0.2992  0.3389 -0.0333
15987TIP3   OH269375   2.989   6.492   5.194 -0.4078 -0.5585 -0.4216
15987TIP3    H169376   3.015   6.400   5.185 -1.4208 -0.7196 -2.3398
15987TIP3    H269377   2.894   6.489   5.201 -0.3127  0.2412  2.4463
15988TIP3   OH269378   3.178   3.673   1.869 -0.3190  0.0836 -0.2098
15988TIP3    H169379   3.180   3.728   1.948 -1.8998  0.9603 -0.7269
15988TIP3    H269380   3.243   3.712   1.811  0.9285 -0.6279  0.6639
15989TIP3   OH269381   2.738   3.396  11.361 -0.5445 -0.5870  0.5228
15989TIP3    H169382   2.791   3.387  11.440  0.0762 -1.9356 -0.0235
15989TIP3    H269383   2.774   3.472  11.316 -0.4618 -0.2224  1.1933
15990TIP3   OH269384   0.634   3.712   3.520  0.3987  0.2585 -0.9080
15990TIP3    H169385   0.631   3.717   3.616  0.1595 -0.2918 -0.8815
15990TIP3    H269386   0.603   3.797   3.490 -0.0915  0.2291 -0.5005
15991TIP3   OH269387   5.221   5.913   4.316 -0.0187 -0.4416 -0.1961
15991TIP3    H169388   5.284   5.959   4.370 -0.8455 -0.8695  1.1866
15991TIP3    H269389   5.172   5.858   4.377 -1.1591 -0.7613 -1.3369
15992TIP3   OH269390   0.349   3.175   5.217  0.5216 -0.0172 -0.5405
15992TIP3    H169391   0.305   3.206   5.296  0.6281 -1.4206  0.1162
15992TIP3    H269392   0.293   3.202   5.145 -1.0756 -1.1522  0.2252
15993TIP3   OH269393   2.409   3.054   1.970  0.5095 -0.0919  0.1338
15993TIP3    H169394   2.353   3.064   2.048  0.3505 -0.7521  0.1090
15993TIP3    H269395   2.491   3.019   2.004  1.1878  1.5180  0.2651
15994TIP3   OH269396   6.153   0.130  11.938  0.3939 -0.0829 -0.6213
15994TIP3    H169397   6.187   0.219  11.948  0.1292 -0.1073  0.7392
15994TIP3    H269398   6.090   0.137  11.867  1.2991  0.5361 -1.3828
15995TIP3   OH269399   4.536   6.715   3.303 -0.8884 -0.2271 -0.1941
15995TIP3    H169400   4.525   6.733   3.210  1.8297 -1.6765 -0.9092
15995TIP3    H269401   4.598   6.782   3.333 -2.1217  0.5483  0.7719
15996TIP3   OH269402   1.104   1.785  16.125 -0.3093 -0.1538  0.3629
15996TIP3    H169403   1.162   1.739  16.187 -0.6002 -0.5459  0.3538
15996TIP3    H269404   1.141   1.872  16.117 -0.7155  0.1809  1.7286
15997TIP3   OH269405   2.550   0.138  15.800  0.2209  0.5101  0.0096
15997TIP3    H169406   2.634   0.091  15.802  0.5789  1.0851  2.5641
15997TIP3    H269407   2.565   0.216  15.853 -1.3574  1.7318 -1.2585
15998TIP3   OH269408   2.500   0.107  12.474 -0.3288  0.3611  0.0671
15998TIP3    H169409   2.526   0.015  12.467 -2.2770 -0.1547 -1.2908
15998TIP3    H269410   2.581   0.153  12.496  0.9011 -1.5452 -0.2229
15999TIP3   OH269411   3.003   0.215  13.095  0.0728  0.3350  0.5830
15999TIP3    H169412   3.021   0.233  13.187  0.3883 -0.4568  0.6878
15999TIP3    H269413   3.063   0.271  13.047  1.7012 -1.0391  0.9104
16000TIP3   OH269414   6.299   2.350   4.393  0.0491  0.2379 -0.0122
16000TIP3    H169415   6.340   2.277   4.439  0.8820  0.0649 -0.9945
16000TIP3    H269416   6.233   2.310   4.337  1.1915  0.0907 -1.3141
16001TIP3   OH269417   5.964   1.225  15.083  0.3407 -0.0696  0.1879
16001TIP3    H169418   6.037   1.236  15.022  1.1433  1.7983  1.3781
16001TIP3    H269419   6.005   1.229  15.170 -1.2399  2.1733  0.9263
16002TIP3   OH269420   1.882   3.758  13.794 -0.0099 -0.2093  0.4905
16002TIP3    H169421   1.805   3.816  13.796  0.4101  0.3463  0.8755
16002TIP3    H269422   1.896   3.734  13.885 -0.3885 -1.2079  0.2938
16003TIP3   OH269423   2.196   3.931  11.215 -0.1444 -0.2774  0.1860
16003TIP3    H169424   2.132   3.952  11.147  0.1877  0.2005  0.0153
16003TIP3    H269425   2.261   4.001  11.209  0.0167 -0.3638  0.8332
16004TIP3   OH269426   1.120   5.487  16.500 -0.3897 -0.0838  0.0425
16004TIP3    H169427   1.064   5.557  16.533  0.8100  1.1634 -0.4705
16004TIP3    H269428   1.087   5.468  16.412 -0.2291  0.4076 -0.1258
16005TIP3   OH269429   5.983   0.910   2.935 -0.5130 -0.0059  0.0136
16005TIP3    H169430   6.033   0.900   3.017 -2.1284 -0.8326  0.9496
16005TIP3    H269431   6.046   0.886   2.867 -0.0664 -2.8758  1.2599
16006TIP3   OH269432   6.486   3.074  12.469  0.0309 -0.5502 -0.4022
16006TIP3    H169433   6.522   2.988  12.492  1.2610  0.1992  0.5617
16006TIP3    H269434   6.406   3.080  12.521  0.0414 -1.0281 -0.3222
16007TIP3   OH269435   5.082   5.848   5.519 -0.3150 -0.1681 -0.4159
16007TIP3    H169436   5.074   5.828   5.613 -2.1651 -1.1337 -0.7402
16007TIP3    H269437   4.995   5.879   5.494  0.7103  2.1492 -1.3871
16008TIP3   OH269438   2.194   3.429  16.686  0.0282 -0.2879 -0.1661
16008TIP3    H169439   2.221   3.350  16.640 -0.9004 -0.6495 -0.1065
16008TIP3    H269440   2.105   3.445  16.655 -0.2537  0.0074  0.7819
16009TIP3   OH269441   4.995   0.076   5.649  0.5742 -0.4479  0.4747
16009TIP3    H169442   4.966   0.148   5.705  0.3577 -1.0723  1.1804
16009TIP3    H269443   5.074   0.043   5.690  0.4694 -0.8498  0.3613
16010TIP3   OH269444   6.029   2.099  15.656 -0.2789  0.1003  0.5005
16010TIP3    H169445   6.048   2.146  15.737  1.0050 -0.2487  0.4211
16010TIP3    H269446   6.096   2.127  15.595  0.2948 -1.5032  0.3367
16011TIP3   OH269447   0.112   3.827  15.203  0.0403  0.0486 -0.1846
16011TIP3    H169448   0.061   3.818  15.122 -1.0801  0.0512  0.4989
16011TIP3    H269449   0.105   3.742  15.245  0.6448  0.0403 -0.0948
16012TIP3   OH269450   0.382   1.934  13.358 -0.0750 -0.4394 -0.2684
16012TIP3    H169451   0.409   1.998  13.424  1.5004 -1.8695  0.5596
16012TIP3    H269452   0.360   1.987  13.281 -0.4984  1.1748  0.9144
16013TIP3   OH269453   0.850   1.355  16.351  0.0781  0.2324 -0.0118
16013TIP3    H169454   0.845   1.324  16.442  0.7334  1.2369  0.3877
16013TIP3    H269455   0.763   1.390  16.333  0.3517  1.3446  0.7393
16014TIP3   OH269456   4.774   6.042   0.843 -0.1162 -0.5573 -0.1574
16014TIP3    H169457   4.685   6.038   0.807  0.3133 -1.9924 -1.1637
16014TIP3    H269458   4.822   6.098   0.782 -0.4866  0.8786  0.8244
16015TIP3   OH269459   3.593   1.701   4.415 -0.3256 -0.0980  0.4995
16015TIP3    H169460   3.661   1.710   4.483 -1.3494 -0.5939  1.6267
16015TIP3    H269461   3.546   1.621   4.440 -1.1151  0.0601 -0.4540
16016TIP3   OH269462   0.523   4.555   0.583  0.7544 -0.0434  0.5717
16016TIP3    H169463   0.517   4.563   0.488 -0.6465 -1.7075  0.4796
16016TIP3    H269464   0.488   4.638   0.616  1.7598  0.7686 -0.3458
16017TIP3   OH269465   0.252   5.807  11.222 -0.1434  0.5395  0.2916
16017TIP3    H169466   0.340   5.772  11.234 -0.1698  0.3791  0.0364
16017TIP3    H269467   0.195   5.743  11.266 -0.0652  1.0922  1.2076
16018TIP3   OH269468   1.872   0.932   1.906 -0.1076  0.8302  0.0351
16018TIP3    H169469   1.881   0.894   1.994 -1.5112  0.6781  0.1386
16018TIP3    H269470   1.952   0.983   1.893  0.5644  0.0509  1.0008
16019TIP3   OH269471   2.164   5.144  15.369  0.5385  0.3137  0.0848
16019TIP3    H169472   2.096   5.186  15.316 -1.5144  0.1374  2.4281
16019TIP3    H269473   2.190   5.210  15.433  0.6041 -0.4727  0.8994
16020TIP3   OH269474   4.145   4.129   1.832 -0.6319 -0.7834  0.5782
16020TIP3    H169475   4.202   4.205   1.850 -2.8773  1.0223  0.5129
16020TIP3    H269476   4.166   4.104   1.742  0.4642 -0.5654  0.7526
16021TIP3   OH269477   2.759   5.483   5.074 -0.4864 -0.1963 -0.5651
16021TIP3    H169478   2.754   5.578   5.071 -0.2087 -0.1083  1.1395
16021TIP3    H269479   2.690   5.457   5.135  0.9313 -0.8967  0.8153
16022TIP3   OH269480   3.469   4.467   5.076 -0.0092 -0.5840 -0.2550
16022TIP3    H169481   3.465   4.449   4.982  1.5570 -0.7274 -0.3258
16022TIP3    H269482   3.378   4.465   5.105 -0.8601  2.1234 -2.2628
16023TIP3   OH269483   1.792   0.474  16.833  0.4037 -0.1129 -0.1373
16023TIP3    H169484   1.775   0.454  16.926  2.1003 -2.9540 -0.3249
16023TIP3    H269485   1.886   0.464  16.824  0.5590  2.2964 -1.7727
16024TIP3   OH269486   2.259   1.075   1.503  0.4036  0.1180  0.2631
16024TIP3    H169487   2.230   0.985   1.517 -2.6744  1.1186  1.1933
16024TIP3    H269488   2.296   1.101   1.587 -3.1169  1.0458  1.7392
16025TIP3   OH269489   6.551   0.992  12.836  0.1814  0.4584 -0.4750
16025TIP3    H169490   6.642   0.969  12.815 -0.3542 -0.9766 -1.3319
16025TIP3    H269491   6.520   0.922  12.892 -0.3947  0.9722 -0.1352
16026TIP3   OH269492   2.959   6.279  11.628  0.2202 -0.1243 -0.3308
16026TIP3    H169493   3.018   6.242  11.693 -1.0365 -0.9536  0.3825
16026TIP3    H269494   2.925   6.203  11.580 -0.9991  0.2296 -0.0765
16027TIP3   OH269495   4.796   1.986   1.749 -0.1331 -0.4966 -0.0196
16027TIP3    H169496   4.871   1.969   1.805  0.5525 -1.5003 -1.1907
16027TIP3    H269497   4.832   1.987   1.660 -1.2517  0.6367 -0.4981
16028TIP3   OH269498   2.464   6.306   0.881  0.5310  0.4363  0.6945
16028TIP3    H169499   2.510   6.223   0.867 -0.5779  0.0636 -1.0935
16028TIP3    H269500   2.377   6.280   0.910  0.0558  0.9300 -0.2384
16029TIP3   OH269501   6.407   4.973   0.217  0.1497 -0.4206 -0.0096
16029TIP3    H169502   6.464   4.940   0.148  1.3892 -1.2237  1.3555
16029TIP3    H269503   6.415   5.069   0.211  0.6534 -0.4965 -0.6402
16030TIP3   OH269504   6.598   2.473  13.915 -0.3646  0.1382 -0.3436
16030TIP3    H169505   6.534   2.405  13.936  0.6055 -0.9358 -0.7658
16030TIP3    H269506   6.592   2.535  13.988 -0.5183 -0.9576  0.6067
16031TIP3   OH269507   6.401   5.714   1.842 -0.5437 -0.3515  0.4669
16031TIP3    H169508   6.325   5.680   1.795 -0.1098 -0.6378 -0.0359
16031TIP3    H269509   6.448   5.636   1.871  0.6027 -0.2205 -0.9318
16032TIP3   OH269510   4.598   5.670  12.346  0.5914  0.0928  0.1426
16032TIP3    H169511   4.531   5.642  12.283  0.1643  1.9856 -0.3342
16032TIP3    H269512   4.676   5.619  12.323  0.2576  0.2641 -1.5363
16033TIP3   OH269513   5.486   0.904  12.227  0.5752 -0.2770 -0.1018
16033TIP3    H169514   5.526   0.979  12.271  1.5458 -0.8077 -0.0642
16033TIP3    H269515   5.407   0.940  12.186  0.5018  0.5534  0.7408
16034TIP3   OH269516   3.701   0.192   1.834 -0.6936 -0.6188 -0.0194
16034TIP3    H169517   3.718   0.105   1.869  1.4968 -0.6445 -0.9674
16034TIP3    H269518   3.758   0.250   1.885 -0.4966 -0.0776 -0.8363
16035TIP3   OH269519   0.480   1.160  13.760  0.0990 -0.5052  1.0738
16035TIP3    H169520   0.556   1.103  13.771  0.4766  0.0563  1.4705
16035TIP3    H269521   0.453   1.180  13.850 -1.8202 -2.3677  0.9711
16036TIP3   OH269522   4.438   3.934   3.146  0.5353 -0.1469 -0.2218
16036TIP3    H169523   4.427   4.005   3.083  1.0679 -0.2128 -0.3897
16036TIP3    H269524   4.468   3.978   3.226 -0.2050 -0.0552  0.0144
16037TIP3   OH269525   0.790   3.756   1.738  0.3850  0.0553  0.2236
16037TIP3    H169526   0.761   3.703   1.813  0.4257 -0.6464 -0.2451
16037TIP3    H269527   0.736   3.835   1.743  0.7724  0.2751  1.3059
16038TIP3   OH269528   3.683   1.402  14.852  0.0765 -0.2591  0.4712
16038TIP3    H169529   3.639   1.487  14.845 -0.9129 -0.7501  0.4918
16038TIP3    H269530   3.652   1.354  14.775  0.8199 -0.5241  0.3316
16039TIP3   OH269531   4.411   4.861  12.976  0.0780  0.1254 -0.4352
16039TIP3    H169532   4.355   4.786  12.954  2.4761 -1.2610 -2.3338
16039TIP3    H269533   4.500   4.829  12.959  1.5376  2.0676  2.8373
16040TIP3   OH269534   6.462   0.981   1.699 -0.3205  0.4944  0.4420
16040TIP3    H169535   6.372   0.957   1.679  0.1717  0.3991 -1.9467
16040TIP3    H269536   6.457   1.071   1.730 -1.1473  0.9003 -0.7947
16041TIP3   OH269537   4.186   3.052  16.583  0.0386 -0.5650  0.7982
16041TIP3    H169538   4.227   2.984  16.637  2.3974  0.3617  0.3108
16041TIP3    H269539   4.174   3.010  16.497  0.4342 -0.7007  0.8079
16042TIP3   OH269540   4.612   2.005   2.888  0.0104  0.1374  0.1314
16042TIP3    H169541   4.539   1.977   2.833 -0.2455 -1.2879  1.1597
16042TIP3    H269542   4.572   2.065   2.951  0.5101  2.7950 -1.8863
16043TIP3   OH269543   1.745   2.998  11.737  0.1130 -0.1832 -0.4118
16043TIP3    H169544   1.755   2.907  11.712  0.4557 -0.1289 -0.4707
16043TIP3    H269545   1.709   3.041  11.659  0.1057 -0.2365 -0.4374
16044TIP3   OH269546   3.718   2.041  14.687  0.2042 -0.3444 -0.7388
16044TIP3    H169547   3.714   1.949  14.662  0.4496 -0.7611  0.6659
16044TIP3    H269548   3.629   2.074  14.672 -0.3318 -1.2547  0.2779
16045TIP3   OH269549   0.125   6.174   4.982 -0.4703  0.5255  0.3041
16045TIP3    H169550   0.188   6.236   4.945 -1.0725  0.0383 -1.6760
16045TIP3    H269551   0.179   6.099   5.010 -0.0681  0.3768 -0.7925
16046TIP3   OH269552   2.178   6.011  13.029  0.2162  0.4328 -0.4322
16046TIP3    H169553   2.242   6.081  13.043 -0.6781  0.8552  2.1600
16046TIP3    H269554   2.227   5.942  12.985  2.5460  0.7145  1.5255
16047TIP3   OH269555   1.129   3.415   1.766 -0.1867 -0.3755 -0.1644
16047TIP3    H169556   1.154   3.340   1.820  1.0672 -0.5790 -1.0058
16047TIP3    H269557   1.207   3.437   1.716 -1.2464 -0.0557 -1.7549
16048TIP3   OH269558   2.922   5.088   4.755 -0.4906  0.2222 -0.7131
16048TIP3    H169559   2.939   5.163   4.813 -3.4552  0.1551  0.4233
16048TIP3    H269560   2.853   5.119   4.696 -0.4262 -1.0366 -1.4653
16049TIP3   OH269561   2.553   5.415  10.421  0.2968 -0.4673  0.1459
16049TIP3    H169562   2.571   5.502  10.455 -2.9353  0.1097  0.6831
16049TIP3    H269563   2.461   5.419  10.393  0.9757 -2.7433 -2.9062
16050TIP3   OH269564   1.442   3.221   5.243  0.2252 -0.2558 -0.1192
16050TIP3    H169565   1.482   3.142   5.207 -0.9860 -1.4982  1.1633
16050TIP3    H269566   1.356   3.226   5.201 -0.7706 -1.1313  1.7217
16051TIP3   OH269567   0.028   4.019   0.233 -0.1870  0.4201  0.2534
16051TIP3    H169568   0.026   3.924   0.242  0.5098  0.4498  0.8044
16051TIP3    H269569   0.069   4.050   0.314 -0.9550  1.2268  0.3449
16052TIP3   OH269570   1.163   4.301   5.855 -0.2311 -0.2537 -0.3798
16052TIP3    H169571   1.069   4.283   5.859 -0.2594  0.0863  1.4794
16052TIP3    H269572   1.196   4.275   5.941  1.0691  1.2506 -0.3719
16053TIP3   OH269573   5.412   0.984  16.481 -0.4543 -0.2379  0.1689
16053TIP3    H169574   5.483   1.044  16.506 -0.4902 -0.1601  0.0847
16053TIP3    H269575   5.434   0.902  16.525  0.2528 -0.5307 -0.7008
16054TIP3   OH269576   0.354   1.679   4.295 -0.1261  0.0488 -0.3633
16054TIP3    H169577   0.398   1.600   4.324 -2.4318 -0.7321  1.2502
16054TIP3    H269578   0.269   1.650   4.262 -1.5711  1.8930  1.4447
16055TIP3   OH269579   3.828   4.000  14.991  0.4744  0.3793  0.3553
16055TIP3    H169580   3.779   4.081  15.002  0.5117  0.2419  1.7121
16055TIP3    H269581   3.872   4.010  14.907  0.3544  1.6934  0.4274
16056TIP3   OH269582   3.195   1.201   1.058 -0.2581  0.3182  0.1710
16056TIP3    H169583   3.235   1.143   1.122 -0.5549  1.7675  1.7468
16056TIP3    H269584   3.255   1.199   0.983  1.2464  0.2073  1.3274
16057TIP3   OH269585   4.421   6.006   1.100 -0.7583 -0.0578  0.6799
16057TIP3    H169586   4.476   5.928   1.103  0.8200  1.0259  1.5530
16057TIP3    H269587   4.338   5.975   1.066  0.7540 -1.5544 -2.0302
16058TIP3   OH269588   0.829   3.116  12.271 -0.4967  0.2708 -0.4194
16058TIP3    H169589   0.842   3.146  12.361 -0.7379  0.8344 -0.5745
16058TIP3    H269590   0.786   3.031  12.281 -1.3498  0.7410 -0.0224
16059TIP3   OH269591   4.148   2.490   4.964 -0.2621 -0.1328 -0.1567
16059TIP3    H169592   4.139   2.404   5.006  0.2680 -0.6510 -1.0514
16059TIP3    H269593   4.240   2.492   4.936 -0.3881  0.5526 -0.5171
16060TIP3   OH269594   3.079   2.055  16.730 -0.0734 -0.6198 -0.3819
16060TIP3    H169595   3.147   2.119  16.708 -1.6606  0.7257 -1.5213
16060TIP3    H269596   2.998   2.093  16.698 -1.4570 -2.0383  1.2475
16061TIP3   OH269597   3.257   2.835  12.302  0.7721  0.4931 -0.0241
16061TIP3    H169598   3.286   2.916  12.342  0.2327  0.8570 -0.3622
16061TIP3    H269599   3.323   2.770  12.328  0.4414  0.7065  1.4695
16062TIP3   OH269600   0.281   6.541   1.645  0.2446 -0.1932 -0.0180
16062TIP3    H169601   0.203   6.581   1.606  1.1598  0.5418 -1.1708
16062TIP3    H269602   0.315   6.607   1.704  0.6436 -0.0513 -0.4041
16063TIP3   OH269603   0.579   3.081   5.350  0.2055  0.3101 -0.1359
16063TIP3    H169604   0.644   3.149   5.335 -0.5309  0.6587 -2.1387
16063TIP3    H269605   0.510   3.099   5.286 -0.7549 -1.3979  0.3351
16064TIP3   OH269606   0.793   6.209  12.977  0.7126  0.4117  0.6478
16064TIP3    H169607   0.724   6.245  12.922  1.8054  1.6184  0.0140
16064TIP3    H269608   0.773   6.115  12.981  0.5546  0.2735 -1.8023
16065TIP3   OH269609   0.319   4.718  15.114 -0.2661  1.0872 -0.6672
16065TIP3    H169610   0.321   4.813  15.128  1.1111  1.1647 -1.2119
16065TIP3    H269611   0.401   4.699  15.069 -0.3290 -0.4340 -0.1882
16066TIP3   OH269612   0.979   4.058   5.354 -0.4165 -0.0549  0.0417
16066TIP3    H169613   1.039   4.008   5.299 -1.4432  0.2507 -1.4081
16066TIP3    H269614   1.033   4.089   5.427  0.5526 -2.0898  0.2687
16067TIP3   OH269615   4.909   0.172   6.201  0.2360 -0.2163 -0.2887
16067TIP3    H169616   4.963   0.231   6.148 -0.9479  1.1495 -0.0415
16067TIP3    H269617   4.966   0.097   6.218  1.3926  0.2933 -1.6322
16068TIP3   OH269618   4.762   6.686  12.003  0.0282  0.3062 -0.3241
16068TIP3    H169619   4.837   6.628  11.991  0.3750  1.0783 -2.3036
16068TIP3    H269620   4.698   6.632  12.050 -0.0378 -2.0992 -2.8775
16069TIP3   OH269621   2.687   1.810   4.287 -0.5008  0.3893  0.3126
16069TIP3    H169622   2.676   1.891   4.237  1.3922  1.0881  0.9204
16069TIP3    H269623   2.749   1.833   4.356 -1.1323 -1.1963  1.4728
16070TIP3   OH269624   1.589   0.914   1.024 -0.2755 -0.0756  0.1766
16070TIP3    H169625   1.498   0.885   1.022 -0.2091 -0.3641  0.9366
16070TIP3    H269626   1.631   0.869   0.950 -0.7201 -0.0295 -0.1042
16071TIP3   OH269627   3.346   0.700   5.533 -0.5221  0.3333 -0.0451
16071TIP3    H169628   3.293   0.628   5.498 -1.6798  1.8922 -1.6945
16071TIP3    H269629   3.302   0.779   5.502  2.2823  1.7448 -0.7128
16072TIP3   OH269630   1.015   4.451  13.104  0.0899 -0.4329  0.4263
16072TIP3    H169631   0.973   4.391  13.165 -1.2739  0.1661  0.1156
16072TIP3    H269632   1.093   4.482  13.150  1.2485 -2.9538  0.3119
16073TIP3   OH269633   5.866   1.001  10.633  0.2846 -0.7614  0.3956
16073TIP3    H169634   5.834   1.053  10.706  2.1384  2.8750 -1.1163
16073TIP3    H269635   5.802   1.015  10.563  0.7862 -0.4548 -0.0142
16074TIP3   OH269636   0.456   4.541  13.475  0.2368 -0.4897 -0.1714
16074TIP3    H169637   0.487   4.453  13.493  2.1506  0.0088 -0.7180
16074TIP3    H269638   0.460   4.549  13.379 -3.5169 -0.9727 -0.5397
16075TIP3   OH269639   5.107   3.422  15.256  0.1006  0.1672 -0.5015
16075TIP3    H169640   5.198   3.403  15.236  0.4407  0.0932  1.0014
16075TIP3    H269641   5.076   3.475  15.183  0.6338 -1.7818 -2.2289
16076TIP3   OH269642   1.376   5.387   1.636 -0.5801  0.1812 -0.3418
16076TIP3    H169643   1.441   5.437   1.686 -0.4296 -0.9530  0.6600
16076TIP3    H269644   1.356   5.312   1.693 -2.3502  0.2160 -0.8726
16077TIP3   OH269645   3.743   5.255  13.112  0.5528  0.2057 -0.0050
16077TIP3    H169646   3.709   5.169  13.086 -1.0355  0.2738  1.6472
16077TIP3    H269647   3.665   5.307  13.129  1.4957  2.0070 -0.9381
16078TIP3   OH269648   0.944   4.841  12.417 -0.3096 -0.1478  0.1367
16078TIP3    H169649   0.959   4.853  12.324 -0.8599  0.7075  0.1438
16078TIP3    H269650   1.010   4.898  12.459 -1.0041  0.6045  0.2319
16079TIP3   OH269651   2.165   0.776   4.831  0.2478  0.4024 -0.2557
16079TIP3    H169652   2.235   0.764   4.766  1.1698 -0.1457  0.8087
16079TIP3    H269653   2.104   0.704   4.815  0.8468 -0.1527 -0.0557
16080TIP3   OH269654   1.578   6.030  14.355 -0.2585  0.1964  0.8268
16080TIP3    H169655   1.655   6.087  14.348  0.3564 -0.5005  1.6763
16080TIP3    H269656   1.604   5.962  14.417 -0.6649 -1.5382 -0.8326
16081TIP3   OH269657   3.414   1.729  14.488 -0.0878  0.6497 -0.1943
16081TIP3    H169658   3.482   1.766  14.432 -1.5322  2.2088 -1.0329
16081TIP3    H269659   3.378   1.657  14.437 -1.3881  2.0544 -1.3737
16082TIP3   OH269660   5.432   4.301  14.602 -0.0703  0.3732 -0.2962
16082TIP3    H169661   5.345   4.272  14.576 -0.6407  0.2216  1.6591
16082TIP3    H269662   5.489   4.226  14.583 -0.8727 -0.6259  1.0598
16083TIP3   OH269663   2.104   4.417   2.178 -1.1237 -0.2520 -0.2772
16083TIP3    H169664   2.117   4.323   2.175 -0.7666 -0.2505  0.8354
16083TIP3    H269665   2.192   4.453   2.190 -1.2164  0.2476 -1.0023
16084TIP3   OH269666   5.173   2.197   2.205 -0.1226  0.3273 -0.2086
16084TIP3    H169667   5.175   2.101   2.197  1.0373  0.1904  1.2216
16084TIP3    H269668   5.266   2.221   2.212 -0.4759  1.4029  0.9500
16085TIP3   OH269669   5.485   5.929   0.954  0.0643  0.2107  0.2766
16085TIP3    H169670   5.556   5.941   0.891  0.3068 -0.2485  0.4611
16085TIP3    H269671   5.430   5.861   0.915  1.7178 -2.1538  1.8368
16086TIP3   OH269672   1.993   3.219  12.063  0.1807  0.2354 -0.2138
16086TIP3    H169673   2.070   3.196  12.115 -0.5494 -1.2056  0.3042
16086TIP3    H269674   1.932   3.258  12.126 -1.4242 -3.1278  0.5842
16087TIP3   OH269675   3.470   5.770   3.157  0.7222  0.3124  0.1268
16087TIP3    H169676   3.408   5.830   3.115 -0.3612 -0.1974  0.9598
16087TIP3    H269677   3.554   5.814   3.149  0.1384  1.3993 -0.3202
16088TIP3   OH269678   5.446   3.932   2.625  0.1223  1.0828  0.4747
16088TIP3    H169679   5.383   3.944   2.555  1.2290  1.2651 -0.5249
16088TIP3    H269680   5.481   4.020   2.640  2.8593  0.5105 -1.6684
16089TIP3   OH269681   5.973   5.105  15.913  0.1343 -0.1884  0.6534
16089TIP3    H169682   5.980   5.151  15.996  0.1765  1.3675 -0.1837
16089TIP3    H269683   5.895   5.050  15.923  1.6388 -2.1730  2.6855
16090TIP3   OH269684   2.672   4.664  17.150 -0.0657 -0.5285 -0.4904
16090TIP3    H169685   2.720   4.586  17.177  2.5330  1.4550  1.1188
16090TIP3    H269686   2.585   4.654  17.190  1.2541 -1.1894  2.5220
16091TIP3   OH269687   2.154   0.275   5.125  0.3319  0.8113  0.2421
16091TIP3    H169688   2.102   0.194   5.120  1.8286 -0.2918  1.5106
16091TIP3    H269689   2.111   0.335   5.064 -0.0114 -1.3971 -1.8529
16092TIP3   OH269690   1.598   5.287   3.987  0.0227  0.8790  0.5977
16092TIP3    H169691   1.626   5.348   3.919 -0.3260  0.9150  0.4883
16092TIP3    H269692   1.505   5.304   3.999 -0.1291  0.2363  0.4196
16093TIP3   OH269693   0.451   5.475   3.740 -0.7359  0.1735 -0.2338
16093TIP3    H169694   0.421   5.549   3.688  0.7329 -0.3218 -1.8561
16093TIP3    H269695   0.547   5.483   3.741 -0.6811  0.2966  2.6312
16094TIP3   OH269696   2.529   1.051  14.699  0.2100  1.0436 -0.1054
16094TIP3    H169697   2.600   1.041  14.636  1.0463  1.1431  0.8032
16094TIP3    H269698   2.566   1.022  14.782 -0.2404  2.7522  0.7416
16095TIP3   OH269699   6.511   6.182  15.517 -0.2776 -0.0239 -0.1620
16095TIP3    H169700   6.578   6.228  15.466 -2.5042  2.2570 -1.2277
16095TIP3    H269701   6.430   6.194  15.468 -1.9237 -0.6892  2.2099
16096TIP3   OH269702   5.220   6.057  14.702 -0.0347  0.3296 -0.0948
16096TIP3    H169703   5.273   6.038  14.779 -3.0515 -0.9548  1.8390
16096TIP3    H269704   5.258   6.002  14.632  1.4832 -0.0962  1.0231
16097TIP3   OH269705   0.158   2.088   1.048  0.3016  0.2703  0.1601
16097TIP3    H169706   0.145   2.146   1.123  3.1898  1.3163 -0.0154
16097TIP3    H269707   0.143   2.143   0.971  0.0837 -0.0294 -0.0125
16098TIP3   OH269708   4.462   6.317  12.436  0.6072  0.0259  0.9534
16098TIP3    H169709   4.387   6.352  12.387  1.9002 -0.2897 -1.4218
16098TIP3    H269710   4.469   6.374  12.513 -2.7534 -0.6918  1.9591
16099TIP3   OH269711   6.313   0.771  13.951  0.3886 -0.3272  0.0861
16099TIP3    H169712   6.232   0.810  13.982 -0.3881 -1.3262 -0.6168
16099TIP3    H269713   6.320   0.798  13.859 -0.2628 -1.8917 -0.4733
16100TIP3   OH269714   0.918   1.439   4.018  0.8064  0.2769 -0.0636
16100TIP3    H169715   0.858   1.514   4.027  0.2291  0.0264 -1.6035
16100TIP3    H269716   0.882   1.373   4.077 -1.9180 -0.7464 -2.6191
16101TIP3   OH269717   0.411   0.373  16.995 -0.5208 -0.3324  0.4739
16101TIP3    H169718   0.402   0.468  16.987 -1.6978 -0.4896 -0.2972
16101TIP3    H269719   0.338   0.347  17.052  0.6492 -0.6383  1.9111
16102TIP3   OH269720   0.269   0.511   1.139  0.0736 -0.0259  0.1678
16102TIP3    H169721   0.359   0.543   1.130 -0.5718  2.6664  2.1843
16102TIP3    H269722   0.258   0.496   1.234 -1.6208 -0.2817 -0.0356
16103TIP3   OH269723   0.978   1.536  12.155 -0.1739 -0.6730  0.4813
16103TIP3    H169724   1.074   1.533  12.155 -0.1803 -1.4931  1.6843
16103TIP3    H269725   0.956   1.591  12.231 -0.6556  0.3877 -0.4045
16104TIP3   OH269726   4.484   4.688  12.256 -0.2583 -0.6831  0.3154
16104TIP3    H169727   4.481   4.768  12.307  1.5887  0.0044 -0.5941
16104TIP3    H269728   4.552   4.635  12.298 -0.0099 -0.8842 -0.3328
16105TIP3   OH269729   4.013   1.146   2.162 -0.0768 -0.0461 -0.1593
16105TIP3    H169730   4.026   1.065   2.211 -1.9019 -0.6754 -0.6236
16105TIP3    H269731   3.922   1.171   2.179 -0.2187  0.7062 -1.7458
16106TIP3   OH269732   3.953   1.619   6.477 -0.2658  0.0849  0.0688
16106TIP3    H169733   3.930   1.612   6.384  2.9006  2.2298 -1.0559
16106TIP3    H269734   3.986   1.533   6.500  0.9486  0.0809 -1.5178
16107TIP3   OH269735   5.282   1.087   2.271  0.3022  0.2849  0.1744
16107TIP3    H169736   5.309   0.995   2.278 -0.6142 -0.0849 -0.9522
16107TIP3    H269737   5.315   1.116   2.186  0.0287  0.8138  0.2423
16108TIP3   OH269738   2.505   1.817  11.359 -0.4611  0.3262 -0.0248
16108TIP3    H169739   2.435   1.755  11.378 -1.1641  1.3836  1.0099
16108TIP3    H269740   2.585   1.765  11.358 -1.3405 -1.1274 -2.4595
16109TIP3   OH269741   5.138   2.351   3.461 -0.6098  0.3401  0.0331
16109TIP3    H169742   5.099   2.263   3.466 -0.1806  0.1652  0.4291
16109TIP3    H269743   5.094   2.393   3.387 -1.9816  0.3592  0.8189
16110TIP3   OH269744   3.203   2.930   4.233 -0.2620  0.9068 -0.0720
16110TIP3    H169745   3.226   2.897   4.320 -1.2248  0.4715  0.0341
16110TIP3    H269746   3.190   2.851   4.180 -0.2315  1.1587 -0.4575
16111TIP3   OH269747   3.136   3.887   1.035 -0.1882 -0.3924  0.1831
16111TIP3    H169748   3.096   3.866   1.120 -0.0324  0.2639  0.4173
16111TIP3    H269749   3.205   3.949   1.055 -1.3046  1.1707 -0.6141
16112TIP3   OH269750   2.147   0.792  11.119  0.4742  0.3347 -0.2517
16112TIP3    H169751   2.070   0.753  11.159  1.4640  0.6878  2.1821
16112TIP3    H269752   2.121   0.882  11.098 -0.3277 -0.1212 -1.2891
16113TIP3   OH269753   4.124   0.868  12.603 -0.4030  1.3705  0.4128
16113TIP3    H169754   4.063   0.795  12.591  1.3477  0.1674 -1.7036
16113TIP3    H269755   4.069   0.946  12.593 -1.9883  0.3772  0.8727
16114TIP3   OH269756   3.291   1.205   2.637  0.1684  0.2886 -0.2007
16114TIP3    H169757   3.310   1.296   2.662 -1.0206  0.2301  1.0242
16114TIP3    H269758   3.264   1.163   2.719  0.6031 -1.1568 -0.7683
16115TIP3   OH269759   6.545   3.146  15.283 -0.0700  0.6958  0.8282
16115TIP3    H169760   6.633   3.183  15.274 -0.5835  2.1235  1.3437
16115TIP3    H269761   6.504   3.199  15.351 -1.7056  0.7962 -0.1787
16116TIP3   OH269762   6.769   2.427  10.907  0.4861  0.8371  0.4960
16116TIP3    H169763   6.675   2.443  10.912  0.2608 -0.3545  0.5089
16116TIP3    H269764   6.804   2.500  10.855 -0.7770  0.1643 -1.3902
16117TIP3   OH269765   3.004   4.673  13.576  0.1230  0.2076  0.2032
16117TIP3    H169766   2.983   4.600  13.634 -0.9475  1.7992  1.9180
16117TIP3    H269767   2.921   4.718  13.564  0.2460 -0.1380 -2.8047
16118TIP3   OH269768   3.681   1.156  13.110 -0.5456  0.5010  0.5885
16118TIP3    H169769   3.589   1.175  13.131 -0.6698  0.2573  0.2646
16118TIP3    H269770   3.678   1.118  13.023  0.0344  2.1079 -0.1739
16119TIP3   OH269771   6.446   0.581   4.153 -0.9279 -0.3450  0.0637
16119TIP3    H169772   6.422   0.572   4.246  0.1408  1.6443  0.5762
16119TIP3    H269773   6.520   0.521   4.142 -0.0864  0.5052  0.9115
16120TIP3   OH269774   4.614   1.132   4.052 -0.5653  0.2569 -0.1630
16120TIP3    H169775   4.699   1.100   4.022 -0.2393 -0.0422  1.0226
16120TIP3    H269776   4.551   1.066   4.024  0.1057 -1.5816  2.3263
16121TIP3   OH269777   1.129   2.630   6.159  0.1247 -0.0119  0.3522
16121TIP3    H169778   1.163   2.592   6.078 -2.1048  1.3850 -1.3748
16121TIP3    H269779   1.156   2.569   6.228  2.2252 -1.1859 -1.3981
16122TIP3   OH269780   6.240   3.405  16.814  0.1873  0.2088  0.2376
16122TIP3    H169781   6.326   3.437  16.787 -0.2586  1.4502  0.2436
16122TIP3    H269782   6.250   3.310  16.816  1.8197  0.3548  1.1196
16123TIP3   OH269783   1.339   3.322   1.146  0.9233 -1.0655 -0.2456
16123TIP3    H169784   1.278   3.354   1.212 -0.7176 -1.6654 -1.4048
16123TIP3    H269785   1.368   3.237   1.178  1.9043 -0.3808  0.7492
16124TIP3   OH269786   0.993   0.075  12.542  0.4680 -0.1020  0.7432
16124TIP3    H169787   0.977   0.169  12.543 -0.4655 -0.2086 -0.6561
16124TIP3    H269788   1.081   0.066  12.503  0.8003  0.2026  1.4139
16125TIP3   OH269789   4.399   4.508  16.365 -0.0686  0.1289  0.2290
16125TIP3    H169790   4.349   4.427  16.351 -0.8225  0.5795  0.2256
16125TIP3    H269791   4.443   4.523  16.282  0.3094 -0.4354  0.3260
16126TIP3   OH269792   2.015   3.981   1.269  0.6225  0.1082  0.6583
16126TIP3    H169793   1.995   3.890   1.248  3.9495 -0.7045  0.4897
16126TIP3    H269794   2.016   4.025   1.184  0.0957  0.0454  0.6204
16127TIP3   OH269795   0.577   3.131  11.274  0.0990 -0.0423  0.2153
16127TIP3    H169796   0.539   3.079  11.204  1.2429 -0.5431 -0.0503
16127TIP3    H269797   0.638   3.191  11.231 -0.9186  1.3054  0.5551
16128TIP3   OH269798   0.572   1.773   5.914  0.5481 -0.1273  0.0703
16128TIP3    H169799   0.490   1.789   5.961  0.7483 -0.6583  0.6154
16128TIP3    H269800   0.629   1.731   5.978  0.9043 -0.6748 -0.5911
16129TIP3   OH269801   4.363   4.140   3.659 -0.3408  0.4237  0.1058
16129TIP3    H169802   4.362   4.046   3.676 -1.1972  0.2431 -0.8192
16129TIP3    H269803   4.277   4.158   3.620 -0.4654  1.7185  0.9101
16130TIP3   OH269804   2.977   1.644  14.946  0.4041  0.0643 -0.3171
16130TIP3    H169805   2.923   1.590  14.887  0.9566 -0.3076 -0.4893
16130TIP3    H269806   2.916   1.670  15.016  0.3833 -1.7720  0.4136
16131TIP3   OH269807   2.179   4.894   4.742  0.2750  0.0761 -0.1293
16131TIP3    H169808   2.129   4.867   4.665 -0.4119  0.6949  0.0938
16131TIP3    H269809   2.265   4.918   4.707 -0.0342  0.3549 -0.7025
16132TIP3   OH269810   5.376   0.818   2.308 -0.1039  0.0118 -0.6604
16132TIP3    H169811   5.344   0.740   2.353 -0.2284  0.5859  0.2504
16132TIP3    H269812   5.358   0.800   2.215  0.5733 -1.3763 -0.5582
16133TIP3   OH269813   4.783   2.948   4.731 -0.5411  0.2248 -1.0155
16133TIP3    H169814   4.845   2.948   4.804  1.1982 -0.1272 -2.4039
16133TIP3    H269815   4.700   2.975   4.769 -0.6575 -3.4282  1.8514
16134TIP3   OH269816   4.353   3.634   2.673  0.0362  0.3486  0.6722
16134TIP3    H169817   4.363   3.571   2.745  0.0258 -0.6509 -0.1774
16134TIP3    H269818   4.401   3.595   2.600  0.1571  1.4097  0.1562
16135TIP3   OH269819   2.614   5.964  12.223 -0.4734  0.0055  0.3918
16135TIP3    H169820   2.648   5.917  12.299 -0.1713 -0.5965 -0.1104
16135TIP3    H269821   2.622   6.057  12.247 -2.8909 -0.1601  2.1872
16136TIP3   OH269822   5.396   0.365  15.666  0.4711 -0.0643 -0.3368
16136TIP3    H169823   5.340   0.363  15.744 -1.2355 -1.6819 -1.4897
16136TIP3    H269824   5.382   0.452  15.628 -0.1350  0.0731  0.1832
16137TIP3   OH269825   0.463   4.049  14.231  0.3801  0.5132 -0.4151
16137TIP3    H169826   0.551   4.034  14.197  0.0517  4.0195 -3.3331
16137TIP3    H269827   0.463   4.140  14.261 -2.0248  0.3385  0.3814
16138TIP3   OH269828   3.201   1.029   4.851 -0.9229 -0.0247 -0.4339
16138TIP3    H169829   3.154   0.959   4.806 -0.1654 -2.0674  1.7830
16138TIP3    H269830   3.262   0.984   4.909 -0.3996  2.4767  1.0970
16139TIP3   OH269831   0.987   6.059  14.629 -0.4368 -0.1261 -0.0751
16139TIP3    H169832   0.982   6.000  14.553  0.1046 -0.2905  0.0141
16139TIP3    H269833   1.053   6.020  14.686  1.0290  1.3193 -0.6897
16140TIP3   OH269834   4.635   2.922   5.433 -0.0999 -0.1016 -0.1121
16140TIP3    H169835   4.639   2.832   5.399 -1.0930 -0.7137  1.2558
16140TIP3    H269836   4.542   2.946   5.426  0.1607  0.8336 -0.4802
16141TIP3   OH269837   1.180   4.507   0.290 -0.2332  0.9880  0.0073
16141TIP3    H169838   1.212   4.557   0.215  2.2038 -0.3744  0.0381
16141TIP3    H269839   1.250   4.444   0.308 -1.5096  0.1424  2.3667
16142TIP3   OH269840   3.956   5.533  11.714 -0.3596  0.3720 -0.1266
16142TIP3    H169841   3.876   5.504  11.671 -1.5069 -0.2916  2.2808
16142TIP3    H269842   3.932   5.616  11.756  1.2242  1.9245 -2.0551
16143TIP3   OH269843   5.900   1.074  13.800 -1.0511  0.5170 -0.0290
16143TIP3    H169844   5.914   0.979  13.791 -1.0030  0.4156  0.9371
16143TIP3    H269845   5.938   1.112  13.721 -1.0024 -0.2679 -0.3900
16144TIP3   OH269846   3.449   0.225   4.351 -0.0821 -0.5251  0.2579
16144TIP3    H169847   3.383   0.291   4.376 -0.0291 -0.2120 -0.4082
16144TIP3    H269848   3.513   0.229   4.422 -0.6777 -0.7022  0.8255
16145TIP3   OH269849   5.737   6.758   5.771  0.3192 -0.4132  0.4150
16145TIP3    H169850   5.830   6.780   5.778  0.9270 -1.8202 -2.1945
16145TIP3    H269851   5.699   6.830   5.721  0.4376 -0.7887 -0.2287
16146TIP3   OH269852   4.473   4.892   6.301 -0.8361  0.0524  0.1202
16146TIP3    H169853   4.425   4.901   6.218  1.8178  0.2663 -1.5211
16146TIP3    H269854   4.450   4.971   6.350 -0.5883  1.2221 -1.5216
16147TIP3   OH269855   4.180   1.986  10.548  0.2582  0.2172 -0.0967
16147TIP3    H169856   4.118   2.003  10.478  0.6728  0.3986 -0.4250
16147TIP3    H269857   4.126   1.981  10.627 -0.0212  1.9221 -0.1405
16148TIP3   OH269858   2.775   4.329   5.962 -0.4760  0.0040  0.4177
16148TIP3    H169859   2.789   4.297   5.873  1.9019  1.6573  0.0991
16148TIP3    H269860   2.681   4.319   5.976 -0.8312 -0.8999 -2.0284
16149TIP3   OH269861   1.791   6.591  11.661  0.1639 -0.1853 -0.4962
16149TIP3    H169862   1.760   6.577  11.572 -0.3575 -0.0258 -0.3418
16149TIP3    H269863   1.758   6.677  11.685  0.5121 -0.1213 -0.2337
16150TIP3   OH269864   3.784   3.610   4.252  0.1956  0.6049  0.2778
16150TIP3    H169865   3.695   3.621   4.285  0.5158  0.4601  1.2407
16150TIP3    H269866   3.833   3.682   4.293  1.0383 -0.7884  1.8075
16151TIP3   OH269867   6.703   6.528  16.756  0.0550  0.4315 -0.4374
16151TIP3    H169868   6.679   6.591  16.824  0.6186  1.3816 -1.0894
16151TIP3    H269869   6.797   6.543  16.742  0.0227 -0.0063 -1.1713
16152TIP3   OH269870   4.533   4.225   4.232 -0.2935  0.4137 -0.0522
16152TIP3    H169871   4.441   4.251   4.244 -0.7266 -1.2848  0.6419
16152TIP3    H269872   4.564   4.208   4.321 -0.0110 -1.2140 -0.4364
16153TIP3   OH269873   0.585   5.874   6.729 -0.5576 -0.0418 -0.1381
16153TIP3    H169874   0.591   5.968   6.717  0.1049  0.1307  1.2673
16153TIP3    H269875   0.616   5.837   6.646  0.5085  0.9863 -0.2288
16154TIP3   OH269876   3.532   6.258   0.956  0.5511 -0.3416  0.8255
16154TIP3    H169877   3.511   6.351   0.954 -0.6707 -0.5856 -1.8344
16154TIP3    H269878   3.627   6.255   0.951  0.6091  0.7722  0.9580
16155TIP3   OH269879   6.529   2.528   4.558 -0.6717  0.4430  0.3292
16155TIP3    H169880   6.543   2.471   4.482 -0.1717  1.7807 -0.6236
16155TIP3    H269881   6.592   2.497   4.623  0.6651  0.8498 -0.7324
16156TIP3   OH269882   0.140   4.850  16.202 -0.5310  0.2013 -0.6663
16156TIP3    H169883   0.204   4.823  16.268 -0.1982 -0.2181 -1.1426
16156TIP3    H269884   0.065   4.792  16.216  0.3672 -1.4102 -1.9930
16157TIP3   OH269885   0.479   0.752  12.723  0.3740 -0.1858  0.7079
16157TIP3    H169886   0.494   0.659  12.707 -1.9220 -0.4687 -0.2477
16157TIP3    H269887   0.509   0.795  12.643  1.0889 -0.1357  0.9988
16158TIP3   OH269888   3.444   5.652  12.650 -0.0724 -0.5509  0.0501
16158TIP3    H169889   3.492   5.731  12.626  1.0635 -0.8532  1.1630
16158TIP3    H269890   3.475   5.585  12.589  0.4944 -0.6005  0.3837
16159TIP3   OH269891   1.093   3.672   2.198  0.1571 -0.3894 -0.2142
16159TIP3    H169892   1.055   3.659   2.285  1.5557 -1.1734  0.3114
16159TIP3    H269893   1.072   3.592   2.150 -1.9419  0.6559 -1.1613
16160TIP3   OH269894   4.934   5.163   5.933 -0.1246  0.0035 -0.5004
16160TIP3    H169895   4.874   5.161   6.007  0.5169  0.9376  0.0625
16160TIP3    H269896   5.020   5.175   5.972  0.2254  0.4849 -1.3968
16161TIP3   OH269897   1.418   2.642   0.239 -0.4559  0.2721 -0.9021
16161TIP3    H169898   1.422   2.581   0.312 -1.5016  1.8453  0.5319
16161TIP3    H269899   1.509   2.661   0.218 -0.1087 -1.5275 -1.2198
16162TIP3   OH269900   3.355   1.786  16.887 -0.8101  0.4256 -0.0708
16162TIP3    H169901   3.286   1.842  16.923 -1.4785 -0.1482 -0.4403
16162TIP3    H269902   3.432   1.805  16.942 -1.3998  0.6732  0.6936
16163TIP3   OH269903   1.891   6.766  13.482 -0.1414  0.3642 -0.1873
16163TIP3    H169904   1.802   6.734  13.468 -0.9827  2.6711 -0.4915
16163TIP3    H269905   1.938   6.742  13.402 -1.1674  1.2370 -1.0882
16164TIP3   OH269906   4.743   4.482   1.214 -0.3920 -0.0338  0.4607
16164TIP3    H169907   4.779   4.411   1.267 -3.7780 -1.1507  1.5621
16164TIP3    H269908   4.756   4.561   1.267  0.6798 -0.3096  0.6319
16165TIP3   OH269909   6.280   4.740  12.493 -0.5447 -0.2486 -0.2117
16165TIP3    H169910   6.348   4.800  12.463  0.5391 -1.7764 -0.8934
16165TIP3    H269911   6.217   4.737  12.420 -0.1152 -0.6445 -0.5742
16166TIP3   OH269912   1.742   4.968   2.992 -0.0928 -0.9194  0.0484
16166TIP3    H169913   1.765   4.949   2.902 -0.2751 -1.8321  0.1928
16166TIP3    H269914   1.692   4.893   3.022 -0.8258 -0.2270  0.6320
16167TIP3   OH269915   5.905   6.558   4.712 -0.2530  0.1391  0.4688
16167TIP3    H169916   5.913   6.526   4.802 -0.6676 -1.9037 -0.1636
16167TIP3    H269917   5.943   6.646   4.714  2.4444 -0.9378  2.0173
16168TIP3   OH269918   3.861   1.189  15.604  0.4054 -0.4553  0.0143
16168TIP3    H169919   3.933   1.252  15.611 -0.8494  0.8727  2.4514
16168TIP3    H269920   3.900   1.106  15.634  1.0999  0.1088  0.7477
16169TIP3   OH269921   0.894   1.313  15.951 -0.1051  0.4299  0.2962
16169TIP3    H169922   0.951   1.363  15.893 -0.8506  1.5241  0.4893
16169TIP3    H269923   0.946   1.297  16.029  0.5403 -0.1414 -0.2305
16170TIP3   OH269924   4.943   4.998   2.354  0.2245  0.1927 -0.2186
16170TIP3    H169925   4.982   4.990   2.441  0.4755 -0.9312 -0.4207
16170TIP3    H269926   4.899   5.083   2.355  1.9730  1.1605  0.3088
16171TIP3   OH269927   0.599   5.124   3.725 -0.0858  0.0340  0.4429
16171TIP3    H169928   0.575   5.068   3.651 -1.2621  0.9987  0.0487
16171TIP3    H269929   0.515   5.145   3.767  0.2622  1.7174  0.3894
16172TIP3   OH269930   1.943   1.479  10.746  0.2513  0.6106 -0.0649
16172TIP3    H169931   1.862   1.510  10.704 -0.8685  1.2506  2.4091
16172TIP3    H269932   2.002   1.553  10.741  0.1962  0.6273 -0.6062
16173TIP3   OH269933   2.784   4.435   0.452  0.3871  0.0600  0.2940
16173TIP3    H169934   2.694   4.450   0.422  0.0100 -1.8873  0.3241
16173TIP3    H269935   2.828   4.519   0.439 -1.4443  1.0819  0.3280
16174TIP3   OH269936   6.217   3.411  12.514 -0.0322  0.6529  0.4088
16174TIP3    H169937   6.157   3.337  12.506 -0.1989  0.8890 -0.7099
16174TIP3    H269938   6.294   3.384  12.464  0.2265  0.9156  0.6662
16175TIP3   OH269939   1.953   5.441  16.453  0.5053 -0.0971 -0.2031
16175TIP3    H169940   1.938   5.348  16.435  1.1230 -0.4039  0.7719
16175TIP3    H269941   1.936   5.450  16.547 -1.0046  1.0976 -0.5554
16176TIP3   OH269942   4.237   1.874  14.796  0.0699  0.7736  0.4198
16176TIP3    H169943   4.301   1.841  14.860  0.4855 -1.7883 -1.1751
16176TIP3    H269944   4.280   1.949  14.756  2.1237 -0.8170 -0.5428
16177TIP3   OH269945   2.546   2.690  11.649  0.3991  0.1028 -0.6370
16177TIP3    H169946   2.564   2.770  11.698  1.6537 -0.0664 -0.7789
16177TIP3    H269947   2.557   2.716  11.557 -1.3533  0.2777 -0.8233
16178TIP3   OH269948   2.578   3.051   4.763  0.1603 -0.0059  0.7120
16178TIP3    H169949   2.512   2.982   4.762  0.9407 -0.7807  0.8209
16178TIP3    H269950   2.603   3.059   4.855  1.5260 -1.0528  0.4788
16179TIP3   OH269951   6.233   2.628   4.020 -0.1682 -0.0343 -0.0938
16179TIP3    H169952   6.327   2.643   4.013 -0.2858  0.5108 -0.5984
16179TIP3    H269953   6.220   2.593   4.108  0.4202  0.5663  0.2375
16180TIP3   OH269954   2.923   3.624   4.802  0.2291 -0.3430 -0.1219
16180TIP3    H169955   2.856   3.691   4.791  0.0404 -0.7395 -1.4848
16180TIP3    H269956   2.877   3.551   4.843 -0.3660 -0.8610 -1.6424
16181TIP3   OH269957   0.083   0.986   4.281  0.1131 -0.1189  0.4871
16181TIP3    H169958   0.063   0.894   4.269 -1.2462  0.0963  0.9464
16181TIP3    H269959   0.007   1.032   4.247  1.4570  0.9305 -1.3025
16182TIP3   OH269960   6.656   0.101  16.881  0.4212 -0.2945  0.2790
16182TIP3    H169961   6.698   0.167  16.936 -1.4791 -0.1494  1.6306
16182TIP3    H269962   6.648   0.024  16.937 -1.1321 -0.2949  0.0967
16183TIP3   OH269963   3.046   5.440   0.627 -0.3408 -0.3024 -0.1354
16183TIP3    H169964   3.112   5.503   0.655 -0.7373  1.2232 -2.3760
16183TIP3    H269965   2.963   5.479   0.653 -0.5643 -0.1606 -1.0513
16184TIP3   OH269966   2.089   0.393  13.654  0.0344 -0.6966  0.7380
16184TIP3    H169967   2.082   0.407  13.748 -2.5792 -1.4405  0.7064
16184TIP3    H269968   2.055   0.473  13.614  0.6572 -0.5865  0.4028
16185TIP3   OH269969   3.314   3.866   1.318  0.1226  0.9360 -0.4742
16185TIP3    H169970   3.258   3.852   1.395  1.8751  1.5864  0.9921
16185TIP3    H269971   3.333   3.960   1.319  0.9589  0.7845 -1.1479
16186TIP3   OH269972   2.333   0.844  13.921  0.4561 -0.3666  0.1115
16186TIP3    H169973   2.407   0.816  13.868  1.2316  1.2718  0.2712
16186TIP3    H269974   2.258   0.800  13.882  1.3869 -1.4389 -0.5490
16187TIP3   OH269975   1.879   6.569  16.516  0.5045  0.0827  0.6129
16187TIP3    H169976   1.879   6.474  16.523 -0.3270 -0.2095 -2.1233
16187TIP3    H269977   1.854   6.586  16.425 -1.4941  2.9636  1.5839
16188TIP3   OH269978   4.302   5.333  17.030 -0.1545  0.2293  0.0330
16188TIP3    H169979   4.355   5.406  16.997  1.3281 -0.7142  0.2224
16188TIP3    H269980   4.359   5.288  17.092 -1.4232 -0.4749  0.7314
16189TIP3   OH269981   3.541   3.898   2.696  0.4078 -0.3152  0.6057
16189TIP3    H169982   3.464   3.918   2.750  0.2170 -3.1611  1.5568
16189TIP3    H269983   3.608   3.960   2.727 -0.9083  0.9101  1.1285
16190TIP3   OH269984   5.317   6.107  14.265  0.3313 -0.1204 -0.4720
16190TIP3    H169985   5.347   6.029  14.217 -0.3260 -0.7285  0.0738
16190TIP3    H269986   5.233   6.081  14.302  0.0668  0.8871 -0.3374
16191TIP3   OH269987   6.460   4.025   4.103 -0.3454  0.5212  0.1520
16191TIP3    H169988   6.421   4.090   4.163 -0.5787  0.0016  0.5750
16191TIP3    H269989   6.446   3.941   4.147  1.4169  0.3167  0.4061
16192TIP3   OH269990   2.099   5.631  16.319  0.3506  0.7649 -0.8877
16192TIP3    H169991   2.044   5.558  16.347  0.5372  0.2211 -1.9125
16192TIP3    H269992   2.151   5.596  16.247 -0.2364  2.1517 -2.0470
16193TIP3   OH269993   4.601   6.433   1.230 -0.6235 -0.0309 -0.3321
16193TIP3    H169994   4.553   6.414   1.150  2.5097 -1.9187 -1.9607
16193TIP3    H269995   4.592   6.353   1.282  0.6105 -0.3896 -0.6354
16194TIP3   OH269996   5.537   5.443   1.351 -0.6103  0.4865 -0.4270
16194TIP3    H169997   5.586   5.513   1.307  0.4707 -0.6440 -1.1108
16194TIP3    H269998   5.495   5.396   1.280  1.5531 -1.6699 -0.4074
16195TIP3   OH269999   4.108   1.602   0.006  0.0552  0.0761  0.0645
16195TIP3    H170000   4.054   1.540   0.054  0.2537 -0.9503 -0.9966
16195TIP3    H270001   4.077   1.598  -0.084  2.2128 -0.9783 -0.7116
16196TIP3   OH270002   3.265   5.786  16.102  0.5342 -0.3525  0.1853
16196TIP3    H170003   3.212   5.830  16.035  1.3393  0.3204 -0.0335
16196TIP3    H270004   3.321   5.856  16.137 -0.0517 -0.6236  1.7600
16197TIP3   OH270005   4.132   5.378  14.848 -0.1074  0.5232  0.4550
16197TIP3    H170006   4.153   5.331  14.767 -2.4184  0.4239 -0.1779
16197TIP3    H270007   4.063   5.326  14.888  2.0577 -0.2833  3.3817
16198TIP3   OH270008   6.544   5.132  17.087  0.3475 -0.2852 -0.1713
16198TIP3    H170009   6.554   5.227  17.079 -1.4933 -0.1195 -1.1499
16198TIP3    H270010   6.633   5.098  17.084  0.9719  1.3178 -1.2212
16199TIP3   OH270011   6.308   5.037  11.458 -0.2174 -0.2774 -0.1756
16199TIP3    H170012   6.331   5.112  11.514  0.1290 -0.7522  0.3271
16199TIP3    H270013   6.224   5.006  11.492  1.0534 -1.9877  1.6133
16200TIP3   OH270014   3.690   3.896   4.575  0.6078 -0.1028 -0.5462
16200TIP3    H170015   3.651   3.809   4.586  1.3592 -0.2736  1.1584
16200TIP3    H270016   3.620   3.950   4.538 -0.4791 -0.9775  0.1816
16201TIP3   OH270017   4.865   5.221  15.318  0.1822 -0.0232 -0.2725
16201TIP3    H170018   4.774   5.246  15.302 -0.5467 -0.7840  2.2194
16201TIP3    H270019   4.890   5.170  15.240 -1.1565  1.0285 -1.4523
16202TIP3   OH270020   1.187   5.790  12.767  0.3936  0.1221  0.5018
16202TIP3    H170021   1.149   5.871  12.734 -1.2990 -0.5884  0.5753
16202TIP3    H270022   1.245   5.759  12.697  0.1601  0.8130 -0.0024
16203TIP3   OH270023   0.869   0.842  13.163  0.4582  0.7715  0.2142
16203TIP3    H170024   0.798   0.905  13.157  0.6094  0.9163 -0.0538
16203TIP3    H270025   0.827   0.761  13.194 -0.1746  0.2743 -1.8159
16204TIP3   OH270026   0.663   0.198  11.631  0.8426  0.2233  1.0074
16204TIP3    H170027   0.754   0.172  11.635  0.8937  0.4104  1.0876
16204TIP3    H270028   0.640   0.193  11.539  0.2663 -2.0759  1.2252
16205TIP3   OH270029   4.478   6.533   2.316  0.8721  0.1380 -0.4298
16205TIP3    H170030   4.403   6.543   2.257  0.1028  1.4209  0.6994
16205TIP3    H270031   4.507   6.443   2.304  1.5589  0.6717 -3.6851
16206TIP3   OH270032   5.866   1.526  11.154  0.1511 -0.0707  0.1604
16206TIP3    H170033   5.930   1.557  11.090  0.2889 -0.2071  0.2295
16206TIP3    H270034   5.919   1.486  11.223  0.0885  1.2764  1.0293
16207TIP3   OH270035   5.323   1.124  15.742 -0.4654  0.3540 -0.1983
16207TIP3    H170036   5.372   1.190  15.791 -0.2228 -1.0449  1.5389
16207TIP3    H270037   5.384   1.095  15.674 -0.0835  0.9511 -0.1179
16208TIP3   OH270038   0.005   6.002   2.983  0.1241 -0.1808 -0.0676
16208TIP3    H170039   0.016   6.094   3.005  0.1371  0.2454 -1.7256
16208TIP3    H270040   0.003   6.000   2.888 -0.1699 -1.8714 -0.0601
16209TIP3   OH270041   1.688   3.535  15.027 -0.0500  0.1674 -0.3731
16209TIP3    H170042   1.671   3.626  15.053  0.4461  1.0125 -2.7577
16209TIP3    H270043   1.784   3.529  15.022 -0.0867 -0.4354 -0.4154
16210TIP3   OH270044   4.129   5.461   5.840  0.1465 -0.5913 -0.3814
16210TIP3    H170045   4.088   5.546   5.827 -0.1349 -0.6622  0.0310
16210TIP3    H270046   4.210   5.465   5.788  1.0912  0.6138  1.1257
16211TIP3   OH270047   6.390   1.412  14.374  0.3253  0.0310 -0.1265
16211TIP3    H170048   6.424   1.423  14.463 -2.0429  1.0288  0.7392
16211TIP3    H270049   6.335   1.334  14.379 -1.4423  1.2309 -0.1257
16212TIP3   OH270050   2.121   2.409  12.546 -0.1719 -0.4892  0.1346
16212TIP3    H170051   2.160   2.385  12.630 -0.7375 -1.0767  0.2442
16212TIP3    H270052   2.030   2.379  12.553  0.0506 -1.5426 -1.0879
16213TIP3   OH270053   2.299   1.145  13.133  0.1654 -0.2543 -0.7433
16213TIP3    H170054   2.360   1.216  13.152 -1.2305  1.1134 -1.0939
16213TIP3    H270055   2.241   1.143  13.209 -1.0353  0.3899 -1.6055
16214TIP3   OH270056   5.665   0.099  14.486 -0.2495  0.1623 -0.3809
16214TIP3    H170057   5.703   0.088  14.399 -0.6774 -0.7782 -0.4579
16214TIP3    H270058   5.734   0.141  14.538  0.2203  0.1684 -1.0007
16215TIP3   OH270059   2.446   2.245   0.446  0.1140  0.2907 -0.3607
16215TIP3    H170060   2.391   2.322   0.460 -0.2825 -0.0120 -0.2159
16215TIP3    H270061   2.535   2.275   0.462  0.1670  1.1790 -2.1100
16216TIP3   OH270062   0.619   0.681  14.727  0.2909 -0.1907 -0.4444
16216TIP3    H170063   0.711   0.666  14.749 -0.0478 -0.3146  1.0022
16216TIP3    H270064   0.614   0.775  14.708  0.3104  0.3168  1.8220
16217TIP3   OH270065   6.268   4.606   5.703 -0.4387  0.7032 -0.0387
16217TIP3    H170066   6.272   4.534   5.641  0.0217  1.2010 -0.5916
16217TIP3    H270067   6.288   4.566   5.788 -0.3993  0.1482 -0.3094
16218TIP3   OH270068   1.836   5.035  17.230  0.9818 -0.2069  0.0359
16218TIP3    H170069   1.904   5.099  17.208  0.5161  0.4704  0.5072
16218TIP3    H270070   1.758   5.088  17.244  0.1028 -1.0389 -1.4031
16219TIP3   OH270071   4.942   3.255  16.522  0.3367  0.0860  0.2951
16219TIP3    H170072   5.013   3.264  16.585  0.5575  0.1226  0.0416
16219TIP3    H270073   4.952   3.167  16.485  1.0111  0.5429 -0.6528
16220TIP3   OH270074   5.577   2.724  11.122 -0.0424 -0.3021  0.0602
16220TIP3    H170075   5.671   2.714  11.133 -0.0409 -0.5212 -0.1485
16220TIP3    H270076   5.542   2.636  11.138 -0.2241 -0.1952  0.2634
16221TIP3   OH270077   2.167   0.615   5.476 -0.0191  0.1367  0.3289
16221TIP3    H170078   2.212   0.699   5.479  0.8018 -0.1212 -1.9863
16221TIP3    H270079   2.230   0.552   5.511  0.0588  0.2457  0.3839
16222TIP3   OH270080   3.397   1.566   4.920  0.1539  0.2224  0.2256
16222TIP3    H170081   3.439   1.484   4.893 -0.0577 -0.3412  1.5156
16222TIP3    H270082   3.410   1.625   4.846  1.3626 -0.5981 -0.2567
16223TIP3   OH270083   1.856   5.697   0.577  0.3838 -0.2933 -0.0940
16223TIP3    H170084   1.854   5.641   0.500  0.7397  1.2587 -1.2688
16223TIP3    H270085   1.768   5.733   0.583 -0.0400 -1.4104  1.0458
16224TIP3   OH270086   1.454   2.401  14.823  0.1735  0.1147 -0.5326
16224TIP3    H170087   1.359   2.388  14.819  0.1430 -0.2477  0.7788
16224TIP3    H270088   1.487   2.361  14.743 -0.6420 -1.3006 -0.2104
16225TIP3   OH270089   1.201   6.172   4.337 -0.4908 -0.2417 -0.1985
16225TIP3    H170090   1.171   6.226   4.410  2.9131  0.6300  0.7696
16225TIP3    H270091   1.225   6.088   4.377  1.0152  0.1069 -0.2892
16226TIP3   OH270092   1.411   2.504   2.197  0.0591 -0.9804  0.1168
16226TIP3    H170093   1.432   2.587   2.240  1.3782 -0.8008 -0.8189
16226TIP3    H270094   1.331   2.474   2.240  0.2902  0.1255  1.3665
16227TIP3   OH270095   1.285   4.840   4.383  0.2612  0.2069  0.0951
16227TIP3    H170096   1.311   4.872   4.296  0.7299 -2.1974 -0.7159
16227TIP3    H270097   1.362   4.795   4.416 -0.4551 -0.3483  1.0450
16228TIP3   OH270098   3.110   2.282  12.817 -0.2986  0.4755  0.0100
16228TIP3    H170099   3.049   2.354  12.804 -0.8028 -0.2062 -1.4984
16228TIP3    H270100   3.089   2.250  12.905 -0.5180  1.7144  0.4398
16229TIP3   OH270101   3.658   0.676   0.183 -0.2988  1.0369 -0.4122
16229TIP3    H170102   3.750   0.704   0.188  0.0806 -0.0995 -0.6562
16229TIP3    H270103   3.638   0.678   0.089 -0.1217  0.0770 -0.4770
16230TIP3   OH270104   1.845   6.508   5.762 -0.1196 -0.1146  0.0830
16230TIP3    H170105   1.937   6.534   5.771 -0.3886  0.4072  1.7998
16230TIP3    H270106   1.815   6.552   5.683  0.7064  1.0130  0.3640
16231TIP3   OH270107   2.493   1.201  13.403 -0.2221  0.6525  0.3938
16231TIP3    H170108   2.457   1.270  13.460 -1.1286  0.4514  0.0914
16231TIP3    H270109   2.445   1.122  13.428 -0.1634  0.4262 -0.2021
16232TIP3   OH270110   5.352   3.296   0.679  0.0627 -0.1823  0.2948
16232TIP3    H170111   5.269   3.288   0.633  0.6810 -0.7380 -0.7567
16232TIP3    H270112   5.419   3.278   0.613  1.1092  1.8114  0.7357
16233TIP3   OH270113   3.457   5.052   4.546  0.3463 -0.0089  0.6551
16233TIP3    H170114   3.395   4.995   4.502  0.6499 -0.0765  0.3108
16233TIP3    H270115   3.423   5.140   4.533  0.6532  0.0055 -0.0715
16234TIP3   OH270116   0.544   0.563   4.334  0.3112  0.0863 -0.4214
16234TIP3    H170117   0.523   0.589   4.244 -1.9432  0.2734  0.1027
16234TIP3    H270118   0.462   0.527   4.368  1.7665 -2.3995  0.7562
16235TIP3   OH270119   4.521   6.238  13.159 -0.4873  0.0805  0.5482
16235TIP3    H170120   4.610   6.249  13.190 -1.1513  1.6646  2.0539
16235TIP3    H270121   4.517   6.291  13.079 -0.2337  0.5035  0.8120
16236TIP3   OH270122   2.546   2.659  16.721  0.1886  0.1495 -0.1822
16236TIP3    H170123   2.632   2.682  16.686  0.4929 -0.9110 -0.1691
16236TIP3    H270124   2.512   2.594  16.659 -0.0170 -0.4376  0.5338
16237TIP3   OH270125   4.330   5.629   0.788  0.4602 -0.2902  0.1334
16237TIP3    H170126   4.359   5.596   0.873  1.6202  1.3196  0.4213
16237TIP3    H270127   4.402   5.685   0.759 -1.9364  3.2901  0.4637
16238TIP3   OH270128   0.773   3.348   0.007 -0.2939 -0.0634  0.2277
16238TIP3    H170129   0.823   3.336  -0.074  1.1991 -2.5315  1.4272
16238TIP3    H270130   0.835   3.388   0.068 -0.5605 -0.7943  0.9899
16239TIP3   OH270131   2.785   3.589   2.702  0.2247  1.0253  0.6511
16239TIP3    H170132   2.713   3.646   2.729  0.0529  0.7338  0.8048
16239TIP3    H270133   2.830   3.567   2.783 -0.5958 -0.2641  0.7889
16240TIP3   OH270134   0.788   3.831   0.938 -0.3535 -0.3152 -0.6844
16240TIP3    H170135   0.771   3.747   0.980  0.8488 -0.5843 -0.6902
16240TIP3    H270136   0.753   3.896   0.998  0.2723 -0.7528  0.1854
16241TIP3   OH270137   2.968   1.948   5.433 -0.6543  0.0289 -0.0495
16241TIP3    H170138   2.941   2.040   5.428 -0.1245  0.2904  1.5252
16241TIP3    H270139   2.889   1.899   5.413 -0.9199  0.8152 -1.0236
16242TIP3   OH270140   0.487   6.539   6.589 -0.4840 -0.1802  0.3629
16242TIP3    H170141   0.488   6.569   6.680 -2.3315  1.4396 -0.0753
16242TIP3    H270142   0.461   6.447   6.594  0.6981 -0.4827  1.5111
16243TIP3   OH270143   5.015   2.440   0.678 -0.0391 -0.2147  0.5097
16243TIP3    H170144   5.089   2.408   0.730 -0.2599 -1.9716 -0.1977
16243TIP3    H270145   4.966   2.496   0.739  2.2428  1.6202  0.7643
16244TIP3   OH270146   2.769   6.536  11.946  0.1794 -0.7772  0.7238
16244TIP3    H170147   2.782   6.442  11.962 -0.6049 -0.7694  1.4940
16244TIP3    H270148   2.853   6.576  11.966  0.2730 -1.2234  1.2510
16245TIP3   OH270149   6.153   6.037  16.003  0.2646 -0.6960 -0.0671
16245TIP3    H170150   6.219   5.975  16.036  1.8881  1.5934  1.3132
16245TIP3    H270151   6.198   6.086  15.935  0.0773  0.9487  0.9358
16246TIP3   OH270152   5.894   6.648  15.179 -0.0319  0.6947  0.6956
16246TIP3    H170153   5.816   6.676  15.226 -0.4118 -0.3916  0.7436
16246TIP3    H270154   5.862   6.584  15.115  0.6238  1.3186 -0.2968
16247TIP3   OH270155   0.812   1.249   6.352  0.8223  0.3358 -0.4145
16247TIP3    H170156   0.907   1.242   6.368  0.7526  2.2492  1.2015
16247TIP3    H270157   0.803   1.325   6.294  0.2093  0.6901  0.1415
16248TIP3   OH270158   6.507   5.409   3.613  0.1052  0.3214  0.3692
16248TIP3    H170159   6.552   5.388   3.531 -0.4817 -1.0996  0.3708
16248TIP3    H270160   6.578   5.416   3.678  0.4634 -0.2291  0.0525
16249TIP3   OH270161   1.127   2.823   2.833  0.1022 -0.1165  0.4033
16249TIP3    H170162   1.153   2.779   2.752  1.3368  0.9941  0.1772
16249TIP3    H270163   1.045   2.779   2.858  0.2874 -1.2300 -0.8304
16250TIP3   OH270164   3.885   3.195   3.587 -0.0980 -0.6884  0.6639
16250TIP3    H170165   3.866   3.152   3.504 -1.1820 -0.6987  0.9110
16250TIP3    H270166   3.815   3.259   3.598 -0.1250 -0.8844  1.7015
16251TIP3   OH270167   4.664   4.397   1.864 -0.2776 -0.6700  0.5768
16251TIP3    H170168   4.730   4.466   1.858 -0.9393 -0.0295  0.5303
16251TIP3    H270169   4.715   4.317   1.873  0.5977 -0.4844 -1.7956
16252TIP3   OH270170   6.370   0.569   0.250  0.2439 -0.1926 -0.0303
16252TIP3    H170171   6.340   0.479   0.261 -0.2857 -0.2245 -1.4929
16252TIP3    H270172   6.351   0.589   0.159  1.9226  0.8345 -0.1934
16253TIP3   OH270173   1.713   1.636  16.635 -0.3732 -0.2211  0.7599
16253TIP3    H170174   1.704   1.595  16.721 -4.4331 -0.9046  0.2293
16253TIP3    H270175   1.696   1.566  16.572  2.7691  0.1940 -0.7406
16254TIP3   OH270176   1.891   0.682  14.002 -0.0698  0.2164 -0.7868
16254TIP3    H170177   1.907   0.639  14.086  0.7828  1.5473 -0.2384
16254TIP3    H270178   1.847   0.615  13.949 -2.3773 -0.0613  1.3188
16255TIP3   OH270179   2.287   3.030   2.210  0.2055  0.5715 -0.2599
16255TIP3    H170180   2.219   2.987   2.159 -0.0853 -0.1280  0.6739
16255TIP3    H270181   2.266   3.007   2.301  1.2280  1.0110  0.0997
16256TIP3   OH270182   5.223   0.141   1.343  0.2478  0.5311 -0.1197
16256TIP3    H170183   5.237   0.202   1.415 -1.0536  0.2036  0.4443
16256TIP3    H270184   5.128   0.126   1.342  0.2351  0.4445 -1.8317
16257TIP3   OH270185   5.438   2.869  15.691 -0.6737 -0.2148  0.3896
16257TIP3    H170186   5.395   2.784  15.703  0.1163 -0.9445 -1.4750
16257TIP3    H270187   5.527   2.856  15.722 -0.4953 -0.1471 -0.0758
16258TIP3   OH270188   0.871   5.297   4.636 -0.0873  0.1727 -0.4549
16258TIP3    H170189   0.809   5.352   4.684  0.9391  0.9528  0.0213
16258TIP3    H270190   0.889   5.224   4.694  0.7261  0.8256  0.1217
16259TIP3   OH270191   2.970   0.234   4.916 -0.1543 -0.5541  0.0498
16259TIP3    H170192   2.886   0.266   4.882 -0.5713 -2.3786 -0.8106
16259TIP3    H270193   2.967   0.252   5.010 -0.1095  2.2580 -0.4261
16260TIP3   OH270194   6.431   0.494  13.053 -0.0111 -0.9013 -0.0193
16260TIP3    H170195   6.464   0.412  13.016 -2.2187 -0.6249 -2.9854
16260TIP3    H270196   6.376   0.467  13.126  0.9633 -1.8773  0.3733
16261TIP3   OH270197   1.134   6.356   1.356  0.3693 -0.2930  0.3290
16261TIP3    H170198   1.158   6.368   1.264 -2.7175 -0.7842 -0.6604
16261TIP3    H270199   1.150   6.263   1.372  1.0848 -0.1695  0.3741
16262TIP3   OH270200   3.691   4.275  11.730 -0.2328  0.7821  0.0580
16262TIP3    H170201   3.640   4.214  11.677 -0.0643  1.1152 -0.5062
16262TIP3    H270202   3.680   4.360  11.686 -1.8289  1.5197  1.7667
16263TIP3   OH270203   0.972   5.234   4.091 -0.3999  0.1162 -0.0319
16263TIP3    H170204   0.942   5.249   4.181 -1.5280 -2.8151  0.2110
16263TIP3    H270205   1.050   5.179   4.100 -1.6235 -1.8750 -0.7576
16264TIP3   OH270206   1.562   2.560   5.150  0.0498 -0.0781  0.1066
16264TIP3    H170207   1.553   2.653   5.173 -1.9413 -0.1383 -0.2422
16264TIP3    H270208   1.634   2.557   5.088 -0.5053  1.3968 -0.6489
16265TIP3   OH270209   4.059   1.515   1.129  0.0618 -0.3772 -0.0353
16265TIP3    H170210   4.091   1.435   1.088  1.8367 -1.0914  2.5486
16265TIP3    H270211   4.039   1.491   1.219  0.3403  1.9750  0.7423
16266TIP3   OH270212   1.111   5.472  16.195 -0.3335 -0.1316 -0.2554
16266TIP3    H170213   1.042   5.407  16.180  1.8247 -2.5833 -0.3232
16266TIP3    H270214   1.115   5.523  16.114 -0.9492 -1.0706 -0.8958
16267TIP3   OH270215   2.381   0.952  12.697  0.0914 -0.1346  0.0846
16267TIP3    H170216   2.288   0.965  12.714 -0.1707 -0.9370 -0.6913
16267TIP3    H270217   2.424   1.025  12.743 -0.7164 -1.0163  2.3669
16268TIP3   OH270218   3.847   3.390   5.028  0.1553 -0.4108  0.9318
16268TIP3    H170219   3.783   3.362   4.963  0.1075 -2.5476  1.8138
16268TIP3    H270220   3.895   3.460   4.986 -0.4585 -1.1290 -1.0772
16269TIP3   OH270221   1.325   4.696   1.993 -0.0349  0.5087  0.1972
16269TIP3    H170222   1.236   4.674   2.020  0.2224 -0.2867  0.4354
16269TIP3    H270223   1.380   4.656   2.060  0.5593 -0.1471 -0.6664
16270TIP3   OH270224   1.467   1.654  14.362  0.0583 -0.6661  0.2117
16270TIP3    H170225   1.470   1.615  14.449 -3.5554 -1.3843  0.1620
16270TIP3    H270226   1.478   1.580  14.302 -0.9587 -0.7663  0.1213
16271TIP3   OH270227   4.364   5.673   3.122  0.4198  0.2538 -0.3027
16271TIP3    H170228   4.338   5.631   3.040  1.3523  0.4641 -0.7179
16271TIP3    H270229   4.281   5.697   3.164 -0.1391 -1.6878 -0.2058
16272TIP3   OH270230   0.932   4.705   5.787 -0.4117  0.1554 -0.0780
16272TIP3    H170231   0.980   4.700   5.870 -1.5656 -2.9326  0.5339
16272TIP3    H270232   0.860   4.765   5.805  0.6412  1.3323  0.3803
16273TIP3   OH270233   4.680   5.546  15.527 -0.3037  0.1878  0.1991
16273TIP3    H170234   4.624   5.522  15.453 -1.3292 -0.8116  1.2511
16273TIP3    H270235   4.671   5.641  15.534  0.0726  0.3446 -1.1392
16274TIP3   OH270236   4.153   4.570  14.111  0.3589 -0.0139 -0.0649
16274TIP3    H170237   4.148   4.660  14.144 -2.9780  0.2576 -0.9545
16274TIP3    H270238   4.098   4.519  14.171  0.2459 -0.9612 -0.9403
16275TIP3   OH270239   1.069   2.100   4.306 -0.0142 -0.0563  0.1412
16275TIP3    H170240   1.028   2.046   4.373  1.1150 -1.4964 -0.2839
16275TIP3    H270241   0.996   2.136   4.256 -0.8306  0.1787  1.4662
16276TIP3   OH270242   2.813   0.628  13.330 -0.8613  0.7045  0.6728
16276TIP3    H170243   2.868   0.609  13.406 -0.6176  0.4609  0.4367
16276TIP3    H270244   2.849   0.709  13.294  0.9073 -0.7107 -0.9083
16277TIP3   OH270245   0.593   2.394   3.411 -0.1332 -0.3147  0.2876
16277TIP3    H170246   0.564   2.480   3.380 -1.8216 -0.6965  0.7363
16277TIP3    H270247   0.542   2.332   3.360  2.8563 -1.2090 -1.8613
16278TIP3   OH270248   4.437   5.781  14.082 -0.1247  0.0785  0.1971
16278TIP3    H170249   4.474   5.757  13.997  0.6993 -0.2787  0.6403
16278TIP3    H270250   4.379   5.709  14.105 -0.7065  0.3945 -0.2673
16279TIP3   OH270251   3.658   6.136   0.237  0.7527  0.5296 -0.2466
16279TIP3    H170252   3.627   6.086   0.161  0.8114 -0.0003  0.0765
16279TIP3    H270253   3.750   6.153   0.219  1.2770 -1.2496  0.5689
16280TIP3   OH270254   0.874   5.301   5.333 -0.3306 -0.4626 -0.1027
16280TIP3    H170255   0.795   5.260   5.369  0.5399 -0.9458  1.3614
16280TIP3    H270256   0.887   5.379   5.386  0.6314 -0.8493  0.2617
16281TIP3   OH270257   0.935   0.800   1.733  0.6957 -0.3700  0.6579
16281TIP3    H170258   0.916   0.708   1.719  0.3236 -0.3318  0.8931
16281TIP3    H270259   0.870   0.846   1.680 -0.1008 -0.2335  1.7122
16282TIP3   OH270260   6.178   0.831  15.842  0.1087  0.6995  0.2767
16282TIP3    H170261   6.165   0.822  15.936 -0.1115 -1.1309  0.1183
16282TIP3    H270262   6.190   0.741  15.811  1.0647  1.3336 -1.3231
16283TIP3   OH270263   1.898   5.734   0.976 -0.2113  0.2724  0.1875
16283TIP3    H170264   1.812   5.694   0.968  0.1393 -0.5814  0.5510
16283TIP3    H270265   1.946   5.676   1.036  1.4886 -0.7776 -2.0559
16284TIP3   OH270266   2.929   2.544  14.876  0.3738  0.0724 -0.6648
16284TIP3    H170267   3.021   2.552  14.898 -0.0623  1.4945  0.8858
16284TIP3    H270268   2.909   2.451  14.886  1.2057  0.0448  0.9851
16285TIP3   OH270269   3.759   3.024  15.654  0.3078 -0.2007  0.0488
16285TIP3    H170270   3.745   3.041  15.747  0.8869  1.0095 -0.0575
16285TIP3    H270271   3.718   2.939  15.638  2.1603 -1.5446  1.8862
16286TIP3   OH270272   2.189   6.115  13.885 -0.6624 -0.3187  0.2777
16286TIP3    H170273   2.206   6.093  13.794 -0.4663 -0.5852  0.3769
16286TIP3    H270274   2.135   6.043  13.917 -1.4240  0.1867  0.1486
16287TIP3   OH270275   1.963   1.614  14.036  0.0396  0.0335  0.3456
16287TIP3    H170276   2.053   1.588  14.055  0.4583  0.6920 -0.6749
16287TIP3    H270277   1.918   1.606  14.120  0.7868 -1.3167  0.6491
16288TIP3   OH270278   6.772   5.045  13.924 -0.1984 -0.7865  0.2181
16288TIP3    H170279   6.758   5.126  13.974 -0.3758 -1.2247  0.8991
16288TIP3    H270280   6.711   4.983  13.964 -2.1819 -0.5192 -2.1357
16289TIP3   OH270281   3.101   2.764  10.916  0.0926 -0.2726  0.2124
16289TIP3    H170282   3.104   2.736  11.008 -2.0415 -1.2126  0.0597
16289TIP3    H270283   3.095   2.683  10.866  0.7091  0.2495 -0.7445
16290TIP3   OH270284   5.147   1.331  12.478  0.6092  1.0910  0.1580
16290TIP3    H170285   5.105   1.321  12.563  0.0207 -2.2435 -0.4005
16290TIP3    H270286   5.222   1.271  12.481  0.5497  0.8666 -1.6594
16291TIP3   OH270287   5.583   2.093   0.127 -0.4683  0.4790  0.3288
16291TIP3    H170288   5.671   2.130   0.130  0.2876 -1.2414  0.2657
16291TIP3    H270289   5.559   2.081   0.219  0.2066 -0.9320  0.3359
16292TIP3   OH270290   5.974   6.222  13.691 -0.0414  0.3638 -0.4878
16292TIP3    H170291   5.885   6.209  13.723 -0.6811  0.7563 -1.9783
16292TIP3    H270292   5.975   6.312  13.660  0.9748  0.4546 -0.2243
16293TIP3   OH270293   5.383   5.338   1.555  0.5876  0.1038 -0.2031
16293TIP3    H170294   5.322   5.404   1.590  1.5167  1.0538 -0.3122
16293TIP3    H270295   5.438   5.387   1.493  1.6475 -0.6501  0.1159
16294TIP3   OH270296   4.433   4.949   2.470 -0.5844  0.4470  0.1590
16294TIP3    H170297   4.418   4.902   2.552 -1.2035  2.8258  1.4846
16294TIP3    H270298   4.346   4.958   2.431 -0.6516  1.5820  0.5568
16295TIP3   OH270299   6.377   6.546   6.255 -0.2451  0.1978 -0.4545
16295TIP3    H170300   6.409   6.456   6.247  0.4073  0.3754  0.0202
16295TIP3    H270301   6.323   6.560   6.177 -0.3577 -0.6041 -0.5295
16296TIP3   OH270302   1.603   2.091  12.887  0.2413  0.5655  0.1778
16296TIP3    H170303   1.570   2.169  12.842  0.9461  1.3448  0.9592
16296TIP3    H270304   1.632   2.124  12.973  3.1810  0.0041 -0.5030
16297TIP3   OH270305   4.511   4.698   3.045  0.3839  0.2412  0.0909
16297TIP3    H170306   4.526   4.606   3.067  0.2045  0.4021  0.9211
16297TIP3    H270307   4.461   4.732   3.119  0.3846  0.9868 -0.2489
16298TIP3   OH270308   0.340   5.731  13.711  0.5599 -0.1214  0.2568
16298TIP3    H170309   0.348   5.826  13.716 -0.1630  0.1738 -2.4645
16298TIP3    H270310   0.247   5.714  13.724  0.3539 -0.2252 -1.2072
16299TIP3   OH270311   0.142   2.845  12.225  0.0023  0.0724 -0.4478
16299TIP3    H170312   0.134   2.776  12.290 -1.3013  0.3218 -0.3203
16299TIP3    H270313   0.101   2.921  12.265 -0.3333  0.3781 -1.3488
16300TIP3   OH270314   2.215   4.307  16.295  0.2117 -0.1819 -0.1677
16300TIP3    H170315   2.290   4.341  16.344 -1.1946 -0.0992  2.0687
16300TIP3    H270316   2.219   4.212  16.307  0.2443 -0.2185 -0.4672
16301TIP3   OH270317   6.231   4.468   1.071  0.3313 -0.5760  0.2508
16301TIP3    H170318   6.144   4.478   1.110  0.3984 -0.9907  0.5042
16301TIP3    H270319   6.213   4.443   0.980  0.1680  0.8242 -0.1368
16302TIP3   OH270320   2.654   3.013   0.022 -0.2700 -0.0455 -0.0550
16302TIP3    H170321   2.649   3.100  -0.017 -0.9982  0.0417  0.2122
16302TIP3    H270322   2.746   3.001   0.043 -0.1125  0.5241 -0.4006
16303TIP3   OH270323   6.271   1.554  13.242  0.2236 -0.0641  0.0038
16303TIP3    H170324   6.250   1.481  13.301  3.4275 -1.4646 -0.3907
16303TIP3    H270325   6.343   1.600  13.285 -0.3624  1.6577 -0.7675
16304TIP3   OH270326   6.669   6.038  14.521 -0.2216 -0.2081  0.1113
16304TIP3    H170327   6.580   6.044  14.554 -0.8937  1.2726 -1.7874
16304TIP3    H270328   6.673   6.103  14.450  1.3606 -2.4676 -2.0515
16305TIP3   OH270329   0.810   1.942   2.779  0.0024 -0.3309 -0.7943
16305TIP3    H170330   0.750   1.999   2.730 -0.1443 -1.4381 -1.9365
16305TIP3    H270331   0.890   1.941   2.726  0.1231 -0.9098 -0.6059
16306TIP3   OH270332   6.711   3.411  13.229 -0.3578 -0.1418 -1.0912
16306TIP3    H170333   6.703   3.318  13.209 -1.2961 -1.2332  3.2274
16306TIP3    H270334   6.621   3.441  13.242  0.0310  0.8197 -0.4975
16307TIP3   OH270335   2.555   5.925  14.828 -0.1854  0.2853  0.7908
16307TIP3    H170336   2.470   5.924  14.784  0.1653  3.4866 -0.1682
16307TIP3    H270337   2.541   5.979  14.906  0.9310  0.6546  0.7486
16308TIP3   OH270338   4.782   5.095  14.374  0.1112  0.6282  0.2480
16308TIP3    H170339   4.852   5.059  14.319 -0.3013  1.0087 -0.5373
16308TIP3    H270340   4.826   5.119  14.455  0.2161 -2.7397  1.3289
16309TIP3   OH270341   4.046   1.329  15.370 -0.2500  0.6025 -0.0530
16309TIP3    H170342   3.980   1.378  15.418 -0.6551  1.7358 -1.6659
16309TIP3    H270343   3.995   1.275  15.309  0.2644  1.4870 -1.3093
16310TIP3   OH270344   1.055   6.430  16.418  0.3958  0.0939 -0.3117
16310TIP3    H170345   1.036   6.441  16.325 -0.5728  0.8833 -0.0455
16310TIP3    H270346   1.002   6.356  16.445 -0.2332  0.5881 -0.1562
16311TIP3   OH270347   6.259   4.510  13.714  0.3352 -0.0097  0.0360
16311TIP3    H170348   6.350   4.532  13.694  1.0656 -0.9559  2.0741
16311TIP3    H270349   6.240   4.434  13.658  0.3462  0.9134 -1.2816
16312TIP3   OH270350   2.019   6.058   4.011 -0.3064  0.2270  0.3724
16312TIP3    H170351   2.055   6.079   3.925 -0.1735 -1.7639 -0.0967
16312TIP3    H270352   2.095   6.046   4.067 -0.3583  0.3028  0.4592
16313TIP3   OH270353   4.957   3.155  14.430  0.6044 -0.4069 -0.3412
16313TIP3    H170354   5.007   3.100  14.491 -0.8803 -1.5085 -0.0637
16313TIP3    H270355   5.011   3.233  14.420  1.9854 -1.1784  0.5862
16314TIP3   OH270356   3.606   5.691  15.471  0.3420  0.1004  0.2744
16314TIP3    H170357   3.513   5.680  15.452 -0.0891 -1.4334  2.7477
16314TIP3    H270358   3.630   5.611  15.517  2.0429  1.8168  2.5859
16315TIP3   OH270359   1.903   4.093  11.873 -0.3270 -1.0682 -0.7033
16315TIP3    H170360   1.970   4.143  11.921 -0.3337 -0.7284 -1.0421
16315TIP3    H270361   1.821   4.117  11.917 -0.2993 -0.9900 -0.6929
16316TIP3   OH270362   5.584   2.695   2.530 -0.2971 -0.4212 -0.9915
16316TIP3    H170363   5.569   2.601   2.530  2.8335 -1.0719  0.8665
16316TIP3    H270364   5.560   2.724   2.618 -0.3870  0.3561 -1.2576
16317TIP3   OH270365   5.846   5.748  13.701 -0.0369  0.0621  0.2387
16317TIP3    H170366   5.753   5.765  13.684  0.2304  2.2012  0.6371
16317TIP3    H270367   5.875   5.823  13.753  1.9164 -0.5759  0.1414
16318TIP3   OH270368   2.147   6.140   5.163 -0.0974  0.1666  0.7774
16318TIP3    H170369   2.215   6.186   5.114 -0.5337 -1.8472 -1.9586
16318TIP3    H270370   2.085   6.209   5.190  0.4094  1.4520 -1.1536
16319TIP3   OH270371   5.228   3.036  14.149  0.8046 -0.4891  0.3752
16319TIP3    H170372   5.314   3.076  14.160  1.0318 -1.2343  1.4325
16319TIP3    H270373   5.166   3.107  14.166  1.2003  0.0338 -0.3207
16320TIP3   OH270374   0.319   4.101   4.943 -0.0591  0.0122  0.4666
16320TIP3    H170375   0.230   4.133   4.956 -0.6338 -0.5207 -1.7069
16320TIP3    H270376   0.326   4.026   5.002 -0.8912  0.3056  0.9665
16321TIP3   OH270377   5.088   0.326   3.958 -0.2955  0.0375 -0.3957
16321TIP3    H170378   5.150   0.399   3.962 -0.5744  0.6104 -3.7991
16321TIP3    H270379   5.002   0.367   3.968 -0.3367 -0.5484  2.5657
16322TIP3   OH270380   1.775   1.536  15.497  0.3075 -0.7432 -0.1716
16322TIP3    H170381   1.687   1.501  15.479 -0.6588  0.8967  1.0170
16322TIP3    H270382   1.764   1.585  15.578  2.3826 -0.5753  0.0456
16323TIP3   OH270383   1.196   0.024  13.969 -0.4891 -0.0160 -0.2967
16323TIP3    H170384   1.149  -0.058  13.980  0.3465 -0.5830 -0.7971
16323TIP3    H270385   1.160   0.063  13.890  0.6723 -1.0413 -1.3785
16324TIP3   OH270386   5.139   0.492   1.875  0.2382 -0.0768 -0.1006
16324TIP3    H170387   5.223   0.460   1.906  0.5017  0.8830  0.2248
16324TIP3    H270388   5.107   0.548   1.946  0.1371  0.9238 -0.9057
16325TIP3   OH270389   0.488   2.535  15.864  0.5294 -0.1554 -0.1683
16325TIP3    H170390   0.540   2.577  15.932 -1.1633 -0.1887  1.2319
16325TIP3    H270391   0.438   2.468  15.911 -0.4907 -0.3510 -1.4885
16326TIP3   OH270392   5.669   5.676   1.373  0.1020  0.4504 -0.3837
16326TIP3    H170393   5.604   5.698   1.440 -0.7099 -0.1486 -0.9453
16326TIP3    H270394   5.640   5.722   1.294  1.0844  1.2009 -0.3279
16327TIP3   OH270395   4.335   1.553   3.968  0.0242  0.2011 -0.2526
16327TIP3    H170396   4.385   1.634   3.981  1.8951 -1.0354  0.5444
16327TIP3    H270397   4.359   1.525   3.880 -0.7362  0.5495 -0.5840
16328TIP3   OH270398   6.366   2.755   4.511 -0.3834 -0.1197  0.4705
16328TIP3    H170399   6.378   2.825   4.574  1.4095  0.7263 -0.7253
16328TIP3    H270400   6.427   2.687   4.538  0.2945  0.1907 -0.2477
16329TIP3   OH270401   5.214   2.521  13.320 -0.7571 -0.3481  0.3022
16329TIP3    H170402   5.258   2.436  13.309 -2.1327 -1.0740  0.0972
16329TIP3    H270403   5.240   2.550  13.407  0.1164 -0.7512  0.1846
16330TIP3   OH270404   2.731   2.780   1.684 -0.2226 -0.8270 -0.2860
16330TIP3    H170405   2.771   2.821   1.608 -0.5419 -1.3656 -0.7552
16330TIP3    H270406   2.781   2.700   1.697 -1.2479 -1.6268 -1.0176
16331TIP3   OH270407   2.889   1.007   3.365 -0.0928 -0.6993 -0.3583
16331TIP3    H170408   2.796   0.984   3.364  0.0435 -1.2680 -0.4556
16331TIP3    H270409   2.926   0.958   3.291 -0.1404  1.4207 -1.8864
16332TIP3   OH270410   4.333   0.334  12.340  0.0253  0.1482 -0.5476
16332TIP3    H170411   4.349   0.426  12.317  1.1426  0.2343  0.4800
16332TIP3    H270412   4.359   0.328  12.432 -0.8059 -1.0234 -0.3693
16333TIP3   OH270413   5.553   0.455  15.097 -0.0597 -0.4679 -0.5984
16333TIP3    H170414   5.506   0.443  15.015  1.6065  0.8471 -1.8316
16333TIP3    H270415   5.558   0.550  15.108  0.2139 -0.6204  0.7522
16334TIP3   OH270416   4.120   2.429   3.672 -0.0946 -0.2329 -0.2216
16334TIP3    H170417   4.130   2.424   3.577 -2.4463 -0.7174 -0.5034
16334TIP3    H270418   4.166   2.352   3.706 -0.0866 -0.6047 -1.0698
16335TIP3   OH270419   2.082   5.070   4.382 -0.0345  0.0137  0.4634
16335TIP3    H170420   2.028   5.044   4.457 -0.5811  1.3727  0.5705
16335TIP3    H270421   2.156   5.117   4.421  0.6385 -0.8473  0.2456
16336TIP3   OH270422   3.642   3.803   0.243 -0.3854  0.1780  0.2054
16336TIP3    H170423   3.608   3.768   0.326  1.8162 -1.0659  0.6496
16336TIP3    H270424   3.717   3.748   0.223  0.4863  1.8820 -1.4890
16337TIP3   OH270425   2.949   2.565  15.416  0.3258  0.8580 -0.3170
16337TIP3    H170426   2.885   2.596  15.352  0.3029  1.3209 -0.0699
16337TIP3    H270427   3.024   2.623  15.407 -0.1390  1.6996  0.8951
16338TIP3   OH270428   4.734   0.550   1.732 -0.1803 -0.1122  0.4273
16338TIP3    H170429   4.741   0.529   1.639 -0.7989  0.1616  0.3165
16338TIP3    H270430   4.813   0.513   1.771  0.8517  1.0802 -0.4505
16339TIP3   OH270431   3.656   0.205  13.291  0.5953  0.1955  0.8112
16339TIP3    H170432   3.649   0.121  13.336  3.7214 -0.6085  0.0184
16339TIP3    H270433   3.743   0.238  13.314  0.5629  1.8430 -1.1443
16340TIP3   OH270434   4.496   5.377   3.731 -0.0415  0.1074  0.1136
16340TIP3    H170435   4.416   5.339   3.767 -0.6871  0.6676 -0.6846
16340TIP3    H270436   4.545   5.406   3.808 -0.3962 -0.6210  0.6364
16341TIP3   OH270437   2.814   5.258  15.276  0.2607  0.0109 -0.1367
16341TIP3    H170438   2.850   5.195  15.338  0.4337  1.4650  1.3133
16341TIP3    H270439   2.768   5.205  15.212  0.6931 -1.6013  0.8300
16342TIP3   OH270440   5.673   1.369   6.067  0.2542  0.4200  0.1657
16342TIP3    H170441   5.746   1.353   6.127  0.9194 -1.2789 -1.0381
16342TIP3    H270442   5.595   1.344   6.118  0.6984  0.1906  0.7480
16343TIP3   OH270443   0.912   3.427   4.732 -0.6520 -0.4911 -0.1059
16343TIP3    H170444   0.989   3.377   4.760  0.1474  0.2138 -0.9695
16343TIP3    H270445   0.839   3.368   4.747  0.2196 -1.7996 -0.7408
16344TIP3   OH270446   2.111   5.715  15.841 -0.0066  0.2713 -0.0624
16344TIP3    H170447   2.197   5.674  15.836  0.3873  0.9052  1.1755
16344TIP3    H270448   2.111   5.761  15.925 -2.3374 -1.4513  0.9969
16345TIP3   OH270449   0.371   5.047  11.083  0.2566  0.0989 -0.1032
16345TIP3    H170450   0.406   5.106  11.016  0.6623 -0.0731 -0.0439
16345TIP3    H270451   0.278   5.038  11.060 -0.1152  1.7696  0.6337
16346TIP3   OH270452   2.788   3.792  14.413 -0.5306  0.2190  0.3737
16346TIP3    H170453   2.796   3.838  14.330 -1.5412 -0.4215 -0.0946
16346TIP3    H270454   2.850   3.836  14.471  0.8153  0.1229 -0.9470
16347TIP3   OH270455   4.470   2.378   1.259  0.1296 -0.5120 -0.1723
16347TIP3    H170456   4.535   2.323   1.215  0.5327  0.0775 -0.3241
16347TIP3    H270457   4.493   2.467   1.234  0.3802 -0.1501  1.2599
16348TIP3   OH270458   2.243   1.876  14.295 -0.2668  0.0378  0.0945
16348TIP3    H170459   2.194   1.865  14.376 -0.5404 -1.0171 -0.2036
16348TIP3    H270460   2.294   1.796  14.286  0.7157  0.6757 -0.1430
16349TIP3   OH270461   4.843   4.956  12.978 -0.1342 -0.3169  0.0090
16349TIP3    H170462   4.813   5.044  13.003  0.7276  0.1505 -0.5632
16349TIP3    H270463   4.819   4.948  12.886 -1.1469 -1.1044  0.3238
16350TIP3   OH270464   1.026   3.823  11.441  0.1023 -0.4099  0.1663
16350TIP3    H170465   1.005   3.739  11.400 -0.4941  0.2424 -0.8924
16350TIP3    H270466   1.122   3.829  11.435  0.0346 -0.3740 -1.0623
16351TIP3   OH270467   1.565   6.325   3.662  0.3146 -0.0825 -0.3600
16351TIP3    H170468   1.569   6.245   3.715  0.6511 -1.2417 -2.0329
16351TIP3    H270469   1.593   6.395   3.721  0.1598 -1.2105  1.1189
16352TIP3   OH270470   3.512   0.647   5.793  0.2923  0.1308  0.0899
16352TIP3    H170471   3.421   0.671   5.780  0.6297  0.6867 -1.5430
16352TIP3    H270472   3.560   0.700   5.729  1.3907 -2.6497 -1.6194
16353TIP3   OH270473   3.571   2.903  16.992  0.3118 -0.9867 -0.4384
16353TIP3    H170474   3.545   2.993  17.013 -0.9202 -1.3554 -0.3054
16353TIP3    H270475   3.665   2.900  17.013  0.5991  0.5206 -1.3670
16354TIP3   OH270476   0.182   0.940  16.969 -0.4849 -0.2434  0.0800
16354TIP3    H170477   0.134   1.000  16.912  0.0365 -0.6840 -0.8478
16354TIP3    H270478   0.232   0.997  17.027 -0.9323  0.2137  0.0276
16355TIP3   OH270479   4.752   4.664   1.406  0.0375  0.6907  0.1015
16355TIP3    H170480   4.813   4.663   1.480  0.0150  3.4215  0.2356
16355TIP3    H270481   4.736   4.756   1.388 -1.3903  0.0930 -2.1799
16356TIP3   OH270482   0.156   3.118  16.408  0.0813  0.3291 -0.0018
16356TIP3    H170483   0.103   3.050  16.366 -0.9284  0.0055  1.6995
16356TIP3    H270484   0.242   3.077  16.419  0.1063  0.1090 -0.8878
16357TIP3   OH270485   6.306   6.545  12.393  0.0616 -0.0265 -0.1443
16357TIP3    H170486   6.241   6.587  12.335 -0.4993 -2.3024 -1.2641
16357TIP3    H270487   6.382   6.603  12.389 -1.3567  1.9630  0.0455
16358TIP3   OH270488   5.034   3.340  11.857  0.5897  0.3497 -0.1429
16358TIP3    H170489   5.031   3.352  11.762  0.5418  0.1959 -0.1607
16358TIP3    H270490   5.108   3.394  11.886  1.0647 -0.1749 -0.3552
16359TIP3   OH270491   3.986   4.575  12.706 -0.2613 -0.3002  0.4289
16359TIP3    H170492   3.896   4.543  12.709 -0.6723  0.6506 -0.9038
16359TIP3    H270493   4.031   4.514  12.649 -0.3784 -0.0663  0.0819
16360TIP3   OH270494   0.353   3.066   6.141  0.1234 -0.1942  0.0741
16360TIP3    H170495   0.372   3.118   6.219  1.9109  2.2659 -1.8422
16360TIP3    H270496   0.420   2.998   6.140  0.3686  0.0388  0.4450
16361TIP3   OH270497   5.898   2.195  16.254 -0.0139  0.5837  0.1361
16361TIP3    H170498   5.887   2.273  16.199 -1.6390  0.7479  0.6627
16361TIP3    H270499   5.810   2.176  16.287  0.9825  0.9617  3.3282
16362TIP3   OH270500   1.070   6.687   5.082 -0.4269 -0.3400 -0.1541
16362TIP3    H170501   0.982   6.701   5.049 -1.5090 -1.9047  1.8933
16362TIP3    H270502   1.064   6.608   5.136  1.8017  0.5566  1.5551
16363TIP3   OH270503   4.229   3.754   5.240  0.6680 -0.4358  0.5476
16363TIP3    H170504   4.323   3.772   5.246  1.0577 -2.3155  0.9202
16363TIP3    H270505   4.209   3.705   5.320 -0.6583  0.0114  0.5119
16364TIP3   OH270506   3.613   2.603   2.750 -0.1024 -0.3624 -0.1108
16364TIP3    H170507   3.708   2.612   2.739 -0.0162  1.1843  1.4724
16364TIP3    H270508   3.597   2.509   2.744  0.9956 -0.4662 -3.9191
16365TIP3   OH270509   5.941   5.350   0.018 -0.7202  0.2169 -0.6978
16365TIP3    H170510   5.898   5.303   0.089 -0.8953  0.6555 -0.5055
16365TIP3    H270511   6.028   5.372   0.052 -0.5878 -0.0826 -0.8380
16366TIP3   OH270512   0.888   6.381  11.017  0.3454 -0.0458 -0.2532
16366TIP3    H170513   0.888   6.476  11.009 -1.8205  0.0879  0.7230
16366TIP3    H270514   0.980   6.356  11.010  0.9580  2.1212 -0.4396
16367TIP3   OH270515   0.936   1.185   3.507  0.0500  0.0278  0.4171
16367TIP3    H170516   0.872   1.127   3.466 -0.5842 -0.2549  1.7498
16367TIP3    H270517   0.903   1.198   3.596  0.9684  1.2404  0.6106
16368TIP3   OH270518   1.545   3.947   5.323  0.2282  0.1734 -0.5063
16368TIP3    H170519   1.607   3.880   5.295  0.2580  0.0147 -0.0517
16368TIP3    H270520   1.599   4.016   5.361  0.0321 -0.7982  1.6715
16369TIP3   OH270521   3.684   4.712  16.567 -0.0914  0.2933  0.4378
16369TIP3    H170522   3.694   4.618  16.577  1.2343  0.2157 -1.0524
16369TIP3    H270523   3.592   4.725  16.546 -0.2817 -0.6790  0.6421
16370TIP3   OH270524   6.313   2.639   2.155  0.3679 -0.1407 -0.0719
16370TIP3    H170525   6.230   2.648   2.201  0.2441  1.4107 -0.5675
16370TIP3    H270526   6.308   2.552   2.114 -1.3639  0.2504 -0.7811
16371TIP3   OH270527   5.483   2.976  15.202 -0.3291  0.4354 -0.0768
16371TIP3    H170528   5.518   2.930  15.279 -0.1978 -0.1401 -0.4759
16371TIP3    H270529   5.427   3.044  15.239  1.7817  1.8923  0.6240
16372TIP3   OH270530   3.306   2.089   4.682 -0.3263  0.0130 -0.2016
16372TIP3    H170531   3.384   2.068   4.631 -1.0314  2.2087 -2.3563
16372TIP3    H270532   3.234   2.050   4.633 -0.8784  0.8671 -0.0978
16373TIP3   OH270533   6.460   5.090  14.150 -0.0008 -0.4041 -0.9204
16373TIP3    H170534   6.387   5.035  14.121 -0.1971  0.1838 -1.5774
16373TIP3    H270535   6.439   5.114  14.240 -0.1472 -1.0127 -0.7917
16374TIP3   OH270536   0.137   2.090   0.586 -0.7327 -0.7477 -0.1885
16374TIP3    H170537   0.059   2.044   0.554 -1.6291  0.5467  0.0561
16374TIP3    H270538   0.160   2.150   0.516 -0.3276 -0.6816 -0.0018
16375TIP3   OH270539   1.717   1.024  12.373 -0.5266  0.1428  0.1440
16375TIP3    H170540   1.664   1.068  12.306 -0.7529 -1.3333 -0.6920
16375TIP3    H270541   1.790   0.985  12.325 -0.2439 -0.2524  0.8752
16376TIP3   OH270542   5.517   5.047  11.653  0.4089  0.2193  0.1771
16376TIP3    H170543   5.595   4.992  11.641  0.5546  0.3501  0.5047
16376TIP3    H270544   5.453   5.012  11.591  0.6760  0.0093  0.0180
16377TIP3   OH270545   5.214   0.581   0.485  0.0721 -0.1590 -0.4235
16377TIP3    H170546   5.133   0.531   0.483  0.9019 -1.5283 -1.5931
16377TIP3    H270547   5.219   0.616   0.575 -1.6641 -0.2391 -0.2742
16378TIP3   OH270548   2.601   2.847  10.634  0.1382  0.1357  0.7247
16378TIP3    H170549   2.647   2.893  10.704  1.5760  0.0090 -0.1232
16378TIP3    H270550   2.663   2.842  10.562 -0.1439 -2.6002  0.5534
16379TIP3   OH270551   0.383   5.288  11.289 -0.2380 -0.0573  0.6729
16379TIP3    H170552   0.368   5.227  11.217  0.3579  1.4262 -0.7696
16379TIP3    H270553   0.311   5.351  11.283  0.4656  0.7518  0.6461
16380TIP3   OH270554   5.659   2.774  14.619  0.2483 -0.0295  0.2552
16380TIP3    H170555   5.609   2.819  14.551 -3.0491  0.3485  2.6834
16380TIP3    H270556   5.683   2.691  14.579 -0.7893  0.5169 -1.6587
16381TIP3   OH270557   3.088   0.577   5.064  0.1520  0.1597  0.1543
16381TIP3    H170558   3.138   0.500   5.090  2.1548  1.4854  0.4015
16381TIP3    H270559   2.999   0.544   5.050  0.6611 -1.9455  1.4685
16382TIP3   OH270560   1.642   4.685  14.185  0.1778  0.1347 -0.3454
16382TIP3    H170561   1.559   4.717  14.148  0.4863 -0.6383 -1.7751
16382TIP3    H270562   1.699   4.672  14.109  1.8010  1.1180  0.6443
16383TIP3   OH270563   4.340   6.092   4.494 -0.9589 -0.3924 -0.0512
16383TIP3    H170564   4.420   6.075   4.443 -0.4325  1.0280  0.2511
16383TIP3    H270565   4.351   6.041   4.574  0.4680  1.0953  0.7474
16384TIP3   OH270566   0.415   3.597   2.825 -0.1787 -0.1670  0.2008
16384TIP3    H170567   0.503   3.571   2.799  0.0507 -0.4574  1.2222
16384TIP3    H270568   0.428   3.666   2.890 -0.6696 -0.7803  0.9718
16385TIP3   OH270569   1.710   2.997   5.427  0.5185  0.6119 -0.2681
16385TIP3    H170570   1.713   3.093   5.418 -1.2736  0.6754 -0.6438
16385TIP3    H270571   1.626   2.980   5.470  0.8572 -0.7958 -0.1319
16386TIP3   OH270572   4.530   1.232  15.236 -0.1702  0.4143  0.6690
16386TIP3    H170573   4.606   1.222  15.180 -0.0640 -0.2070  0.9216
16386TIP3    H270574   4.553   1.304  15.296 -1.2454  2.8768 -1.6573
16387TIP3   OH270575   5.770   4.499   4.781  0.3261  0.4331 -1.0708
16387TIP3    H170576   5.685   4.528   4.746  1.2061  0.3298 -3.4520
16387TIP3    H270577   5.808   4.578   4.818 -0.5695  0.5940 -0.4476
16388TIP3   OH270578   3.995   2.616   3.314  0.4848 -0.0366 -0.1884
16388TIP3    H170579   3.914   2.571   3.339  1.0018 -0.7401  0.2653
16388TIP3    H270580   3.981   2.708   3.337  0.1320 -0.3000  0.6827
16389TIP3   OH270581   5.178   1.794  15.780 -0.1425  0.1156 -0.0084
16389TIP3    H170582   5.187   1.704  15.747  0.0487  0.2348 -0.2896
16389TIP3    H270583   5.087   1.800  15.809 -0.0732 -0.2590  0.2870
16390TIP3   OH270584   4.434   2.899   2.008  0.0926  0.3749  0.2288
16390TIP3    H170585   4.515   2.877   2.053  0.1142 -0.2554 -0.1100
16390TIP3    H270586   4.388   2.956   2.069  1.1851  1.4842  0.0479
16391TIP3   OH270587   3.077   5.346   4.140 -0.1409 -0.5834 -0.3045
16391TIP3    H170588   3.065   5.417   4.077  0.0509 -0.5373 -0.2886
16391TIP3    H270589   3.079   5.266   4.087  1.8763 -0.4056 -0.5534
16392TIP3   OH270590   0.614   3.301   4.341 -0.3927  0.3453 -0.4124
16392TIP3    H170591   0.543   3.268   4.286 -0.8600  0.9183 -0.1766
16392TIP3    H270592   0.673   3.227   4.353 -1.6239 -0.5272  0.4726
16393TIP3   OH270593   3.056   4.009  13.228  0.2948 -1.1827  0.0724
16393TIP3    H170594   3.127   3.953  13.198  0.1837 -1.2543 -0.0605
16393TIP3    H270595   3.049   4.078  13.163 -0.5520 -1.8531 -0.5751
16394TIP3   OH270596   3.836   5.354   4.668 -0.4802 -0.5602 -0.4186
16394TIP3    H170597   3.844   5.356   4.573  0.0510  0.1516 -0.3623
16394TIP3    H270598   3.926   5.354   4.700 -0.6292  1.2264  0.1111
16395TIP3   OH270599   0.507   1.189  11.739  0.1345  0.2917 -0.3328
16395TIP3    H170600   0.451   1.152  11.807 -1.6073  0.6053 -1.5119
16395TIP3    H270601   0.596   1.173  11.769 -0.5807 -0.8771  1.2976
16396TIP3   OH270602   3.270   4.204   4.734  0.0966 -0.1160  0.0936
16396TIP3    H170603   3.245   4.240   4.819  1.7295  0.7226  0.2566
16396TIP3    H270604   3.286   4.111   4.752 -2.8568 -0.7524 -0.0579
16397TIP3   OH270605   1.425   4.689  12.726 -0.2597 -0.1579 -0.1237
16397TIP3    H170606   1.472   4.629  12.668  1.8075  2.6779 -1.5920
16397TIP3    H270607   1.335   4.658  12.724  0.3576 -2.1241 -2.2419
16398TIP3   OH270608   5.995   2.349   2.821 -0.5158 -0.1475 -0.7370
16398TIP3    H170609   5.925   2.366   2.883 -0.7156  0.2683 -1.0752
16398TIP3    H270610   6.069   2.321   2.876 -0.0534  2.0896 -0.0892
16399TIP3   OH270611   4.209   4.703  16.998  0.1502  0.1493  0.1157
16399TIP3    H170612   4.196   4.758  16.921 -1.1103  0.9703  0.8810
16399TIP3    H270613   4.198   4.762  17.073 -1.0444 -1.0699  0.9588
16400TIP3   OH270614   3.395   3.890   0.180 -0.2272 -0.4639 -0.4056
16400TIP3    H170615   3.484   3.863   0.203 -0.2856 -0.7035 -0.4515
16400TIP3    H270616   3.353   3.907   0.264  0.6890  2.4576 -0.4359
16401TIP3   OH270617   1.577   6.513   2.056 -0.6307  0.6427 -0.2180
16401TIP3    H170618   1.496   6.513   2.006  0.1826 -2.2673 -1.7866
16401TIP3    H270619   1.566   6.443   2.121  0.1258  1.1438  0.4740
16402TIP3   OH270620   4.845   3.341   3.555 -0.0840  0.1408 -0.0746
16402TIP3    H170621   4.921   3.389   3.588 -1.3754  2.3094 -0.0575
16402TIP3    H270622   4.770   3.392   3.585 -1.7607 -3.1606  1.9437
16403TIP3   OH270623   5.075   6.330  14.922  0.1988  0.0103 -0.2767
16403TIP3    H170624   4.995   6.382  14.923  0.1857 -0.0111  0.2018
16403TIP3    H270625   5.045   6.239  14.932  0.1589 -0.1948 -1.9514
16404TIP3   OH270626   4.019   6.438   3.392  0.6086  0.1413 -0.3745
16404TIP3    H170627   4.051   6.462   3.479 -2.3256  0.6562  0.7001
16404TIP3    H270628   3.996   6.521   3.351 -1.2388 -0.2519 -0.2184
16405TIP3   OH270629   2.489   4.921   5.957  0.2685 -0.4486  0.5612
16405TIP3    H170630   2.538   4.950   6.034 -0.3857  0.7738  0.5460
16405TIP3    H270631   2.523   4.974   5.886  1.2485 -1.9510 -0.1292
16406TIP3   OH270632   1.458   4.107   0.169  0.1723 -0.0420 -0.0411
16406TIP3    H170633   1.491   4.184   0.123 -0.5625  0.9933  1.1318
16406TIP3    H270634   1.440   4.044   0.100  1.2855  0.6316 -0.9810
16407TIP3   OH270635   5.383   0.215   4.362  0.0245 -0.4583  0.1049
16407TIP3    H170636   5.400   0.259   4.279  0.6165 -1.1652 -0.1625
16407TIP3    H270637   5.350   0.129   4.337  0.0495 -0.6201  0.6034
16408TIP3   OH270638   6.417   1.866   1.010  0.8157  0.4708  0.1617
16408TIP3    H170639   6.445   1.957   1.017  0.8104  0.4988 -0.1870
16408TIP3    H270640   6.420   1.833   1.100  3.4276  0.0466  0.0126
16409TIP3   OH270641   5.734   6.048  10.967  0.4038 -0.1678  0.1357
16409TIP3    H170642   5.824   6.080  10.971  1.1790 -2.0660 -0.7083
16409TIP3    H270643   5.731   5.994  10.888 -1.5447 -0.0218  0.0536
16410TIP3   OH270644   4.657   1.490   3.583 -0.3223  0.1394 -0.2495
16410TIP3    H170645   4.708   1.535   3.651  0.2450  0.3588 -0.8015
16410TIP3    H270646   4.673   1.397   3.599  0.7810  0.2152 -0.7877
16411TIP3   OH270647   3.381   1.491  15.838  0.1082 -0.0980  0.3529
16411TIP3    H170648   3.289   1.467  15.845  0.1983 -0.9365 -0.9535
16411TIP3    H270649   3.417   1.430  15.774  1.8253 -0.4684  1.6117
16412TIP3   OH270650   5.337   1.175  12.165 -0.5610  0.0961  0.4076
16412TIP3    H170651   5.359   1.179  12.258 -2.2176 -1.6729  0.9497
16412TIP3    H270652   5.243   1.155  12.164 -0.3412 -1.0758 -1.6341
16413TIP3   OH270653   3.993   5.784   1.273  0.1952  0.2592  0.1279
16413TIP3    H170654   4.065   5.721   1.282  1.0898  0.9732 -1.6080
16413TIP3    H270655   4.017   5.856   1.333  0.6612  0.2443 -0.0345
16414TIP3   OH270656   1.438   6.551  13.002 -0.2874  0.2173 -0.5204
16414TIP3    H170657   1.487   6.584  12.927  1.6520 -0.0646  0.5605
16414TIP3    H270658   1.485   6.585  13.078 -1.2470 -0.8345  0.5733
16415TIP3   OH270659   0.624   4.160  12.578 -0.5742  0.0955  0.5704
16415TIP3    H170660   0.643   4.220  12.650 -0.5287 -0.4176  0.9954
16415TIP3    H270661   0.640   4.073  12.615 -0.6629 -0.1799 -0.0276
16416TIP3   OH270662   6.412   1.492  12.613  0.7220 -0.5044 -0.5125
16416TIP3    H170663   6.364   1.519  12.691  0.8765  0.1046 -0.6264
16416TIP3    H270664   6.391   1.399  12.603 -1.1052 -0.0771 -1.0423
16417TIP3   OH270665   4.674   6.604   0.158  0.6745 -0.0160 -0.0973
16417TIP3    H170666   4.642   6.600   0.249  1.3656  0.5723  0.1774
16417TIP3    H270667   4.595   6.609   0.105  0.2230 -1.1967  0.4136
16418TIP3   OH270668   3.720   1.027   2.842  0.9677  0.1508 -0.2819
16418TIP3    H170669   3.722   0.944   2.888  1.4124 -0.0014 -0.5711
16418TIP3    H270670   3.744   1.092   2.908 -1.4641  0.3485  0.5194
16419TIP3   OH270671   1.999   4.494  14.776  0.4331 -0.2417 -0.1835
16419TIP3    H170672   2.029   4.449  14.854  2.5454  0.0131 -0.7843
16419TIP3    H270673   1.977   4.582  14.805  1.5057 -0.0531  0.1069
16420TIP3   OH270674   2.899   1.834   5.008 -0.0075 -0.0337 -0.3341
16420TIP3    H170675   2.959   1.838   5.082 -0.0956  1.0375 -0.3069
16420TIP3    H270676   2.908   1.745   4.974  0.4013 -0.3749  0.6530
16421TIP3   OH270677   1.970   4.462  15.598  0.0699  0.1199 -0.1917
16421TIP3    H170678   1.897   4.407  15.570  1.2532 -0.6840 -1.8976
16421TIP3    H270679   2.030   4.401  15.641  0.9414  0.2287 -1.2170
16422TIP3   OH270680   6.250   3.557   2.489  0.0258 -0.7362  1.1313
16422TIP3    H170681   6.302   3.637   2.498  0.3661 -0.8972  0.6975
16422TIP3    H270682   6.221   3.558   2.397 -0.9473 -0.5274  1.4380
16423TIP3   OH270683   6.071   5.388  12.633 -0.5550  0.2499 -0.1924
16423TIP3    H170684   6.089   5.464  12.577 -3.4738  0.9164 -0.4133
16423TIP3    H270685   5.978   5.371  12.620 -0.5464 -1.8138  1.8224
16424TIP3   OH270686   4.795   0.110  12.487 -0.2077  0.4500 -0.3519
16424TIP3    H170687   4.870   0.063  12.451  0.8360  0.9548  1.0865
16424TIP3    H270688   4.724   0.045  12.487  0.2463 -0.0817 -1.5814
16425TIP3   OH270689   2.689   0.266   1.394 -0.3826  0.0509  0.0020
16425TIP3    H170690   2.661   0.357   1.388 -1.1988 -0.2469 -1.0816
16425TIP3    H270691   2.784   0.270   1.403 -0.1199  0.9850 -2.4617
16426TIP3   OH270692   0.313   3.325   2.308  0.1761  0.0477 -0.5203
16426TIP3    H170693   0.408   3.335   2.301  0.2832 -1.0757 -0.8761
16426TIP3    H270694   0.292   3.355   2.396  0.6359  1.8502 -0.9837
16427TIP3   OH270695   4.535   6.518  11.581 -0.2092  0.0664  0.0765
16427TIP3    H170696   4.527   6.477  11.667 -0.5594 -0.1113 -0.0381
16427TIP3    H270697   4.620   6.489  11.548  0.8311  1.7287  1.1923
16428TIP3   OH270698   4.162   3.359  11.958  0.1518  0.6726  0.0113
16428TIP3    H170699   4.151   3.351  11.863 -0.1309 -0.0834  0.1002
16428TIP3    H270700   4.255   3.381  11.970 -0.0237  1.7713 -0.4791
16429TIP3   OH270701   2.181   1.406   5.476  0.1579  0.0579  0.4463
16429TIP3    H170702   2.160   1.466   5.547 -1.8975  0.3460 -0.3297
16429TIP3    H270703   2.271   1.427   5.452  0.0519  1.6334  1.3381
16430TIP3   OH270704   2.426   1.468  16.203  0.2302 -0.2539  0.1207
16430TIP3    H170705   2.401   1.393  16.149  1.6359 -1.1973  0.7177
16430TIP3    H270706   2.475   1.525  16.144  1.6023 -1.1932  0.2968
16431TIP3   OH270707   5.850   2.893  16.093 -0.4009 -0.1042  0.0590
16431TIP3    H170708   5.920   2.930  16.040 -0.4896  1.9302  1.2803
16431TIP3    H270709   5.843   2.951  16.168 -2.1259 -1.3527  0.9344
16432TIP3   OH270710   3.125   6.114  10.514  0.5040 -0.5464 -0.1502
16432TIP3    H170711   3.068   6.127  10.437 -0.3255  1.4533  0.7391
16432TIP3    H270712   3.083   6.042  10.562 -0.4617 -0.0551 -0.2353
16433TIP3   OH270713   1.479   4.616   5.968  0.4740  0.1217 -0.1130
16433TIP3    H170714   1.558   4.644   5.921  0.3084  0.3296 -0.2696
16433TIP3    H270715   1.408   4.664   5.926  0.4987  1.5660  1.3742
16434TIP3   OH270716   2.220   1.785  11.875  0.0318  0.3987 -0.4213
16434TIP3    H170717   2.311   1.807  11.858  0.5667 -0.9975  0.4431
16434TIP3    H270718   2.203   1.708  11.820 -0.6489  0.6687 -0.6057
16435TIP3   OH270719   5.550   0.453   3.693 -0.0160  0.0985 -0.1123
16435TIP3    H170720   5.599   0.374   3.715  1.7204  1.1140 -0.1290
16435TIP3    H270721   5.610   0.504   3.639 -0.8487  1.6967  0.4127
16436TIP3   OH270722   2.083   3.068   4.848 -0.2319 -0.5156  0.3540
16436TIP3    H170723   2.022   3.142   4.847 -1.3102 -1.3788 -0.5178
16436TIP3    H270724   2.165   3.105   4.881 -1.4579  0.4915  2.5497
16437TIP3   OH270725   5.732   1.884   1.220 -0.0711  0.5574  0.1018
16437TIP3    H170726   5.708   1.873   1.313  0.5220 -1.8879  0.0506
16437TIP3    H270727   5.654   1.855   1.172  0.2752  0.0011 -0.1316
16438TIP3   OH270728   3.450   6.630  14.194 -0.4232  0.6617 -0.2958
16438TIP3    H170729   3.416   6.640  14.283 -1.7491  3.0390 -0.9900
16438TIP3    H270730   3.415   6.546  14.165  0.3399 -0.3486  1.4946
16439TIP3   OH270731   3.388   4.842   2.443 -0.6716 -0.4236 -0.3635
16439TIP3    H170732   3.309   4.833   2.390 -1.6793  1.8894  0.6036
16439TIP3    H270733   3.460   4.838   2.379 -1.7309 -0.0307 -1.6181
16440TIP3   OH270734   6.660   5.267   2.034 -0.2143 -0.3123  0.2572
16440TIP3    H170735   6.732   5.212   2.002 -1.9232 -1.9844 -0.9867
16440TIP3    H270736   6.602   5.206   2.080 -0.2178  1.2348  2.4396
16441TIP3   OH270737   4.008   3.545   5.332 -0.0937  0.4079 -0.8796
16441TIP3    H170738   3.930   3.590   5.300 -1.4082 -0.9381  0.3361
16441TIP3    H270739   3.984   3.514   5.419  1.8212 -0.0157 -0.4642
16442TIP3   OH270740   4.220   4.025  14.803 -0.2226  0.0472  0.4217
16442TIP3    H170741   4.283   4.094  14.779 -1.2477  0.9814  0.3293
16442TIP3    H270742   4.225   3.962  14.731 -0.1941  0.6755 -0.1400
16443TIP3   OH270743   0.113   0.186   6.563 -0.0572 -0.2311 -0.1817
16443TIP3    H170744   0.026   0.214   6.534  0.8396  0.2002 -2.7202
16443TIP3    H270745   0.131   0.108   6.511 -0.0844 -2.1640  2.5158
16444TIP3   OH270746   0.305   0.354   5.252 -0.2309 -0.0066 -0.4612
16444TIP3    H170747   0.272   0.271   5.285 -0.5822 -0.1508 -1.1525
16444TIP3    H270748   0.254   0.421   5.297 -1.5506 -0.2261 -1.5648
16445TIP3   OH270749   1.599   4.145  16.465 -0.1940 -0.0457  0.2380
16445TIP3    H170750   1.566   4.223  16.510  1.0038 -0.1938  1.4377
16445TIP3    H270751   1.689   4.135  16.496  0.6864 -0.2029 -2.1903
16446TIP3   OH270752   3.951   3.185  13.526  0.2319 -0.1399  0.3443
16446TIP3    H170753   3.945   3.230  13.611  6.8547  1.2167  0.5910
16446TIP3    H270754   3.920   3.249  13.463 -0.8182  0.4433  1.4009
16447TIP3   OH270755   0.528   0.775  13.467  0.0566 -0.3070  0.1302
16447TIP3    H170756   0.553   0.863  13.496  5.1033 -0.7828 -1.8286
16447TIP3    H270757   0.568   0.717  13.531 -3.6489 -1.4464  1.6927
16448TIP3   OH270758   0.682   1.624   3.962 -0.3083  0.4042  0.2052
16448TIP3    H170759   0.596   1.583   3.956 -0.0559 -0.1411  0.2893
16448TIP3    H270760   0.701   1.653   3.872 -0.5931  0.5674  0.1959
16449TIP3   OH270761   2.014   2.647  15.340 -0.3964 -0.3784 -0.2663
16449TIP3    H170762   1.927   2.680  15.364  0.1188  1.4074 -0.7488
16449TIP3    H270763   2.069   2.671  15.415 -0.3249 -1.7001  0.1347
16450TIP3   OH270764   3.410   2.396   1.469  0.4734  0.1058 -0.3108
16450TIP3    H170765   3.383   2.486   1.489  3.0098  0.9069 -0.1076
16450TIP3    H270766   3.486   2.406   1.413  0.2253 -1.9821 -1.0989
16451TIP3   OH270767   2.521   2.130  16.859  0.8098 -0.1679  0.0787
16451TIP3    H170768   2.587   2.064  16.839  2.0711  0.3419  2.2722
16451TIP3    H270769   2.477   2.097  16.938 -0.3505  0.3746 -0.3140
16452TIP3   OH270770   5.236   1.160   4.977  0.4235  0.4309  0.1757
16452TIP3    H170771   5.254   1.091   5.041 -0.4120 -1.8166 -1.8672
16452TIP3    H270772   5.316   1.165   4.925 -0.6957 -1.6127 -1.8904
16453TIP3   OH270773   0.447   0.757   1.952 -0.7554  0.0601  0.1767
16453TIP3    H170774   0.461   0.804   2.034 -0.6667  0.8144 -0.2612
16453TIP3    H270775   0.360   0.784   1.923 -0.2693  0.8248 -0.6266
16454TIP3   OH270776   4.447   2.245   5.099 -0.0759  0.2518 -0.2124
16454TIP3    H170777   4.526   2.289   5.069  0.7185 -0.2000  1.1333
16454TIP3    H270778   4.447   2.259   5.194 -1.0444 -0.6730 -0.0629
16455TIP3   OH270779   3.209   1.740  15.268 -0.0475 -0.7016  0.2139
16455TIP3    H170780   3.198   1.726  15.362 -0.3081 -0.0796  0.2854
16455TIP3    H270781   3.292   1.787  15.260 -1.6271  2.3769  0.4861
16456TIP3   OH270782   3.310   4.645  11.442  0.1787 -0.3151  0.0571
16456TIP3    H170783   3.339   4.570  11.493 -0.6676  0.3093  1.5562
16456TIP3    H270784   3.347   4.721  11.489 -0.8702  0.2933 -0.0725
16457TIP3   OH270785   6.740   4.144   0.482  0.0454  0.1890 -0.1761
16457TIP3    H170786   6.677   4.079   0.450  0.5139  0.6132 -2.1076
16457TIP3    H270787   6.691   4.226   0.482 -0.3434 -0.0070  1.5952
16458TIP3   OH270788   4.837   5.626  16.359 -0.0015 -0.4217  0.0964
16458TIP3    H170789   4.829   5.719  16.380 -2.1078 -0.3624 -0.6387
16458TIP3    H270790   4.793   5.617  16.274  0.6968 -1.9899 -0.1385
16459TIP3   OH270791   4.604   0.389   0.385 -0.1651  0.3218  0.5967
16459TIP3    H170792   4.623   0.471   0.430 -2.2783 -0.1822  2.6342
16459TIP3    H270793   4.560   0.415   0.304  0.7472  1.2006  0.3643
16460TIP3   OH270794   2.040   5.812   1.256  0.3188 -0.0462  0.4091
16460TIP3    H170795   1.964   5.817   1.314 -0.3028 -0.1189 -0.3686
16460TIP3    H270796   2.031   5.727   1.212  1.8744 -0.8983  1.6527
16461TIP3   OH270797   3.033   2.054   3.276 -0.0135 -0.1654 -0.6247
16461TIP3    H170798   3.010   2.043   3.184 -0.7720  1.8755 -0.7344
16461TIP3    H270799   3.004   1.973   3.318 -0.4011 -0.7943 -2.0305
16462TIP3   OH270800   2.340   2.273   2.276  0.4998  0.4303 -0.6514
16462TIP3    H170801   2.305   2.184   2.283  0.9925  0.2772 -0.0653
16462TIP3    H270802   2.413   2.265   2.215 -0.1627  0.6587 -1.4949
16463TIP3   OH270803   0.819   5.501   3.267 -0.0856  0.3639  0.0044
16463TIP3    H170804   0.732   5.542   3.264  0.1064  0.7049 -1.6538
16463TIP3    H270805   0.809   5.420   3.218  0.1701 -0.4085  1.1718
16464TIP3   OH270806   3.855   3.862  16.899 -0.0138 -0.2513  0.6525
16464TIP3    H170807   3.806   3.888  16.977 -0.1530 -2.0473  1.2140
16464TIP3    H270808   3.789   3.822  16.842  0.3063 -0.0888  0.1670
16465TIP3   OH270809   5.379   4.527  14.405  0.2629  0.5508 -0.0536
16465TIP3    H170810   5.407   4.516  14.314 -1.0779 -0.7273 -0.3560
16465TIP3    H270811   5.415   4.450  14.451 -0.4073  0.3345  0.1264
16466TIP3   OH270812   4.265   4.634  15.011  0.4623  0.3368 -0.3975
16466TIP3    H170813   4.306   4.613  15.095 -1.1562 -1.1756  0.0701
16466TIP3    H270814   4.226   4.720  15.024 -2.4921 -1.1409  1.5762
16467TIP3   OH270815   3.862   0.724   1.643  0.3670 -0.6323  0.5028
16467TIP3    H170816   3.911   0.697   1.565 -0.3889 -0.9371  0.1251
16467TIP3    H270817   3.779   0.677   1.637 -0.7525  1.2393  0.1404
16468TIP3   OH270818   6.569   4.854  13.906 -0.2595  0.6999 -0.1035
16468TIP3    H170819   6.484   4.874  13.868 -0.5287  2.4161  1.2781
16468TIP3    H270820   6.549   4.821  13.994  0.4920  1.6917  0.4614
16469TIP3   OH270821   5.039   6.365   5.100 -0.0289  0.1674  0.2585
16469TIP3    H170822   5.071   6.276   5.110 -0.6013 -0.4037 -2.1559
16469TIP3    H270823   5.111   6.412   5.058 -0.4186  0.3079 -0.2644
16470TIP3   OH270824   5.340   1.910   0.130  0.0872  0.4729 -0.4468
16470TIP3    H170825   5.316   2.003   0.134  0.3676  0.5615 -0.7092
16470TIP3    H270826   5.422   1.909   0.079  0.3744  0.1339  0.0085
16471TIP3   OH270827   0.567   0.684  13.178  0.3600  0.1794 -0.0739
16471TIP3    H170828   0.507   0.749  13.141 -0.3843 -0.4847 -0.0552
16471TIP3    H270829   0.560   0.697  13.273  0.3107  0.1694 -0.0755
16472TIP3   OH270830   5.686   1.499  13.334 -0.5313 -0.0922 -0.3127
16472TIP3    H170831   5.657   1.570  13.276  0.4112  0.1611 -0.4890
16472TIP3    H270832   5.617   1.433  13.328 -1.7446  1.0743  0.3483
16473TIP3   OH270833   0.029   4.920  15.526 -0.8556 -0.2666  0.1792
16473TIP3    H170834  -0.063   4.896  15.538 -0.1637 -2.6391  1.3226
16473TIP3    H270835   0.057   4.870  15.450 -0.5632  0.7401 -0.4020
16474TIP3   OH270836   2.628   0.137  17.272 -0.5116  0.7669  0.1752
16474TIP3    H170837   2.554   0.186  17.236  2.0016  2.6165 -3.0687
16474TIP3    H270838   2.698   0.201  17.279  0.7839 -0.8064  3.4779
16475TIP3   OH270839   3.978   2.437  12.141 -0.4084  0.2509 -0.4128
16475TIP3    H170840   4.020   2.503  12.196  1.4017 -0.3383 -0.9810
16475TIP3    H270841   3.938   2.486  12.069 -0.3414  0.8205 -0.0630
16476TIP3   OH270842   1.753   4.837  13.493  0.4530  0.1072 -0.2102
16476TIP3    H170843   1.805   4.904  13.449  0.2364 -0.2705 -1.0771
16476TIP3    H270844   1.706   4.794  13.422 -0.0301 -0.4273  0.4221
16477TIP3   OH270845   3.566   2.962   0.828 -0.7632 -0.2382  0.1731
16477TIP3    H170846   3.571   2.902   0.753  0.6429 -1.3477  1.0984
16477TIP3    H270847   3.490   2.931   0.877 -3.3343  2.0745 -1.9737
16478TIP3   OH270848   6.506   4.659  12.663 -0.0384 -0.2069 -0.0879
16478TIP3    H170849   6.511   4.736  12.720  0.1150  0.1570 -0.5855
16478TIP3    H270850   6.422   4.668  12.619 -1.1122 -1.5620  1.5664
16479TIP3   OH270851   2.048   4.270   3.046  0.1684  0.1278 -0.0331
16479TIP3    H170852   2.052   4.333   2.974  0.0841 -0.4498 -0.5561
16479TIP3    H270853   2.055   4.323   3.125  0.9684  0.7160 -0.4819
16480TIP3   OH270854   2.984   1.821  13.785  0.0855 -0.2040  0.0565
16480TIP3    H170855   3.003   1.874  13.863 -0.2227 -1.1851  0.8284
16480TIP3    H270856   2.937   1.745  13.819 -0.3318 -0.5052 -1.1401
16481TIP3   OH270857   2.238   1.509  15.516  0.5148  0.2313  0.4140
16481TIP3    H170858   2.302   1.574  15.545  1.0196  0.8413 -1.8826
16481TIP3    H270859   2.231   1.522  15.421 -1.5239 -1.1666  0.2978
16482TIP3   OH270860   2.988   3.939  13.931  0.5605  0.3854 -0.1970
16482TIP3    H170861   3.047   3.872  13.896 -0.9784 -1.1292 -0.0464
16482TIP3    H270862   2.931   3.961  13.857 -0.6288 -0.4476  0.4385
16483TIP3   OH270863   0.731   4.010   5.793 -0.3758  0.2326  0.1857
16483TIP3    H170864   0.741   4.069   5.718 -0.0864  1.2839  1.0205
16483TIP3    H270865   0.713   3.925   5.754  1.9506  0.2727 -1.1835
16484TIP3   OH270866   5.072   3.854   2.576  0.0254  0.6564 -0.5502
16484TIP3    H170867   5.115   3.910   2.511 -2.3407  1.9537 -1.1342
16484TIP3    H270868   5.118   3.873   2.657  0.8240  1.6516 -1.1986
16485TIP3   OH270869   6.545   1.591   2.891  0.2414 -0.6437 -0.5011
16485TIP3    H170870   6.489   1.557   2.821 -0.2952 -0.2565 -0.2649
16485TIP3    H270871   6.526   1.536   2.966 -0.8866  0.3786 -0.0203
16486TIP3   OH270872   1.440   1.897  15.697 -0.3727 -0.1536 -0.0303
16486TIP3    H170873   1.503   1.866  15.762 -1.0413  0.1401  0.7678
16486TIP3    H270874   1.450   1.992  15.698 -2.0619  0.0576  1.4217
16487TIP3   OH270875   6.586   5.570   4.326 -0.1890 -0.1764  0.7458
16487TIP3    H170876   6.507   5.582   4.378 -0.8064 -0.1690 -0.1766
16487TIP3    H270877   6.557   5.579   4.235  0.8180 -0.4695  0.3807
16488TIP3   OH270878   0.478   1.772  15.296 -0.0836 -0.3303  0.1962
16488TIP3    H170879   0.396   1.804  15.257  0.3316 -1.1471 -1.4283
16488TIP3    H270880   0.454   1.690  15.338 -0.6594  0.8493  2.2868
16489TIP3   OH270881   4.935   0.103  16.934  0.2013  0.5005  0.3536
16489TIP3    H170882   4.870   0.034  16.920  0.6378 -0.0927  1.1709
16489TIP3    H270883   4.968   0.088  17.022  0.0721  1.9699  0.6736
16490TIP3   OH270884   0.500   3.289   3.347  0.1716 -0.1243 -0.0066
16490TIP3    H170885   0.471   3.353   3.282  3.4749  1.9072  0.2846
16490TIP3    H270886   0.557   3.339   3.406  0.3912 -2.7173  2.1413
16491TIP3   OH270887   1.652   5.853   1.343 -0.2208 -0.2974 -0.2007
16491TIP3    H170888   1.610   5.776   1.381  1.2478 -0.6944  0.6992
16491TIP3    H270889   1.724   5.873   1.403  0.4719  0.7377 -1.3357
16492TIP3   OH270890   5.568   1.740  15.914  0.4854  0.2349 -0.1881
16492TIP3    H170891   5.618   1.717  15.836  0.6655 -0.4843  0.1333
16492TIP3    H270892   5.612   1.818  15.947  1.6069 -0.5500  0.2526
16493TIP3   OH270893   3.399   3.100  11.257 -0.0071 -0.4778  0.6433
16493TIP3    H170894   3.433   3.105  11.167  1.9310 -1.1259  1.2821
16493TIP3    H270895   3.417   3.010  11.284 -2.6355 -0.9904  0.9701
16494TIP3   OH270896   2.250   0.733  14.539  0.1073 -1.0057  0.3755
16494TIP3    H170897   2.234   0.682  14.618 -0.2182 -2.0135 -0.3269
16494TIP3    H270898   2.250   0.824  14.569  1.0674 -1.4149  1.7138
16495TIP3   OH270899   2.360   2.676  17.160  0.1795 -0.3061  0.0409
16495TIP3    H170900   2.310   2.699  17.239  2.0738  1.9152  0.7004
16495TIP3    H270901   2.432   2.623  17.193  0.0585 -0.7599 -0.4333
16496TIP3   OH270902   4.576   3.866   2.331 -0.0987 -0.0296 -0.3427
16496TIP3    H170903   4.650   3.890   2.387  1.8379 -1.5967 -2.0270
16496TIP3    H270904   4.517   3.942   2.334  2.1493  1.8157  0.1935
16497TIP3   OH270905   1.039   2.206  11.966  0.4947  0.2616  0.2851
16497TIP3    H170906   1.130   2.183  11.985  0.1352 -1.3498  0.2121
16497TIP3    H270907   1.020   2.160  11.884 -0.3560  0.6876  0.2364
16498TIP3   OH270908   1.971   4.472   3.775  0.0520  0.0084 -0.6769
16498TIP3    H170909   1.997   4.383   3.795 -1.7866 -0.2968  0.5920
16498TIP3    H270910   2.036   4.502   3.711  1.4752 -1.7500 -0.1374
16499TIP3   OH270911   1.387   5.496   2.032 -0.0462 -0.2916  0.0402
16499TIP3    H170912   1.447   5.540   2.092  1.5455 -2.1831 -0.0537
16499TIP3    H270913   1.415   5.523   1.945  0.0501 -0.4408  0.0253
16500TIP3   OH270914   5.655   2.114   4.010 -0.2942 -0.8343  0.0679
16500TIP3    H170915   5.629   2.066   3.932 -0.9171 -1.2942  0.5490
16500TIP3    H270916   5.661   2.205   3.982 -1.5642 -0.8491 -0.2725
16501TIP3   OH270917   0.630   5.224  10.504  0.0237 -0.3297  0.1726
16501TIP3    H170918   0.708   5.256  10.458  0.7094 -0.9598  0.8690
16501TIP3    H270919   0.633   5.129  10.491 -2.0905 -0.2129 -2.0618
16502TIP3   OH270920   0.611   4.649   4.770  1.0855 -0.6194 -0.7579
16502TIP3    H170921   0.670   4.630   4.698  2.5929 -3.2384  0.9884
16502TIP3    H270922   0.532   4.600   4.750  1.2730 -0.8671 -0.8944
16503TIP3   OH270923   3.622   5.816  16.491  0.1185 -0.0637 -0.3694
16503TIP3    H170924   3.599   5.854  16.406  0.0045 -2.2727 -1.3983
16503TIP3    H270925   3.701   5.864  16.518  0.3149  0.5012 -1.8380
16504TIP3   OH270926   3.957   3.899  16.607  0.4511 -0.4522  0.0127
16504TIP3    H170927   3.898   3.862  16.541 -1.6566  0.0049  1.5131
16504TIP3    H270928   3.949   3.840  16.682  1.5656 -0.1051  0.4268
16505TIP3   OH270929   2.886   6.294  11.982 -0.2899  0.8130 -0.1543
16505TIP3    H170930   2.831   6.220  11.957 -0.6649  0.7413  0.8342
16505TIP3    H270931   2.975   6.262  11.970 -0.4367 -0.0366  0.8475
16506TIP3   OH270932   4.104   1.392   0.454  0.0509 -0.3062 -0.7815
16506TIP3    H170933   4.018   1.433   0.444  0.0128 -0.0519  0.4684
16506TIP3    H270934   4.093   1.304   0.417  0.2213  0.8117 -3.8329
16507TIP3   OH270935   3.203   3.295  11.731  0.2614 -0.0448 -0.3978
16507TIP3    H170936   3.263   3.352  11.779 -0.4178 -0.1961  0.6559
16507TIP3    H270937   3.249   3.276  11.649  0.1172  2.7572 -1.2198
16508TIP3   OH270938   0.698   0.605  11.118  0.5589 -0.1638  0.9208
16508TIP3    H170939   0.754   0.682  11.128 -1.0780  0.9310  2.2663
16508TIP3    H270940   0.677   0.603  11.025  3.8327 -1.4527  0.0640
16509TIP3   OH270941   6.025   6.099   0.904  0.3011  0.2887 -0.6097
16509TIP3    H170942   6.080   6.106   0.826  1.0989 -0.9867 -0.1849
16509TIP3    H270943   6.087   6.097   0.977 -0.4067  0.8111  0.0255
16510TIP3   OH270944   0.444   5.313   0.587  0.3969  0.4964  0.0078
16510TIP3    H170945   0.516   5.374   0.599 -0.8534  2.1802 -0.6751
16510TIP3    H270946   0.366   5.362   0.612 -0.6060 -1.0554  0.1002
16511TIP3   OH270947   2.140   5.059  12.534  0.2196 -0.0240 -0.4263
16511TIP3    H170948   2.064   5.001  12.532 -0.8588  1.2624  0.8884
16511TIP3    H270949   2.139   5.103  12.449 -0.9095  0.4508 -0.1802
16512TIP3   OH270950   2.540   0.702  16.931 -0.2090 -0.1662 -0.4890
16512TIP3    H170951   2.617   0.654  16.962  0.3857  0.5227 -0.8496
16512TIP3    H270952   2.509   0.651  16.856  0.9329  0.4435 -1.4101
16513TIP3   OH270953   6.687   2.766   2.881  0.0123 -0.4934  0.3654
16513TIP3    H170954   6.722   2.683   2.850  1.2264 -0.3857  1.3981
16513TIP3    H270955   6.685   2.822   2.803  1.1321 -0.8489  0.0673
16514TIP3   OH270956   4.123   5.711  12.698  0.2875 -0.2623 -0.6996
16514TIP3    H170957   4.135   5.622  12.732  0.3386 -0.3738 -1.0070
16514TIP3    H270958   4.044   5.706  12.645  0.9222 -0.4075 -1.6630
16515TIP3   OH270959   3.351   4.497  11.688 -0.0335 -0.1443 -0.1961
16515TIP3    H170960   3.356   4.403  11.672  0.7809  0.1115 -1.6251
16515TIP3    H270961   3.441   4.528  11.682 -0.3150  0.7546  0.0395
16516TIP3   OH270962   5.868   5.812   1.515 -0.1024 -0.2004 -0.0287
16516TIP3    H170963   5.798   5.757   1.478 -0.7067 -1.7379  3.1185
16516TIP3    H270964   5.841   5.902   1.496 -1.0233 -0.8299 -1.9965
16517TIP3   OH270965   6.508   4.927  15.445  0.7317  0.2256 -0.3696
16517TIP3    H170966   6.550   4.949  15.362  0.6384  0.3942 -0.3719
16517TIP3    H270967   6.459   4.846  15.427  1.2757 -0.1251 -0.2977
16518TIP3   OH270968   6.179   0.254   0.761 -0.1609 -0.0631  0.2431
16518TIP3    H170969   6.099   0.291   0.723 -0.0695  0.0586  0.1697
16518TIP3    H270970   6.152   0.224   0.848 -0.5561 -1.0672 -0.2171
16519TIP3   OH270971   6.351   3.622   5.840  0.5787  0.5288 -0.7070
16519TIP3    H170972   6.397   3.558   5.785 -0.6058 -1.3948  0.3990
16519TIP3    H270973   6.419   3.683   5.869  1.5922  0.3552 -2.5613
16520TIP3   OH270974   5.873   5.727   2.701 -0.7538  0.1233 -0.4390
16520TIP3    H170975   5.864   5.636   2.730  0.5444  0.2472  0.4095
16520TIP3    H270976   5.929   5.721   2.623 -0.3106  0.2281 -0.1310
16521TIP3   OH270977   6.700   2.100  16.419  0.5598 -0.5327 -0.2249
16521TIP3    H170978   6.669   2.164  16.484  0.7787 -1.6463  1.0274
16521TIP3    H270979   6.656   2.125  16.338  0.9432  1.4219  0.1248
16522TIP3   OH270980   4.061   1.885   0.565 -0.0566  0.3831  0.1555
16522TIP3    H170981   4.064   1.955   0.500 -1.7781  1.0073  0.7018
16522TIP3    H270982   4.120   1.818   0.530 -0.1916  1.1067 -1.5671
16523TIP3   OH270983   4.936   4.518  14.769  0.3793 -0.1385  0.1819
16523TIP3    H170984   5.011   4.565  14.732  0.0985 -0.8594 -1.4197
16523TIP3    H270985   4.912   4.455  14.701 -1.3507 -0.2810  0.8745
16524TIP3   OH270986   2.161   6.094   5.908  0.1567  0.4802 -0.0941
16524TIP3    H170987   2.112   6.174   5.928  1.7703  1.2175  1.1395
16524TIP3    H270988   2.134   6.032   5.976 -0.1263  0.4042 -0.2742
16525TIP3   OH270989   4.176   5.916   1.653  0.1831  0.2304  0.1747
16525TIP3    H170990   4.214   5.999   1.680 -0.4474  0.4383  0.4489
16525TIP3    H270991   4.244   5.874   1.600  0.5098  0.9126  0.0460
16526TIP3   OH270992   1.376   4.526  14.537  0.7823 -0.1268 -0.1134
16526TIP3    H170993   1.360   4.499  14.447  0.8335  1.0825 -0.5110
16526TIP3    H270994   1.292   4.561  14.567  0.6895 -0.7689  0.4170
16527TIP3   OH270995   4.734   1.186  14.641 -0.2085  0.0409  0.3747
16527TIP3    H170996   4.751   1.211  14.550  1.4750  1.4543  1.0067
16527TIP3    H270997   4.722   1.091  14.639  1.2164 -0.1515 -1.1678
16528TIP3   OH270998   0.273   1.188   3.338  0.2010 -0.4195  0.1432
16528TIP3    H170999   0.322   1.136   3.274 -0.3787  0.9358 -1.4731
16528TIP3    H271000   0.340   1.222   3.398  0.5881 -3.0457  1.3474
16529TIP3   OH271001   5.004   3.658   4.042 -0.6081 -0.1680  0.1548
16529TIP3    H171002   4.918   3.699   4.049 -1.1723 -1.3188  0.3036
16529TIP3    H271003   5.057   3.720   3.993 -2.1662 -0.3619 -1.9096
16530TIP3   OH271004   3.458   0.836  14.641  0.1601 -0.4172  0.1175
16530TIP3    H171005   3.394   0.809  14.707 -0.3139 -0.9096 -0.5267
16530TIP3    H271006   3.533   0.866  14.691 -0.6678  0.4012  0.8943
16531TIP3   OH271007   4.215   1.212  16.848  0.0029 -0.1061  0.4162
16531TIP3    H171008   4.180   1.286  16.798  0.6872 -1.0068 -1.4852
16531TIP3    H271009   4.199   1.135  16.792  0.5453 -1.2215  1.7264
16532TIP3   OH271010   0.945   4.079   3.297  0.2189  0.1418 -0.4843
16532TIP3    H171011   0.913   4.073   3.207 -0.7460 -2.1848 -0.0600
16532TIP3    H271012   0.943   3.989   3.329  1.9256  0.7069  1.4223
16533TIP3   OH271013   5.688   5.516  13.439  0.2106 -0.1090 -0.8751
16533TIP3    H171014   5.664   5.460  13.512  0.9495 -0.9536 -1.2670
16533TIP3    H271015   5.678   5.605  13.473  1.1106 -0.4822  0.4479
16534TIP3   OH271016   3.157   6.403  15.516  0.1648  0.5069 -0.2052
16534TIP3    H171017   3.241   6.394  15.562  0.6096 -2.4400 -1.3473
16534TIP3    H271018   3.181   6.418  15.424 -0.5493  0.3530 -0.4259
16535TIP3   OH271019   2.671   6.025   2.784 -0.2286 -0.9696 -0.7343
16535TIP3    H171020   2.688   6.058   2.696 -0.8873  0.5726 -0.3189
16535TIP3    H271021   2.714   5.939   2.786 -1.2208 -1.5870 -2.9190
16536TIP3   OH271022   1.266   0.632  14.702 -0.1059 -0.4475  0.7316
16536TIP3    H171023   1.241   0.723  14.685  0.7911 -0.1655  0.8843
16536TIP3    H271024   1.324   0.609  14.629 -0.6191 -1.0208  0.4962
16537TIP3   OH271025   3.663   4.285   1.548  0.2836  0.3471  0.2045
16537TIP3    H171026   3.581   4.322   1.581 -0.7835 -2.5910  1.1558
16537TIP3    H271027   3.732   4.340   1.586 -1.1461  1.3390  1.4645
16538TIP3   OH271028   6.524   4.287  12.846  0.2064 -0.0629  0.2454
16538TIP3    H171029   6.603   4.280  12.901  1.1878 -1.5745 -1.2451
16538TIP3    H271030   6.470   4.212  12.873  1.2400 -1.5492 -1.5663
16539TIP3   OH271031   4.623   2.460   4.460 -0.1562 -0.0196  0.5140
16539TIP3    H171032   4.670   2.482   4.379 -0.4055 -0.7885  0.1517
16539TIP3    H271033   4.535   2.435   4.431 -0.4599  0.3515  1.0893
16540TIP3   OH271034   5.390   1.875  12.894  0.1599  1.4614 -0.2990
16540TIP3    H171035   5.383   1.858  12.988 -0.3011  0.1993 -0.5420
16540TIP3    H271036   5.473   1.923  12.884 -0.2938  2.5356  0.8494
16541TIP3   OH271037   1.538   6.117   5.849  0.3036 -0.1530 -0.5436
16541TIP3    H171038   1.483   6.161   5.784  0.4571  0.9024  0.0287
16541TIP3    H271039   1.516   6.024   5.839 -1.6731  0.2394 -0.2577
16542TIP3   OH271040   5.063   1.264  14.723 -0.1626 -0.3647 -0.6536
16542TIP3    H171041   5.020   1.180  14.740  1.8887 -1.4758 -0.6762
16542TIP3    H271042   5.112   1.249  14.642  0.5101  0.7593 -0.4704
16543TIP3   OH271043   5.739   1.139   0.229 -0.2148 -0.4090 -0.4069
16543TIP3    H171044   5.789   1.057   0.227  1.7987  0.6486  1.3793
16543TIP3    H271045   5.696   1.139   0.315 -1.4179 -0.2328 -0.9941
16544TIP3   OH271046   4.092   5.074   6.151 -0.3958  0.1127 -0.1427
16544TIP3    H171047   4.067   5.048   6.239 -1.5684 -0.2450 -0.5562
16544TIP3    H271048   4.085   5.169   6.150 -0.5551  0.1027  0.0943
16545TIP3   OH271049   5.295   4.460  11.204  0.5147  0.0637 -0.1420
16545TIP3    H171050   5.320   4.387  11.148 -0.3043 -1.3386  1.2331
16545TIP3    H271051   5.205   4.481  11.178  0.9034  0.9137 -0.8438
16546TIP3   OH271052   6.634   1.941  13.800 -0.4820  0.5459 -0.4512
16546TIP3    H171053   6.651   1.875  13.866  1.3211  0.4412 -0.9762
16546TIP3    H271054   6.676   2.020  13.833 -1.6853  1.1708 -0.3469
16547TIP3   OH271055   5.620   3.096   4.832 -0.4949  0.0517  0.0863
16547TIP3    H171056   5.538   3.063   4.794 -0.4418 -2.3546  1.8021
16547TIP3    H271057   5.670   3.016   4.852  1.3535  1.3860  1.0324
16548TIP3   OH271058   6.203   5.881   0.307  0.0076 -0.3415  0.1647
16548TIP3    H171059   6.125   5.888   0.363 -0.2460  0.5684 -0.2844
16548TIP3    H271060   6.246   5.801   0.336 -1.3321 -1.1056  0.1146
16549TIP3   OH271061   6.246   6.389  13.772  0.0809  0.3890  0.2554
16549TIP3    H171062   6.224   6.339  13.693 -2.5477  0.1969  1.0115
16549TIP3    H271063   6.178   6.365  13.835  2.1172  0.4789  2.6581
16550TIP3   OH271064   0.879   3.538  13.902  0.0266  0.0785  0.5117
16550TIP3    H171065   0.890   3.575  13.814 -0.9031  0.2849  0.4687
16550TIP3    H271066   0.858   3.614  13.957 -1.0011 -0.2484  0.5961
16551TIP3   OH271067   1.792   6.243  10.957  0.5516  0.1326  0.0887
16551TIP3    H171068   1.750   6.280  10.880 -2.4146 -1.0435  1.0007
16551TIP3    H271069   1.860   6.186  10.922 -0.2223  0.1924 -1.6389
16552TIP3   OH271070   0.579   1.267  10.504  0.1337 -0.6583  0.4079
16552TIP3    H171071   0.503   1.289  10.450  1.0346 -1.6299 -1.3408
16552TIP3    H271072   0.606   1.180  10.474  0.5480 -1.3806  2.6297
16553TIP3   OH271073   6.767   6.313  14.039  0.0953  0.5413  0.3392
16553TIP3    H171074   6.726   6.398  14.027 -0.0738  0.1392 -2.6311
16553TIP3    H271075   6.843   6.314  13.981  0.7290 -0.9376  1.0723
16554TIP3   OH271076   4.948   2.146   3.779  0.5456 -0.1720  0.3873
16554TIP3    H171077   4.919   2.081   3.714  0.5481  0.3152 -0.1070
16554TIP3    H271078   5.041   2.126   3.793  0.1166 -1.4841  1.6772
16555TIP3   OH271079   2.099   4.222   0.284 -0.4258 -0.2734  0.3044
16555TIP3    H171080   2.111   4.273   0.204 -0.0136 -0.0144  0.5279
16555TIP3    H271081   2.181   4.174   0.295 -0.0943  0.4428  1.0930
16556TIP3   OH271082   6.065   4.958  11.500 -0.0662 -0.2873  0.5922
16556TIP3    H171083   6.026   5.006  11.573 -0.6518  0.9614 -0.4882
16556TIP3    H271084   6.061   4.867  11.526  1.4091  0.2231  2.8851
16557TIP3   OH271085   2.249   3.504  16.005 -0.3108 -0.2268 -0.1206
16557TIP3    H171086   2.192   3.578  15.984 -0.8017 -0.7137 -0.5116
16557TIP3    H271087   2.271   3.466  15.921 -0.5918 -0.9165  0.1102
16558TIP3   OH271088   1.252   3.102  14.460  0.2692 -0.6232 -0.3769
16558TIP3    H171089   1.333   3.052  14.461  0.4815 -0.3638 -1.8326
16558TIP3    H271090   1.224   3.101  14.368 -0.3870  0.8370 -0.2245
16559TIP3   OH271091   2.311   3.575   5.058 -0.7013 -0.2668 -0.2247
16559TIP3    H171092   2.247   3.597   5.126 -2.7610  0.1039 -2.1512
16559TIP3    H271093   2.345   3.659   5.029  0.5333 -0.4502  0.6158
16560TIP3   OH271094   4.081   2.867   1.442 -0.0397  0.3003  0.3403
16560TIP3    H171095   4.057   2.799   1.380 -0.4290  0.3127  0.4773
16560TIP3    H271096   4.000   2.887   1.489  0.2513  0.2935  0.8519
16561TIP3   OH271097   5.076   2.630  15.758 -0.2340 -0.3349 -0.1011
16561TIP3    H171098   5.164   2.596  15.741  0.1078  0.3918  0.1460
16561TIP3    H271099   5.081   2.663  15.848 -0.8298 -0.4899 -0.0085
16562TIP3   OH271100   1.052   1.952   0.129  0.2673 -0.4238  0.1073
16562TIP3    H171101   1.031   1.956   0.036 -0.0956 -0.3774  0.1882
16562TIP3    H271102   1.122   2.016   0.141 -0.5880  0.5446  0.0997
16563TIP3   OH271103   5.410   2.673  12.267  0.2889  0.7370  0.2837
16563TIP3    H171104   5.443   2.586  12.287 -0.9174  0.7478  2.7633
16563TIP3    H271105   5.326   2.678  12.313  1.4330  4.0342  2.4091
16564TIP3   OH271106   5.000   1.192  10.851 -0.2065  0.0792 -0.7787
16564TIP3    H171107   5.095   1.190  10.845 -0.1187 -0.4617  0.4253
16564TIP3    H271108   4.970   1.136  10.779  0.4213 -0.3791 -0.6969
16565TIP3   OH271109   6.284   2.865  12.737  0.1840  1.0703  0.4208
16565TIP3    H171110   6.195   2.838  12.759  0.9351  0.3025  2.7955
16565TIP3    H271111   6.285   2.959  12.752 -0.5359  1.3064 -0.8782
16566TIP3   OH271112   4.584   2.250  14.648  0.3134 -0.1482 -0.0718
16566TIP3    H171113   4.596   2.267  14.555  4.0472  0.5269  0.3652
16566TIP3    H271114   4.659   2.292  14.690 -0.0002 -2.3161  3.0167
16567TIP3   OH271115   2.144   0.719  16.960 -0.1490 -0.0540 -0.1380
16567TIP3    H171116   2.214   0.784  16.958 -0.9304  0.7935 -0.7896
16567TIP3    H271117   2.160   0.664  16.883  0.5782 -0.7276  0.4755
16568TIP3   OH271118   3.680   3.587  14.718 -0.1316  0.5907  0.1720
16568TIP3    H171119   3.645   3.498  14.730 -1.1346  0.9172 -0.1936
16568TIP3    H271120   3.613   3.644  14.755  0.1961  1.2267 -0.2002
16569TIP3   OH271121   4.446   2.937  15.134  0.6906  0.2895 -0.3376
16569TIP3    H171122   4.393   3.008  15.171  0.1569  1.2053 -2.6753
16569TIP3    H271123   4.445   2.868  15.201 -2.2344  0.8650  0.3427
16570TIP3   OH271124   6.024   1.210  15.349  0.1295  0.1434 -0.5622
16570TIP3    H171125   6.025   1.114  15.348  1.1038  0.1536 -1.1352
16570TIP3    H271126   5.978   1.232  15.430  3.0623 -0.8065  1.5131
16571TIP3   OH271127   3.107   6.453  12.625  0.5873  0.6755 -0.1414
16571TIP3    H171128   3.172   6.483  12.562  3.4607 -0.7196  1.9314
16571TIP3    H271129   3.121   6.509  12.702  0.0320 -0.3162  0.7095
16572TIP3   OH271130   1.262   3.189  12.363  0.0031 -0.4514 -0.1339
16572TIP3    H171131   1.346   3.220  12.329 -0.0643 -0.1449 -0.0296
16572TIP3    H271132   1.273   3.095  12.373  1.2669 -0.1008  2.4339
16573TIP3   OH271133   0.574   2.572  16.414 -0.9707  0.2483 -0.3858
16573TIP3    H171134   0.596   2.503  16.351 -0.1970 -0.9727  1.1538
16573TIP3    H271135   0.495   2.613  16.378 -2.2064 -2.2620 -0.7443
16574TIP3   OH271136   6.278   2.411  12.730  0.2002 -0.2060 -0.7740
16574TIP3    H171137   6.308   2.502  12.736 -1.9668  0.4889  0.7754
16574TIP3    H271138   6.201   2.408  12.786  0.6282 -3.2089 -0.2067
16575TIP3   OH271139   2.952   0.255   3.886 -0.1790  0.0459  0.0441
16575TIP3    H171140   2.950   0.201   3.965 -0.8650 -0.3517 -0.2406
16575TIP3    H271141   2.929   0.342   3.917  0.1140  0.0135  0.3720
16576TIP3   OH271142   1.741   5.291   3.375 -0.1200 -0.1149  0.1075
16576TIP3    H171143   1.731   5.353   3.447  0.9820 -2.0369  2.0250
16576TIP3    H271144   1.652   5.278   3.342 -0.6884  0.6712  1.2513
16577TIP3   OH271145   4.978   1.561  12.636 -0.0575 -0.2860 -0.3052
16577TIP3    H171146   4.930   1.496  12.585  1.0498 -0.5745 -1.0059
16577TIP3    H271147   4.999   1.630  12.574  0.1424 -0.0083  0.0685
16578TIP3   OH271148   3.585   3.254   0.618  0.2641  0.0047 -0.0393
16578TIP3    H171149   3.566   3.253   0.712  2.3067 -0.2768  0.4121
16578TIP3    H271150   3.499   3.251   0.576 -0.6629 -0.6645  1.8145
16579TIP3   OH271151   0.688   0.889   5.147  0.0951 -0.4591  0.0111
16579TIP3    H171152   0.634   0.819   5.183  0.2626  0.4104  2.0906
16579TIP3    H271153   0.776   0.851   5.142 -0.1994 -1.0434 -0.8837
16580TIP3   OH271154   3.815   6.250  13.895 -0.5282 -0.6015  0.0436
16580TIP3    H171155   3.752   6.316  13.867 -1.4585 -1.5090 -0.0893
16580TIP3    H271156   3.851   6.284  13.977  2.9321  2.5615 -2.4277
16581TIP3   OH271157   2.205   3.063   6.362 -0.6916  0.1584 -1.0342
16581TIP3    H171158   2.123   3.092   6.401  0.2382  2.5789 -0.7384
16581TIP3    H271159   2.273   3.099   6.419  0.6174  0.4664 -2.7116
16582TIP3   OH271160   3.697   2.178  14.038  0.1645 -0.1679  0.0928
16582TIP3    H171161   3.724   2.214  14.122  1.2973  1.1176 -0.7920
16582TIP3    H271162   3.650   2.249  13.995  1.3159 -0.1323 -1.1597
16583TIP3   OH271163   0.006   2.134   1.448  0.7733  0.1637  0.4470
16583TIP3    H171164   0.052   2.051   1.438 -0.4797 -0.4174 -0.8522
16583TIP3    H271165   0.034   2.186   1.372  2.1761  1.2758  1.6743
16584TIP3   OH271166   6.438   1.033  16.852  0.0135  0.0137 -0.4173
16584TIP3    H171167   6.405   1.039  16.762 -1.0924  1.7240  0.0554
16584TIP3    H271168   6.528   1.066  16.847 -0.4846  1.4152 -0.7154
16585TIP3   OH271169   2.869   5.636  13.773 -0.2140  0.9501  0.3575
16585TIP3    H171170   2.787   5.641  13.723  1.2690 -2.6357 -3.0563
16585TIP3    H271171   2.937   5.647  13.707  2.1743  3.3048  2.9824
16586TIP3   OH271172   2.505   3.998  13.164 -0.7246  0.6068  0.2128
16586TIP3    H171173   2.454   3.959  13.093 -1.2169  3.0918 -0.8961
16586TIP3    H271174   2.579   4.040  13.121 -0.2406  0.9501  1.3357
16587TIP3   OH271175   4.939   2.974   4.948  0.5068 -0.2420 -0.4231
16587TIP3    H171176   5.009   3.039   4.949  1.8086 -1.5699 -0.4999
16587TIP3    H271177   4.899   2.980   5.034 -0.0737  1.3414 -0.7884
16588TIP3   OH271178   1.085   1.483  12.455 -0.0418  0.7174 -0.3036
16588TIP3    H171179   1.015   1.545  12.434 -0.5265  0.9662  1.8541
16588TIP3    H271180   1.153   1.537  12.497  0.8399  0.2461 -1.0977
16589TIP3   OH271181   4.194   2.115   2.743 -0.0031  0.2219  0.1011
16589TIP3    H171182   4.214   2.056   2.671 -0.2149  0.2583  0.0106
16589TIP3    H271183   4.132   2.178   2.706 -1.3499 -0.6871  0.7155
16590TIP3   OH271184   3.437   6.000   2.390 -0.9308  0.0933 -0.1742
16590TIP3    H171185   3.387   5.921   2.372 -0.4712 -0.6903  1.7278
16590TIP3    H271186   3.526   5.969   2.405 -0.8210  0.9027  0.9880
16591TIP3   OH271187   6.090   1.391   4.874  0.0139 -0.0802 -0.2274
16591TIP3    H171188   6.101   1.477   4.832 -0.7300  0.3546  0.4309
16591TIP3    H271189   6.178   1.367   4.902  0.4977 -0.2945 -1.8427
16592TIP3   OH271190   3.234   4.597   4.542  0.0399 -0.3378  0.3819
16592TIP3    H171191   3.279   4.622   4.623  0.3958 -0.4563  0.2240
16592TIP3    H271192   3.216   4.679   4.497  1.8204 -0.3804 -0.4647
16593TIP3   OH271193   2.002   4.296   1.858 -0.2019  0.1058  0.1956
16593TIP3    H171194   1.983   4.211   1.899  0.4884 -0.8434 -1.3482
16593TIP3    H271195   1.916   4.337   1.848 -0.8527 -1.4174 -1.0521
16594TIP3   OH271196   0.590   0.542  13.642 -0.3001 -0.0430 -0.0794
16594TIP3    H171197   0.553   0.480  13.579 -1.5520  0.6009 -0.0137
16594TIP3    H271198   0.670   0.574  13.601 -1.1096  0.3906 -1.3714
16595TIP3   OH271199   2.763   2.792   5.184 -0.4594  0.5475  0.4640
16595TIP3    H171200   2.806   2.872   5.154 -1.2041  0.3328 -1.2900
16595TIP3    H271201   2.833   2.728   5.192 -0.0115  1.0778  0.8061
16596TIP3   OH271202   4.889   4.707  12.197 -0.4953  0.2484 -0.1897
16596TIP3    H171203   4.967   4.671  12.154 -0.5556 -0.6783  0.4288
16596TIP3    H271204   4.856   4.773  12.137  0.1991 -0.0561 -0.9267
16597TIP3   OH271205   5.860   2.850  15.451  0.6603  0.1443 -0.4963
16597TIP3    H171206   5.824   2.914  15.389  0.2146 -0.3200 -0.7196
16597TIP3    H271207   5.914   2.793  15.397 -1.6842 -1.8058 -0.9583
16598TIP3   OH271208   5.882   4.138  12.607 -0.2159 -0.3282 -0.0288
16598TIP3    H171209   5.798   4.172  12.576 -0.4360 -0.1148  0.7841
16598TIP3    H271210   5.919   4.208  12.659  1.2917  0.2480 -1.7655
16599TIP3   OH271211   2.754   6.560  15.717 -0.1396  0.1187  0.6476
16599TIP3    H171212   2.767   6.625  15.786  1.8990  0.1231  0.3397
16599TIP3    H271213   2.799   6.597  15.641 -0.6153 -0.7919 -0.0992
16600TIP3   OH271214   0.487   5.767  12.391  0.1889 -0.2520 -0.0855
16600TIP3    H171215   0.408   5.723  12.359 -0.2259  0.1261  0.4051
16600TIP3    H271216   0.529   5.703  12.449 -0.1758 -0.1673  0.2738
16601TIP3   OH271217   1.610   1.419  16.504 -0.0475 -0.4030 -0.6433
16601TIP3    H171218   1.556   1.392  16.578  0.8802 -0.9723 -0.1614
16601TIP3    H271219   1.549   1.421  16.429 -0.8467 -0.4684 -0.0071
16602TIP3   OH271220   5.175   4.234  14.553 -0.5245  0.0450 -0.0423
16602TIP3    H171221   5.184   4.216  14.460 -1.2064 -2.1125  0.2420
16602TIP3    H271222   5.082   4.252  14.566 -0.3920  0.5917  0.1957
16603TIP3   OH271223   0.537   5.774   2.503  0.2941 -0.1527  0.1064
16603TIP3    H171224   0.555   5.853   2.452  0.4969  1.0917  2.0056
16603TIP3    H271225   0.560   5.797   2.593 -1.0081 -1.9147  0.9580
16604TIP3   OH271226   4.207   5.254  11.553 -0.1243  0.7594 -0.0231
16604TIP3    H171227   4.290   5.219  11.519 -0.0108  1.3723 -0.3792
16604TIP3    H271228   4.178   5.188  11.616  0.2452  0.1677 -0.4631
16605TIP3   OH271229   6.218   4.640  16.915  0.3706 -0.2818  0.3450
16605TIP3    H171230   6.183   4.569  16.862 -0.0880  0.5857 -0.5569
16605TIP3    H271231   6.267   4.694  16.853 -0.2482  0.8058  0.7676
16606TIP3   OH271232   3.993   5.154  13.088  0.2928 -0.5933 -0.0603
16606TIP3    H171233   4.063   5.192  13.142 -0.1925 -1.3082  1.1176
16606TIP3    H271234   3.917   5.210  13.104 -0.4442 -2.0184  1.7399
16607TIP3   OH271235   1.254   2.179  10.725 -0.1422 -0.2973 -0.2829
16607TIP3    H171236   1.250   2.196  10.819 -0.3328 -1.0410 -0.1474
16607TIP3    H271237   1.255   2.084  10.718 -2.5902 -0.3549 -1.0865
16608TIP3   OH271238   2.882   1.465   4.578  0.6312  0.6771 -0.2086
16608TIP3    H171239   2.800   1.423   4.552  0.5615 -0.5041  1.7038
16608TIP3    H271240   2.882   1.460   4.673  2.4833  1.5299 -0.1244
16609TIP3   OH271241   0.838   0.710   3.362 -0.4680  0.4836  0.0161
16609TIP3    H171242   0.853   0.788   3.417  3.9477  1.1456 -1.7045
16609TIP3    H271243   0.785   0.742   3.289 -2.1729  0.7469  1.2815
16610TIP3   OH271244   0.268   0.428  14.725 -0.1148 -0.2813 -0.0379
16610TIP3    H171245   0.354   0.430  14.682 -0.2954 -0.2155 -0.3951
16610TIP3    H271246   0.270   0.349  14.779 -0.2344 -0.8739 -0.8811
16611TIP3   OH271247   1.710   3.534  11.070  0.0844  0.0793 -0.0579
16611TIP3    H171248   1.789   3.482  11.082  0.5337  0.5353 -0.9487
16611TIP3    H271249   1.730   3.593  10.997 -0.5560  1.2099  0.6345
16612TIP3   OH271250   0.399   6.130  17.069  0.4978  0.0397 -0.1907
16612TIP3    H171251   0.416   6.181  16.990  0.7799 -1.2878 -1.0144
16612TIP3    H271252   0.413   6.039  17.043  0.6906 -0.4242  1.4150
16613TIP3   OH271253   4.413   0.391  14.735 -0.4773  0.1227  0.0510
16613TIP3    H171254   4.445   0.465  14.682 -0.3662  1.3175  1.7155
16613TIP3    H271255   4.342   0.353  14.682  0.2131  0.6934 -1.3449
16614TIP3   OH271256   2.118   4.575   0.190 -0.3389 -0.0355 -0.0235
16614TIP3    H171257   2.025   4.592   0.209  0.0823  1.4349  0.8654
16614TIP3    H271258   2.116   4.503   0.127 -2.0663 -0.3822  0.3575
16615TIP3   OH271259   6.329   0.915   2.185  0.3651 -0.9379  0.0297
16615TIP3    H171260   6.315   0.821   2.182 -0.9422 -0.8279  1.3352
16615TIP3    H271261   6.346   0.940   2.094  3.5706 -2.7534 -0.0123
16616TIP3   OH271262   6.115   5.021   0.617 -0.4543 -0.0560 -0.6234
16616TIP3    H171263   6.058   5.070   0.557 -0.6425 -0.9735 -1.2111
16616TIP3    H271264   6.189   4.995   0.562 -0.1341 -0.0409 -0.1990
16617TIP3   OH271265   0.129   1.704  16.849  0.1272  0.1786  0.5473
16617TIP3    H171266   0.136   1.790  16.807 -2.6912  0.4928  0.5158
16617TIP3    H271267   0.137   1.722  16.943 -3.2776  1.0761  0.8189
16618TIP3   OH271268   5.633   3.357   5.889  0.0466  0.3421  0.1208
16618TIP3    H171269   5.723   3.332   5.866 -0.0358 -0.3413  0.5208
16618TIP3    H271270   5.605   3.414   5.817  1.4818  2.2228  0.9668
16619TIP3   OH271271   1.004   2.782  14.266 -0.1306  0.0815  0.0166
16619TIP3    H171272   0.948   2.837  14.321  0.0668  2.3119 -1.8563
16619TIP3    H271273   0.947   2.711  14.236 -0.6413 -0.3041  1.7876
16620TIP3   OH271274   6.285   4.209  16.376 -0.1537  0.9871  0.1437
16620TIP3    H171275   6.357   4.267  16.350  0.2374 -0.0455 -1.1873
16620TIP3    H271276   6.206   4.259  16.355  0.1722  0.9209 -1.3570
16621TIP3   OH271277   5.062   3.691  14.813 -0.5322  0.9083 -0.0940
16621TIP3    H171278   4.975   3.722  14.789 -1.7544 -0.6851  1.9755
16621TIP3    H271279   5.106   3.768  14.848 -2.2664  1.1548  1.7332
16622TIP3   OH271280   1.001   6.543  12.950 -0.0939 -0.0731 -0.5256
16622TIP3    H171281   0.930   6.526  12.888  1.0193  1.4846 -2.3344
16622TIP3    H271282   1.014   6.637  12.947  1.8855 -0.2768 -0.0877
16623TIP3   OH271283   2.221   1.984  16.112 -0.3298 -0.1812  0.1169
16623TIP3    H171284   2.226   2.077  16.133  1.5482 -0.7085  2.3976
16623TIP3    H271285   2.157   1.949  16.174  0.3014 -0.6847  0.4939
16624TIP3   OH271286   3.488   1.036  12.061  0.6681 -0.1429  0.1401
16624TIP3    H171287   3.473   1.130  12.056 -0.8148 -0.3541 -0.0035
16624TIP3    H271288   3.453   1.011  12.147 -0.5126 -0.7805 -0.4874
16625TIP3   OH271289   3.835   3.785   4.773 -0.5439  0.6444  0.1260
16625TIP3    H171290   3.781   3.842   4.719  0.4901  2.2045  0.6576
16625TIP3    H271291   3.848   3.834   4.854 -0.2229 -0.6903  0.9199
16626TIP3   OH271292   0.941   0.085  11.676 -0.3491  0.3234 -0.2441
16626TIP3    H171293   0.985   0.020  11.731 -2.5987  0.2161  1.5600
16626TIP3    H271294   0.948   0.049  11.588  1.1784 -0.7818  0.2759
16627TIP3   OH271295   1.985   5.954  14.473 -0.4828 -0.1332  0.4480
16627TIP3    H171296   1.917   5.988  14.414 -1.3427 -0.8813  0.9771
16627TIP3    H271297   2.000   6.026  14.535 -0.3570  0.2534 -0.0204
16628TIP3   OH271298   2.052   1.238   4.459 -0.1882  0.3859  0.2178
16628TIP3    H171299   2.104   1.271   4.386 -1.2754 -1.9975 -1.7470
16628TIP3    H271300   1.962   1.262   4.437 -0.8422 -2.4720 -0.5850
16629TIP3   OH271301   1.275   3.687   1.197 -0.1828  0.4455 -0.1604
16629TIP3    H171302   1.275   3.778   1.167  3.5452  1.1360  1.3529
16629TIP3    H271303   1.353   3.648   1.156 -0.4114 -1.3717  1.0228
16630TIP3   OH271304   0.023   4.120   2.291  0.5657 -0.2012 -0.0357
16630TIP3    H171305  -0.033   4.109   2.368  0.4044  1.0889  0.0502
16630TIP3    H271306  -0.029   4.087   2.218  1.3576 -3.0406  0.5885
16631TIP3   OH271307   5.156   3.884   3.945 -0.1676 -0.0815  0.1288
16631TIP3    H171308   5.226   3.888   3.880 -0.1307  1.8285  0.2131
16631TIP3    H271309   5.191   3.931   4.020 -1.2007  0.0949  0.5169
16632TIP3   OH271310   6.031   1.613  13.717  0.0635 -0.1436 -0.2286
16632TIP3    H171311   5.988   1.530  13.739  0.7290 -0.5420 -0.4013
16632TIP3    H271312   6.012   1.626  13.624  0.3192 -0.3190 -0.3047
16633TIP3   OH271313   6.237   0.339   2.881 -0.2908 -0.2069 -0.0689
16633TIP3    H171314   6.147   0.322   2.851 -0.7559 -0.9467  1.6387
16633TIP3    H271315   6.239   0.434   2.896 -0.7172 -0.1543 -0.3198
16634TIP3   OH271316   5.467   3.348  15.169  1.2810 -0.5171 -0.6307
16634TIP3    H171317   5.418   3.268  15.189 -0.8390  0.8900  0.1961
16634TIP3    H271318   5.484   3.387  15.254  0.5245  0.8662 -1.0852
16635TIP3   OH271319   0.836   5.669  13.938  0.1425  0.0310 -0.2935
16635TIP3    H171320   0.930   5.662  13.949 -0.0587 -0.4740  1.5066
16635TIP3    H271321   0.803   5.579  13.950 -0.5412  0.1198 -1.3413
16636TIP3   OH271322   1.437   3.799   4.382 -0.1384  0.6407  0.3338
16636TIP3    H171323   1.510   3.767   4.328  0.7955  0.1369  1.8533
16636TIP3    H271324   1.424   3.731   4.447 -2.3371  0.4905 -0.1966
16637TIP3   OH271325   4.239   0.486   1.965 -0.3306 -0.2580  0.0457
16637TIP3    H171326   4.314   0.438   1.929  0.5692  0.4840  0.8627
16637TIP3    H271327   4.267   0.578   1.962 -0.6182 -0.0982  1.7300
16638TIP3   OH271328   1.171   1.653  13.618 -0.2615  0.6492 -0.5742
16638TIP3    H171329   1.185   1.695  13.703  0.0400  0.2588 -0.4252
16638TIP3    H271330   1.086   1.686  13.588  0.0899  1.5643 -0.5904
16639TIP3   OH271331   2.154   4.472  14.561 -0.3304 -0.0420 -0.4086
16639TIP3    H171332   2.154   4.536  14.489 -0.2256  0.6248  0.1659
16639TIP3    H271333   2.085   4.503  14.619  0.2229 -0.0199  0.2455
16640TIP3   OH271334   4.681   3.289   5.889 -0.6315 -0.5526 -0.2087
16640TIP3    H171335   4.706   3.224   5.823 -0.6803 -0.5578 -0.2214
16640TIP3    H271336   4.741   3.274   5.962  0.4869  0.4729 -0.8673
16641TIP3   OH271337   0.071   3.762  14.294 -0.2387 -0.3572 -0.1049
16641TIP3    H171338   0.148   3.779  14.240  0.0045 -1.2413 -0.0630
16641TIP3    H271339   0.033   3.682  14.256  1.0098 -2.1127  2.1391
16642TIP3   OH271340   3.867   3.573  17.247 -0.3434 -0.5726  0.2521
16642TIP3    H171341   3.843   3.665  17.259 -1.5293 -0.7435 -0.6632
16642TIP3    H271342   3.962   3.575  17.234 -0.2644  0.4494  0.8507
16643TIP3   OH271343   0.929   0.088   4.849  0.3354 -0.2328  0.3918
16643TIP3    H171344   0.860   0.111   4.912 -0.3588  0.0277 -0.4442
16643TIP3    H271345   0.971   0.171   4.828  1.4003 -0.4766  1.4276
16644TIP3   OH271346   1.273   4.249  15.632  0.3626  0.6688 -0.6098
16644TIP3    H171347   1.283   4.164  15.588  1.0579  1.1713 -1.4478
16644TIP3    H271348   1.295   4.231  15.724 -0.9956 -0.3702 -0.4554
16645TIP3   OH271349   0.710   0.514  12.980 -0.7221 -0.1756 -0.2560
16645TIP3    H171350   0.651   0.442  12.957 -2.1216  0.1048  2.1372
16645TIP3    H271351   0.652   0.588  12.997  0.4385  0.5453  0.6916
16646TIP3   OH271352   6.434   4.120   0.911 -0.2691  0.2642  0.7375
16646TIP3    H171353   6.455   4.132   0.819 -3.2222 -1.8655 -0.3969
16646TIP3    H271354   6.497   4.054   0.941  0.2494  0.4219  0.0229
16647TIP3   OH271355   1.481   2.251   0.001  0.0087  0.2320 -0.5081
16647TIP3    H171356   1.552   2.288   0.054  0.4469 -1.0090 -0.2038
16647TIP3    H271357   1.464   2.165   0.039 -0.3710 -0.2747 -1.7568
16648TIP3   OH271358   0.575   2.370  16.247 -0.5617  0.0174  0.2343
16648TIP3    H171359   0.662   2.335  16.227  0.6905  2.4244  1.0251
16648TIP3    H271360   0.514   2.313  16.201  1.4591 -1.5183 -0.6642
16649TIP3   OH271361   0.345   5.900   1.148  0.1281 -0.5233  0.2098
16649TIP3    H171362   0.365   5.856   1.230  1.2288  0.2073  0.3606
16649TIP3    H271363   0.271   5.852   1.111  0.9560 -2.1449  0.6033
16650TIP3   OH271364   6.560   0.933   4.445  0.3164  0.3763  0.2132
16650TIP3    H171365   6.636   0.875   4.442  0.3127  0.2786  1.3771
16650TIP3    H271366   6.490   0.881   4.406  0.4944 -0.1281  0.5415
16651TIP3   OH271367   5.635   5.865  13.133  0.0522  0.4427 -0.0207
16651TIP3    H171368   5.652   5.927  13.205  0.0059 -0.5811  0.8992
16651TIP3    H271369   5.541   5.846  13.141  0.2847 -0.5826  0.4083
16652TIP3   OH271370   0.931   4.143   0.557 -0.3171  0.2986  0.1800
16652TIP3    H171371   0.919   4.235   0.579 -0.4276  0.1073  0.9595
16652TIP3    H271372   0.936   4.099   0.642  1.6623 -0.1874 -0.1429
16653TIP3   OH271373   0.328   4.848   4.399 -0.5695  0.4675  0.4040
16653TIP3    H171374   0.235   4.829   4.410 -0.3660  0.2798  2.0286
16653TIP3    H271375   0.370   4.807   4.474  0.8677  0.3455 -0.4298
16654TIP3   OH271376   5.597   1.495   2.377 -0.0741 -0.2531 -0.2149
16654TIP3    H171377   5.551   1.454   2.305 -1.4522  0.5482  0.1718
16654TIP3    H271378   5.532   1.502   2.447  0.9231 -0.0407  0.7347
16655TIP3   OH271379   5.203   6.613  12.981 -0.4365  0.3338 -1.1097
16655TIP3    H171380   5.137   6.579  13.041 -0.5772  1.3498 -0.6696
16655TIP3    H271381   5.285   6.611  13.031 -0.2129 -0.4740 -1.4936
16656TIP3   OH271382   6.202   2.887  11.335  0.2953 -0.0186 -0.2783
16656TIP3    H171383   6.172   2.975  11.356 -1.4001 -0.8106  0.8723
16656TIP3    H271384   6.197   2.882  11.239  2.6493  1.8176 -0.5948
16657TIP3   OH271385   1.264   6.217  16.027  0.4095 -0.0722  0.4954
16657TIP3    H171386   1.205   6.287  16.000 -0.2300 -0.9384 -0.4391
16657TIP3    H271387   1.217   6.171  16.097 -1.1425 -2.1526 -1.7385
16658TIP3   OH271388   0.453   0.692   2.583 -0.4335  0.5681  0.1492
16658TIP3    H171389   0.487   0.657   2.501 -1.6115  0.1419 -0.1719
16658TIP3    H271390   0.363   0.717   2.563 -0.6411  0.7259  1.2350
16659TIP3   OH271391   1.822   5.188   1.403 -0.4822 -0.1352  0.2092
16659TIP3    H171392   1.807   5.095   1.423  0.0098  0.3028  3.0580
16659TIP3    H271393   1.883   5.187   1.330 -1.1770 -2.0376 -0.4082
16660TIP3   OH271394   0.476   6.104  13.538 -0.1580 -0.0155 -0.2192
16660TIP3    H171395   0.469   6.171  13.470 -0.6005 -0.0152 -0.1756
16660TIP3    H271396   0.569   6.080  13.539 -0.3174 -0.7463 -1.5304
16661TIP3   OH271397   3.399   6.381   3.617  0.2036 -0.3935 -0.0168
16661TIP3    H171398   3.375   6.294   3.649 -1.8086  0.5285  1.2215
16661TIP3    H271399   3.315   6.422   3.593  0.9071  1.6541  0.7380
16662TIP3   OH271400   4.722   6.661   4.197 -0.3508  0.0025  0.1595
16662TIP3    H171401   4.643   6.697   4.158 -0.1153 -1.7965 -2.2021
16662TIP3    H271402   4.784   6.656   4.124  0.3170 -3.0405  0.7989
16663TIP3   OH271403   6.625   0.673  15.699 -0.0855 -0.0756 -0.2622
16663TIP3    H171404   6.601   0.765  15.697 -0.3935 -0.0633  1.7184
16663TIP3    H271405   6.630   0.647  15.607 -0.4037  1.7943 -0.8443
16664TIP3   OH271406   3.312   3.628  10.567  0.4018 -0.1222  0.2786
16664TIP3    H171407   3.247   3.602  10.633  0.4024  0.3399  0.4640
16664TIP3    H271408   3.305   3.723  10.563  0.4157 -0.1434 -0.3785
16665TIP3   OH271409   1.669   6.586   6.552  0.2080 -0.0395 -0.1791
16665TIP3    H171410   1.635   6.570   6.639 -0.2079  2.5282  0.2292
16665TIP3    H271411   1.751   6.634   6.567  0.8278 -0.7352 -1.1998
16666TIP3   OH271412   2.070   5.907  14.005  0.6194  0.4961 -0.4506
16666TIP3    H171413   2.119   5.885  14.084 -0.4272 -0.4194 -0.0357
16666TIP3    H271414   1.978   5.890  14.028  0.4147 -1.1680 -2.3011
16667TIP3   OH271415   2.617   3.848  10.566  0.1705 -0.1733  0.7738
16667TIP3    H171416   2.698   3.894  10.587 -0.6065  1.4492  0.3308
16667TIP3    H271417   2.633   3.808  10.481  0.0823  1.2584  0.0611
16668TIP3   OH271418   0.373   6.419   2.709 -0.4741  0.0448 -0.1726
16668TIP3    H171419   0.306   6.364   2.669 -1.6950  0.3961  1.2525
16668TIP3    H271420   0.441   6.359   2.736 -0.4339 -0.3909 -1.1957
16669TIP3   OH271421   3.617   4.577  13.894  0.0327 -0.5515 -0.1967
16669TIP3    H171422   3.700   4.609  13.929  0.1195  0.4056 -1.1936
16669TIP3    H271423   3.638   4.491  13.858  0.5069 -0.4897 -0.0803
16670TIP3   OH271424   6.002   0.070  14.948 -0.2526  0.4057 -0.1920
16670TIP3    H171425   5.946   0.014  14.894  1.0522 -1.7234  0.5373
16670TIP3    H271426   5.980   0.046  15.038  2.2033 -0.9898  0.1158
16671TIP3   OH271427   4.529   6.576   5.051  0.0371  0.1617 -0.1452
16671TIP3    H171428   4.496   6.530   4.974 -0.9664  0.7695 -0.0926
16671TIP3    H271429   4.451   6.596   5.103  0.5432  1.1185  0.2687
16672TIP3   OH271430   2.468   4.885   4.543 -0.1518  0.5628 -0.2345
16672TIP3    H171431   2.442   4.819   4.606  1.4389  0.0860 -0.0372
16672TIP3    H271432   2.476   4.838   4.460  1.8205  0.2566  0.0724
16673TIP3   OH271433   2.149   1.093   5.461  0.5162  0.1567  0.1542
16673TIP3    H171434   2.146   1.109   5.556  1.2632  0.2373  0.1712
16673TIP3    H271435   2.242   1.102   5.439  0.7673 -2.4763 -0.1332
16674TIP3   OH271436   3.531   3.907   3.493 -0.3414  0.5430 -0.3737
16674TIP3    H171437   3.439   3.891   3.514 -0.6481  1.7351 -0.7489
16674TIP3    H271438   3.529   3.951   3.408  0.5306  1.1656 -0.0871
16675TIP3   OH271439   4.204   3.472  14.070 -0.0085  0.2077  0.2893
16675TIP3    H171440   4.147   3.484  14.145 -0.6815 -1.2406  0.0540
16675TIP3    H271441   4.145   3.465  13.995  0.6685  2.0276 -0.4643
16676TIP3   OH271442   2.163   0.611  15.965  0.1192 -0.0864 -0.0249
16676TIP3    H171443   2.100   0.579  16.030  1.1473 -0.6241  0.7492
16676TIP3    H271444   2.167   0.541  15.899  1.3468 -0.9968  0.9565
16677TIP3   OH271445   1.803   1.187   2.483  0.2842 -0.5753 -0.4336
16677TIP3    H171446   1.852   1.264   2.454 -0.5450  0.1047 -0.0752
16677TIP3    H271447   1.815   1.185   2.578  1.0638 -1.4360 -0.5354
16678TIP3   OH271448   5.977   2.912  11.119  0.0582 -0.0799  0.1698
16678TIP3    H171449   5.913   2.878  11.056 -0.1625 -0.2966  0.5034
16678TIP3    H271450   6.028   2.976  11.070  0.3414 -0.7431 -0.4159
16679TIP3   OH271451   4.483   4.018  14.482  0.3116  0.0942  0.3340
16679TIP3    H171452   4.418   4.046  14.418 -0.1672  1.1369  1.2372
16679TIP3    H271453   4.433   4.005  14.563  1.1790  0.6901  0.9849
16680TIP3   OH271454   2.222   1.898  10.820  0.7761  0.1713 -0.3453
16680TIP3    H171455   2.147   1.884  10.878 -0.4192  0.4849 -1.7408
16680TIP3    H271456   2.193   1.865  10.735  1.1738  2.6950 -1.5736
16681TIP3   OH271457   1.017   4.195  12.279 -0.3743 -0.3174 -0.1400
16681TIP3    H171458   1.022   4.147  12.197 -0.5746 -0.4913 -0.0506
16681TIP3    H271459   0.939   4.160  12.323 -1.1706  0.8497 -0.5653
16682TIP3   OH271460   3.299   5.054  14.596 -0.0549 -0.4059  0.3800
16682TIP3    H171461   3.238   5.080  14.528 -0.1823  0.5654  0.8449
16682TIP3    H271462   3.244   5.037  14.673  0.1859 -0.3245  0.5727
16683TIP3   OH271463   0.018   2.182  11.024  0.8459 -0.5364  0.4039
16683TIP3    H171464  -0.074   2.168  11.001  0.8133 -2.0648  1.3320
16683TIP3    H271465   0.035   2.273  11.000 -1.4324  0.3998  1.9869
16684TIP3   OH271466   1.105   1.458   3.815 -0.6367 -0.3519  0.1614
16684TIP3    H171467   1.160   1.380   3.808  1.5263  0.8030  2.6381
16684TIP3    H271468   1.042   1.436   3.883 -1.2198 -0.5426 -0.4283
16685TIP3   OH271469   0.231   5.128  11.516  0.4560  0.4464 -0.1195
16685TIP3    H171470   0.303   5.169  11.469  0.3353 -0.2088 -0.8940
16685TIP3    H271471   0.153   5.150  11.466  0.3386 -0.3306 -0.2948
16686TIP3   OH271472   4.305   2.745   1.751 -0.0521  0.1298  0.2875
16686TIP3    H171473   4.280   2.828   1.792  2.8609  1.7349 -0.8069
16686TIP3    H271474   4.347   2.695   1.821  2.7152  1.8373  0.0433
16687TIP3   OH271475   0.180   0.290   2.000  0.2170 -0.1684  0.4379
16687TIP3    H171476   0.213   0.367   1.955  2.4432 -1.1876  0.1767
16687TIP3    H271477   0.121   0.249   1.937  1.5033 -0.3378 -0.7245
16688TIP3   OH271478   6.728   2.242  12.459 -0.3565 -0.4306 -0.0315
16688TIP3    H171479   6.700   2.189  12.534 -0.6135  2.7015  2.2596
16688TIP3    H271480   6.650   2.248  12.404 -0.1503 -2.8155 -0.7145
16689TIP3   OH271481   5.477   4.141  16.527 -0.1839  0.3019 -0.0117
16689TIP3    H171482   5.418   4.195  16.580 -0.2696  0.4293 -0.2303
16689TIP3    H271483   5.424   4.065  16.503 -0.5407  0.7931 -0.8746
16690TIP3   OH271484   6.697   6.772  16.239 -0.3683  0.4362  0.3964
16690TIP3    H171485   6.779   6.780  16.190  0.2600  0.8690  1.4967
16690TIP3    H271486   6.637   6.730  16.177  0.6379  0.2227 -0.4700
16691TIP3   OH271487   2.568   6.222  15.568  0.3198  0.1664 -0.1806
16691TIP3    H171488   2.654   6.214  15.529  0.5051 -1.3973  0.4749
16691TIP3    H271489   2.542   6.133  15.589 -1.8806  0.4689 -1.2148
16692TIP3   OH271490   3.091   3.795   3.260  0.7302 -0.0452 -0.1039
16692TIP3    H171491   3.160   3.809   3.195  0.4208  0.9243 -0.2393
16692TIP3    H271492   3.136   3.800   3.344  1.1189 -1.2288 -0.2256
16693TIP3   OH271493   5.434   1.313  13.282  0.3388 -0.0651  0.8112
16693TIP3    H171494   5.366   1.371  13.316  0.9181  2.0088 -1.2899
16693TIP3    H271495   5.391   1.263  13.213  0.9803  1.7124 -0.9665
16694TIP3   OH271496   1.836   4.322   2.599  0.0077 -0.0963 -0.2203
16694TIP3    H171497   1.747   4.337   2.567 -0.0257  2.5336  0.8653
16694TIP3    H271498   1.892   4.354   2.528  0.0754 -0.3482 -0.2827
16695TIP3   OH271499   5.969   0.126  11.104 -0.6646 -0.4187  0.5382
16695TIP3    H171500   5.892   0.079  11.070 -0.6062 -0.1097 -0.0238
16695TIP3    H271501   5.933   0.190  11.165 -0.8321 -0.4302  0.4510
16696TIP3   OH271502   2.018   2.308   4.057  0.2150 -0.7123 -0.1417
16696TIP3    H171503   1.957   2.275   3.991  1.2357  0.2254 -1.6346
16696TIP3    H271504   2.072   2.232   4.080 -0.9476 -1.3449  0.5786
16697TIP3   OH271505   0.175   6.169  12.281  0.5501 -0.5382 -0.0835
16697TIP3    H171506   0.095   6.204  12.320  1.9171 -0.0174  2.5369
16697TIP3    H271507   0.169   6.074  12.295  0.4190 -0.4903  0.1965
16698TIP3   OH271508   3.426   2.955   2.342 -0.0577  0.0031  0.0686
16698TIP3    H171509   3.372   2.878   2.321 -0.2506  0.7303 -2.4215
16698TIP3    H271510   3.369   3.030   2.326  1.0680  0.7387 -0.6469
16699TIP3   OH271511   1.217   5.244  16.918  0.1512  1.0094 -0.5011
16699TIP3    H171512   1.175   5.204  16.842 -0.8740 -2.0113  1.4139
16699TIP3    H271513   1.144   5.265  16.976  0.9878  0.5438  0.7658
16700TIP3   OH271514   4.909   4.928   1.091  0.0944  0.2632  0.1310
16700TIP3    H171515   4.938   4.880   1.013  2.1568  0.9000  0.4530
16700TIP3    H271516   4.944   5.017   1.079 -1.5468  1.0257  0.7094
16701TIP3   OH271517   5.969   2.667   4.206 -0.4753 -0.2672  0.1058
16701TIP3    H171518   5.973   2.729   4.280  0.6466 -1.2071  0.8604
16701TIP3    H271519   6.008   2.715   4.133 -0.6414  0.3105  0.3841
16702TIP3   OH271520   3.500   2.525   3.413  0.7047  0.1900 -0.1833
16702TIP3    H171521   3.484   2.468   3.489  0.0777 -0.4075 -0.7546
16702TIP3    H271522   3.481   2.613   3.446 -0.8595 -0.1876  0.0155
16703TIP3   OH271523   2.789   0.909  15.128  0.4808 -0.2929 -0.2174
16703TIP3    H171524   2.777   0.967  15.053  1.3717  1.0649  0.6343
16703TIP3    H271525   2.748   0.955  15.201  1.1292 -0.7668  0.4675
16704TIP3   OH271526   4.442   0.268   1.038  0.5370  0.0033 -0.0119
16704TIP3    H171527   4.485   0.351   1.018  0.1747  0.6750  1.7857
16704TIP3    H271528   4.514   0.210   1.063  0.8338 -0.3840 -1.6669
16705TIP3   OH271529   3.927   4.308  14.917 -0.4087 -0.1990  0.5419
16705TIP3    H171530   3.847   4.345  14.955  0.2983  0.2158  1.6923
16705TIP3    H271531   3.901   4.278  14.830 -1.6523  0.5432  0.6330
16706TIP3   OH271532   0.874   3.902   4.490 -0.3293  0.0060  0.9000
16706TIP3    H171533   0.886   3.985   4.535  1.6697  1.0606 -1.3481
16706TIP3    H271534   0.960   3.859   4.495 -1.4524 -2.2934  2.5102
16707TIP3   OH271535   1.087   0.694  14.434  0.7190 -0.1741  0.2357
16707TIP3    H171536   1.015   0.736  14.482  3.3238  1.6040  3.0059
16707TIP3    H271537   1.157   0.760  14.433  2.6447 -2.0697 -1.5186
16708TIP3   OH271538   3.158   6.737   4.881  0.0334 -0.1399 -0.0244
16708TIP3    H171539   3.152   6.729   4.976  0.1564 -1.4504 -0.1110
16708TIP3    H271540   3.147   6.647   4.848 -3.4891  0.6158 -1.4585
16709TIP3   OH271541   6.429   3.615  14.515  0.4252  0.4310 -0.4258
16709TIP3    H171542   6.427   3.617  14.611  0.1787 -1.4037 -0.3566
16709TIP3    H271543   6.391   3.530  14.492  0.9802  0.6086 -2.1321
16710TIP3   OH271544   1.714   2.372   3.781 -0.2745  0.3256  0.2093
16710TIP3    H171545   1.637   2.363   3.725 -0.3222  2.2715 -0.0887
16710TIP3    H271546   1.785   2.393   3.721 -0.2955  2.2809  0.8263
16711TIP3   OH271547   5.931   5.058   4.029 -0.2239  0.8327 -0.2150
16711TIP3    H171548   5.984   5.134   4.007  0.5647  0.2240 -0.4856
16711TIP3    H271549   5.976   5.019   4.104 -0.6256  0.6391 -0.0733
16712TIP3   OH271550   1.200   6.655  17.285  0.1551 -0.2497  0.2561
16712TIP3    H171551   1.251   6.642  17.205  1.6665 -0.8435  1.2701
16712TIP3    H271552   1.263   6.643  17.356 -1.3588 -0.7434  1.5751
16713TIP3   OH271553   0.888   1.187  13.036 -0.3699  0.0068 -0.7505
16713TIP3    H171554   0.969   1.140  13.056  0.5385  1.8501  0.1901
16713TIP3    H271555   0.819   1.133  13.075  0.7219 -0.0761  1.2178
16714TIP3   OH271556   1.305   1.479  11.314 -0.3641  0.5015  0.1176
16714TIP3    H171557   1.337   1.390  11.327  0.2878  0.7056 -0.0640
16714TIP3    H271558   1.340   1.528  11.388  0.9426  1.0278 -0.8012
16715TIP3   OH271559   5.148   2.301   4.474  0.2570 -0.2425  0.3794
16715TIP3    H171560   5.089   2.377   4.474 -0.3242 -0.6945  0.1937
16715TIP3    H271561   5.235   2.339   4.463  0.0852  0.4951  1.4238
16716TIP3   OH271562   5.212   1.659  11.844  0.1240 -0.6671  0.5801
16716TIP3    H171563   5.152   1.706  11.788  0.2159 -0.1517  0.9111
16716TIP3    H271564   5.169   1.574  11.860 -0.8341 -0.0601  1.3605
16717TIP3   OH271565   3.746   4.558  13.357 -0.1321 -0.5927  0.2261
16717TIP3    H171566   3.654   4.585  13.364 -0.1915 -1.0369  1.2374
16717TIP3    H271567   3.767   4.572  13.264 -1.3807 -1.0200 -0.1497
16718TIP3   OH271568   6.089   5.922  10.983  0.4890 -0.1695  0.4812
16718TIP3    H171569   6.047   6.004  10.957  0.8739  0.9664  3.1229
16718TIP3    H271570   6.096   5.872  10.901 -2.1688  1.2837 -0.7812
16719TIP3   OH271571   2.427   6.093  14.640  0.6541  0.3476 -0.1649
16719TIP3    H171572   2.448   6.132  14.555  2.8736  0.3284  0.3144
16719TIP3    H271573   2.493   6.129  14.699  1.5413 -2.5228  0.7333
16720TIP3   OH271574   1.369   0.287  12.046  0.2536 -0.0823  0.2205
16720TIP3    H171575   1.331   0.278  12.133  2.8549 -0.5314  1.4179
16720TIP3    H271576   1.458   0.319  12.062  1.3471 -1.6584 -2.1372
16721TIP3   OH271577   4.244   5.116   1.362 -0.4059  0.3037  0.4246
16721TIP3    H171578   4.169   5.172   1.342 -1.0914 -0.7033  0.0967
16721TIP3    H271579   4.222   5.031   1.322  1.7852  0.5261 -1.4770
16722TIP3   OH271580   2.553   4.873  13.100 -0.0608 -0.2016 -0.6416
16722TIP3    H171581   2.550   4.778  13.084  0.8222 -0.3958  0.1871
16722TIP3    H271582   2.465   4.904  13.081 -0.4130 -1.2291 -0.7447
16723TIP3   OH271583   5.015   6.048  14.874 -0.7097 -0.3979  0.2714
16723TIP3    H171584   5.082   6.081  14.813 -0.9865  0.2907  0.3302
16723TIP3    H271585   4.947   6.013  14.817 -1.8023  1.8592  0.0893
16724TIP3   OH271586   0.547   6.264   1.368  0.2508 -0.6081  0.2312
16724TIP3    H171587   0.522   6.347   1.408  0.1837 -1.9005  3.1237
16724TIP3    H271588   0.466   6.231   1.329 -0.3688 -0.5391  1.4286
16725TIP3   OH271589   5.110   0.305  13.311  0.0068  0.7614 -0.1260
16725TIP3    H171590   5.147   0.391  13.289  1.5088 -0.1817 -1.4917
16725TIP3    H271591   5.181   0.260  13.358  0.1754 -0.6090 -1.6136
16726TIP3   OH271592   2.603   0.584   1.678  0.0837  0.3472  0.1589
16726TIP3    H171593   2.697   0.568   1.689 -0.0661 -0.7719 -0.0767
16726TIP3    H271594   2.566   0.570   1.765  0.0254 -0.0547  0.0705
16727TIP3   OH271595   4.969   1.733   2.798  0.3025 -0.0119 -0.0768
16727TIP3    H171596   5.012   1.815   2.824 -0.5632  0.3167  0.3597
16727TIP3    H271597   4.978   1.732   2.702 -1.9234  1.9387 -0.3952
16728TIP3   OH271598   0.725   5.153   1.930  0.4065 -0.3698 -0.0581
16728TIP3    H171599   0.683   5.223   1.980  1.4803  0.5103 -0.3619
16728TIP3    H271600   0.652   5.109   1.885 -0.3675  0.0089  0.7908
16729TIP3   OH271601   2.273   2.088  13.629  0.0313 -0.0261  0.1841
16729TIP3    H171602   2.196   2.033  13.616 -0.7685  1.1367 -0.1837
16729TIP3    H271603   2.298   2.074  13.721 -1.0228  0.0710  0.4950
16730TIP3   OH271604   3.568   4.961  14.036 -0.0681 -0.0638 -0.5402
16730TIP3    H171605   3.516   4.890  13.998  0.3036 -1.0800  0.7480
16730TIP3    H271606   3.580   4.935  14.128 -2.6847  3.2229  0.9558
16731TIP3   OH271607   2.366   4.277  10.461  0.2509  0.2417  0.1980
16731TIP3    H171608   2.414   4.294  10.380 -0.6393 -1.6042 -0.7857
16731TIP3    H271609   2.411   4.329  10.527  1.2160  1.5452 -1.4060
16732TIP3   OH271610   3.061   5.764   1.397  0.0299 -0.7608  0.3360
16732TIP3    H171611   3.098   5.820   1.328 -0.6427 -0.8181 -0.0762
16732TIP3    H271612   3.031   5.826   1.464 -1.8345 -0.5223 -0.6617
16733TIP3   OH271613   0.747   3.766   0.674  1.2238 -0.3844  0.1701
16733TIP3    H171614   0.833   3.806   0.659  1.0692  0.3473  1.1978
16733TIP3    H271615   0.735   3.769   0.768 -0.3069  0.2973 -0.0186
16734TIP3   OH271616   1.272   3.452  17.056 -0.7836  0.3651 -0.1817
16734TIP3    H171617   1.314   3.527  17.097 -0.4213 -0.5947  1.2666
16734TIP3    H271618   1.334   3.422  16.989 -0.2832  0.4776  0.2288
16735TIP3   OH271619   2.522   5.354  13.934  0.0582  0.1526 -0.8825
16735TIP3    H171620   2.439   5.397  13.952  0.6952  0.6183  1.3177
16735TIP3    H271621   2.588   5.420  13.953  1.0046 -1.2095  0.9520
16736TIP3   OH271622   3.020   0.860  11.694 -0.4363 -0.3202 -0.5126
16736TIP3    H171623   2.985   0.778  11.659  0.0999 -0.5664 -0.4805
16736TIP3    H271624   3.108   0.837  11.724 -0.5165  0.1229  0.0671
16737TIP3   OH271625   3.555   6.518   1.028 -0.0480 -0.0795  0.0122
16737TIP3    H171626   3.518   6.606   1.042 -0.3211 -0.5772  3.1699
16737TIP3    H271627   3.646   6.535   1.003 -0.3006  1.1074 -0.1999
16738TIP3   OH271628   2.936   5.296  10.931  0.0949 -0.2805 -0.2775
16738TIP3    H171629   2.936   5.390  10.912  1.0675 -0.5768 -2.0233
16738TIP3    H271630   2.915   5.255  10.847  0.1990 -1.6451  0.3368
16739TIP3   OH271631   4.892   2.177   0.831 -0.5621  1.1995  0.2312
16739TIP3    H171632   4.841   2.103   0.797  0.2495  1.0576 -0.7139
16739TIP3    H271633   4.829   2.226   0.884 -0.8326 -0.8011  1.8841
16740TIP3   OH271634   6.220   3.959  16.224 -0.1560  0.3524  0.2376
16740TIP3    H171635   6.140   3.965  16.277  0.5210  0.9862  1.2140
16740TIP3    H271636   6.214   4.033  16.164 -0.6661 -0.0505 -0.2174
16741TIP3   OH271637   3.606   3.641  12.012 -0.2381 -0.3289 -0.3597
16741TIP3    H171638   3.643   3.648  12.100 -0.4452  0.9356 -0.3517
16741TIP3    H271639   3.532   3.702  12.012 -0.1791 -0.2355 -1.4410
16742TIP3   OH271640   0.154   4.028  13.473 -0.0827 -0.2394 -0.4061
16742TIP3    H171641   0.089   3.957  13.482 -1.2405  0.7800 -0.5099
16742TIP3    H271642   0.149   4.075  13.557 -0.3808  0.5714 -0.8681
16743TIP3   OH271643   0.339   0.569   5.593 -0.4237  0.3590 -0.0798
16743TIP3    H171644   0.298   0.559   5.507 -0.9360  1.9298 -0.0484
16743TIP3    H271645   0.306   0.653   5.626  0.0091 -0.0634  1.5192
16744TIP3   OH271646   4.343   3.980   5.443 -0.0810  0.2320 -0.2877
16744TIP3    H171647   4.296   3.909   5.487 -1.4104  0.7218 -0.8779
16744TIP3    H271648   4.391   3.936   5.373 -0.1324 -0.2095 -0.0513
16745TIP3   OH271649   6.694   3.041  13.279  0.4662 -0.3580  0.2585
16745TIP3    H171650   6.606   3.011  13.303  0.1971 -1.6322 -2.1017
16745TIP3    H271651   6.752   2.976  13.318  0.1016 -1.7506 -1.4267
16746TIP3   OH271652   2.284   3.533  13.729 -0.0717 -0.3227 -0.1585
16746TIP3    H171653   2.295   3.588  13.806 -0.2760 -0.7643  0.1879
16746TIP3    H271654   2.219   3.579  13.676 -0.5674 -0.4453  0.3336
16747TIP3   OH271655   5.824   4.392   3.542  0.1993 -0.4055  0.3659
16747TIP3    H171656   5.828   4.483   3.511  2.3338 -0.3776  0.5782
16747TIP3    H271657   5.908   4.378   3.586 -0.9620 -1.8144  2.3005
16748TIP3   OH271658   1.453   0.794  13.478  0.2830  0.1941 -0.4826
16748TIP3    H171659   1.524   0.779  13.416  1.0025 -1.4726  0.6834
16748TIP3    H271660   1.497   0.828  13.556 -0.4176  0.7597 -0.3282
16749TIP3   OH271661   2.075   1.663   2.428 -0.3566  0.3323  0.2807
16749TIP3    H171662   2.105   1.746   2.466  0.1935 -0.9167  2.7262
16749TIP3    H271663   2.095   1.597   2.494  1.5541 -2.2276 -2.5843
16750TIP3   OH271664   5.741   3.742  10.926 -0.0491 -0.2696 -0.6923
16750TIP3    H171665   5.734   3.834  10.901 -1.1929 -0.1169  0.1199
16750TIP3    H271666   5.788   3.743  11.010 -0.9919 -0.3236 -0.1512
16751TIP3   OH271667   5.026   4.514  11.118 -0.2135  0.1259  0.2510
16751TIP3    H171668   5.033   4.602  11.081 -1.7742  0.1593 -0.0143
16751TIP3    H271669   5.001   4.528  11.209  0.5130 -0.0309  0.4798
16752TIP3   OH271670   5.167   1.474   1.590 -0.0108 -0.1796 -0.6909
16752TIP3    H171671   5.137   1.400   1.537 -0.3488  0.3445 -1.2467
16752TIP3    H271672   5.133   1.455   1.678 -0.1539 -0.6501 -0.8430
16753TIP3   OH271673   4.188   1.467  12.440  0.1121 -0.0387 -0.0664
16753TIP3    H171674   4.252   1.412  12.394  0.3063  0.4336 -0.3742
16753TIP3    H271675   4.194   1.551  12.395 -0.8420 -0.0324 -0.1924
16754TIP3   OH271676   0.929   5.610  15.401 -0.1289 -0.2174  0.9782
16754TIP3    H171677   0.890   5.573  15.321  1.0415 -0.3074  0.4321
16754TIP3    H271678   0.876   5.574  15.472 -2.8262  1.8081  0.1833
16755TIP3   OH271679   5.705   0.480   1.713 -0.5604  0.1993 -0.1119
16755TIP3    H171680   5.761   0.433   1.651 -0.0453 -0.1521  0.6051
16755TIP3    H271681   5.722   0.573   1.695  0.2294  0.0993  0.0537
16756TIP3   OH271682   4.208   2.368  13.311 -0.1357  0.1588 -0.2512
16756TIP3    H171683   4.247   2.297  13.261 -1.7930 -2.1365  1.5092
16756TIP3    H271684   4.141   2.404  13.253 -0.2278 -0.6644 -0.6734
16757TIP3   OH271685   0.108   6.651   1.444 -0.4959  0.1943 -0.2799
16757TIP3    H171686   0.115   6.742   1.414  2.5066  0.8439  1.8789
16757TIP3    H271687   0.125   6.599   1.365 -0.0649  1.5623 -1.1341
16758TIP3   OH271688   1.501   2.547  12.927  0.2146 -0.0214  0.6791
16758TIP3    H171689   1.538   2.489  12.992  0.9082 -1.8585 -1.2289
16758TIP3    H271690   1.505   2.497  12.845 -1.3494  1.8413 -0.6391
16759TIP3   OH271691   3.762   0.549  13.285 -0.0221 -0.1183  0.0203
16759TIP3    H171692   3.817   0.474  13.307  0.2102  0.2172  0.6040
16759TIP3    H271693   3.698   0.514  13.223 -0.1113 -0.8752  0.5267
16760TIP3   OH271694   6.721   3.944   5.323  0.1405 -0.1765  0.4205
16760TIP3    H171695   6.807   3.904   5.338  0.9839  2.1976  2.6956
16760TIP3    H271696   6.713   3.946   5.228  3.6575  1.4238 -0.0127
16761TIP3   OH271697   3.081   3.294  13.225 -0.1895  0.0660  0.2991
16761TIP3    H171698   2.999   3.257  13.258 -0.3286 -0.6636 -0.8309
16761TIP3    H271699   3.058   3.332  13.141  0.6635 -0.2963 -0.1092
16762TIP3   OH271700   2.923   4.325   5.580 -0.0311  0.5399  0.2810
16762TIP3    H171701   2.949   4.395   5.640  0.9354 -0.7399  1.4050
16762TIP3    H271702   2.838   4.295   5.613  0.0536  0.4736  0.4388
16763TIP3   OH271703   0.678   6.652   4.038 -0.1716 -0.0644  0.9976
16763TIP3    H171704   0.758   6.693   4.007 -1.7946  1.9657 -0.8570
16763TIP3    H271705   0.679   6.665   4.133  0.9657  1.2887  0.8317
16764TIP3   OH271706   4.402   1.582  16.043 -0.1283 -0.1918  0.2957
16764TIP3    H171707   4.320   1.581  16.092 -0.1856 -0.2944  0.1987
16764TIP3    H271708   4.405   1.670  16.004  1.4466  1.0719  3.0167
16765TIP3   OH271709   6.149   6.209   1.234  0.2017 -0.3082  0.5492
16765TIP3    H171710   6.214   6.189   1.301 -0.8795 -1.7036  1.2319
16765TIP3    H271711   6.196   6.199   1.151  1.6600  1.8224  1.0295
16766TIP3   OH271712   0.239   3.527  15.641 -0.1447  0.0961  0.1848
16766TIP3    H171713   0.230   3.605  15.696  0.0776 -0.8550  1.6315
16766TIP3    H271714   0.214   3.454  15.698  1.6606 -1.0996 -0.4507
16767TIP3   OH271715   5.382   2.981   4.774 -0.3175 -0.3822 -0.6287
16767TIP3    H171716   5.337   2.934   4.844  1.3187 -1.2717 -0.1320
16767TIP3    H271717   5.320   2.979   4.701 -0.7445 -2.3782 -0.2734
16768TIP3   OH271718   2.901   0.085  11.510  0.4584  0.2097 -0.3316
16768TIP3    H171719   2.928   0.157  11.454  1.4101 -0.7703 -1.1845
16768TIP3    H271720   2.857   0.024  11.451 -5.7150  2.4766  1.1603
16769TIP3   OH271721   1.616   4.431   1.029  0.2217 -0.0561  0.4784
16769TIP3    H171722   1.605   4.476   1.113  0.3380 -0.8530  0.9297
16769TIP3    H271723   1.693   4.376   1.040  2.4086  2.3992 -1.3133
16770TIP3   OH271724   1.959   1.589   1.297  0.0348  0.2659  0.4674
16770TIP3    H171725   1.941   1.683   1.293 -0.5473  0.1312 -0.0968
16770TIP3    H271726   2.032   1.581   1.360 -0.0140  1.0735  0.6280
16771TIP3   OH271727   6.259   3.361   0.355  0.1443 -0.2673 -0.3237
16771TIP3    H171728   6.219   3.434   0.403  1.2400  0.1134  0.0354
16771TIP3    H271729   6.275   3.396   0.267 -0.2971 -0.4250 -0.4726
16772TIP3   OH271730   6.127   3.535  15.690  0.3516 -0.5219  0.2751
16772TIP3    H171731   6.082   3.500  15.613 -0.4892 -0.1540  0.5770
16772TIP3    H271732   6.204   3.480  15.700  2.5617  1.6100 -2.9791
16773TIP3   OH271733   4.073   1.610  11.992 -0.0611  0.1702  0.7861
16773TIP3    H171734   3.985   1.632  12.022 -0.0681  1.4390 -0.0711
16773TIP3    H271735   4.065   1.521  11.960 -1.7291  1.0748 -1.6531
16774TIP3   OH271736   2.797   3.263  15.423 -0.1422 -0.0609  0.6051
16774TIP3    H171737   2.720   3.208  15.434 -1.1036  1.0474 -0.3418
16774TIP3    H271738   2.852   3.217  15.360 -1.8721  0.9415 -1.7596
16775TIP3   OH271739   6.479   5.073   1.049 -0.0837 -0.0078  0.5690
16775TIP3    H171740   6.458   5.135   0.978 -0.3332  0.5210  1.0912
16775TIP3    H271741   6.396   5.061   1.094 -0.3618 -1.8293 -0.3559
16776TIP3   OH271742   0.223   4.003  12.503 -0.2329 -0.5671 -0.2019
16776TIP3    H171743   0.163   3.997  12.429  0.4511  1.1432 -0.9616
16776TIP3    H271744   0.201   4.086  12.546 -2.2303 -2.5939  3.0733
16777TIP3   OH271745   3.957   4.192  11.558 -0.6396  0.3883  0.2379
16777TIP3    H171746   3.954   4.100  11.532  0.9071 -0.0013  1.2910
16777TIP3    H271747   3.892   4.199  11.628  0.3804 -0.3377  1.3020
16778TIP3   OH271748   3.396   5.125  12.920 -0.2045  0.1232 -0.3021
16778TIP3    H171749   3.342   5.072  12.979 -1.2097 -0.0289 -1.3301
16778TIP3    H271750   3.468   5.067  12.895 -2.0142 -1.3634 -2.5119
16779TIP3   OH271751   5.539   5.692  14.665 -0.0426  0.1054  0.1264
16779TIP3    H171752   5.507   5.701  14.755 -1.7219 -2.8840 -0.0403
16779TIP3    H271753   5.557   5.599  14.655  0.9842  0.4777 -2.4082
16780TIP3   OH271754   0.335   2.361  16.697  0.0713 -0.5992  0.7975
16780TIP3    H171755   0.295   2.393  16.616  1.8493  0.1645  0.1799
16780TIP3    H271756   0.339   2.266  16.686 -1.4572 -0.6852  0.8463
16781TIP3   OH271757   4.585   1.440  16.624 -0.4313  0.4065  0.1159
16781TIP3    H171758   4.541   1.364  16.587 -1.5256  1.3407 -0.5587
16781TIP3    H271759   4.535   1.515  16.592  0.6264  1.4199  0.7515
16782TIP3   OH271760   2.087   5.282   3.647  0.4621 -0.3478  0.2976
16782TIP3    H171761   2.117   5.367   3.680  0.5182 -0.0968 -0.3746
16782TIP3    H271762   2.102   5.221   3.719  1.2205  0.0563  0.4897
16783TIP3   OH271763   4.233   0.211  11.839  0.1511 -0.0259  0.3005
16783TIP3    H171764   4.217   0.251  11.924 -0.0190 -1.7444  1.1216
16783TIP3    H271765   4.233   0.285  11.778  1.7161  1.4285  1.9363
16784TIP3   OH271766   5.109   0.617  13.839 -0.4136 -0.0203 -0.3231
16784TIP3    H171767   5.074   0.609  13.750 -0.0808  1.1284 -0.5651
16784TIP3    H271768   5.203   0.599  13.830 -0.5513 -0.9738 -0.0147
16785TIP3   OH271769   6.589   3.056   0.520 -0.2087  0.2411 -0.1858
16785TIP3    H171770   6.684   3.054   0.528 -0.2800  1.2161  1.4146
16785TIP3    H271771   6.562   2.965   0.528  0.3852  0.2560  3.3144
16786TIP3   OH271772   4.390   1.635  10.915  0.1163 -0.0885 -0.3520
16786TIP3    H171773   4.297   1.646  10.936 -0.3861 -2.3560 -1.1384
16786TIP3    H271774   4.424   1.583  10.987  0.4134 -0.5687 -0.8392
16787TIP3   OH271775   0.847   1.400  13.417  0.1378 -0.3065  0.6994
16787TIP3    H171776   0.796   1.475  13.448  1.0356 -0.3032  2.2445
16787TIP3    H271777   0.784   1.327  13.416  0.1434 -0.4154  3.0511
16788TIP3   OH271778   6.087   0.260   1.022 -0.3228  0.2997  0.1381
16788TIP3    H171779   6.144   0.333   1.049 -0.7885  0.1839  1.4931
16788TIP3    H271780   6.098   0.194   1.091 -0.8647 -0.3953 -0.4312
16789TIP3   OH271781   0.584   0.251   5.249  0.3164 -0.3872  0.3091
16789TIP3    H171782   0.504   0.303   5.247  0.0753 -0.6668  1.4956
16789TIP3    H271783   0.654   0.314   5.235 -0.1231 -0.2372 -1.3999
16790TIP3   OH271784   4.920   2.121   3.045 -0.0361  0.1298 -0.1388
16790TIP3    H171785   4.832   2.149   3.017 -0.0580  0.7079  0.4564
16790TIP3    H271786   4.948   2.190   3.105 -0.0867 -1.1518  1.4225
16791TIP3   OH271787   0.996   3.026   0.122 -0.3955  0.1753 -0.3430
16791TIP3    H171788   0.906   3.009   0.094 -1.1353 -1.3068  2.5164
16791TIP3    H271789   0.988   3.049   0.215  2.1999 -0.6441  0.1773
16792TIP3   OH271790   0.195   0.807   6.116  0.4062  0.0705  1.0178
16792TIP3    H171791   0.211   0.850   6.200 -0.9899  0.9120  0.8705
16792TIP3    H271792   0.100   0.812   6.103  0.4991 -0.7817 -0.2269
16793TIP3   OH271793   4.024   5.320   6.069  0.3069  0.3360 -0.2447
16793TIP3    H171794   3.933   5.292   6.076  0.6661 -1.1256 -0.9189
16793TIP3    H271795   4.034   5.346   5.977  0.4426  0.9682 -0.0531
16794TIP3   OH271796   0.443   6.126  15.345 -0.0952  0.0152 -0.1776
16794TIP3    H171797   0.400   6.050  15.384  0.8665  1.5395  4.5446
16794TIP3    H271798   0.374   6.191  15.338  0.0291  0.2603  0.7207
16795TIP3   OH271799   0.378   0.868  13.161 -0.3308  0.1862 -0.0015
16795TIP3    H171800   0.323   0.828  13.093 -0.0461 -1.6977  0.8155
16795TIP3    H271801   0.321   0.872  13.238 -1.1745  3.7723 -0.6390
16796TIP3   OH271802   0.263   3.419   2.591  0.1468 -0.4961 -0.3318
16796TIP3    H171803   0.215   3.338   2.608 -0.3858  0.3701  2.9659
16796TIP3    H271804   0.276   3.458   2.677  1.9509  2.0875 -1.6290
16797TIP3   OH271805   5.963   2.672   5.161  0.0122 -0.5959 -0.0996
16797TIP3    H171806   6.054   2.664   5.189 -0.2960  0.4628  1.3179
16797TIP3    H271807   5.959   2.756   5.116 -0.5197  0.0226  1.0475
16798TIP3   OH271808   4.954   5.917  11.334 -0.0439  0.0605 -0.1362
16798TIP3    H171809   4.981   5.917  11.243 -0.6469  0.6482 -0.3237
16798TIP3    H271810   4.994   5.839  11.371 -1.3789 -1.2779 -1.3800
16799TIP3   OH271811   2.977   4.026  10.454 -0.6810 -0.0307 -0.2685
16799TIP3    H171812   2.945   4.079  10.381  2.0262  0.2609 -1.3702
16799TIP3    H271813   3.048   4.077  10.492  0.7324 -1.9866 -0.1263
16800TIP3   OH271814   4.329   4.473  12.951  0.5278 -0.6550  0.6349
16800TIP3    H171815   4.299   4.562  12.931  1.3129  0.2551  3.1243
16800TIP3    H271816   4.335   4.430  12.866 -1.7178  1.0450 -0.4859
16801TIP3   OH271817   5.961   1.179   5.047 -0.9080  0.1485  0.3714
16801TIP3    H171818   6.013   1.141   5.118  0.3373 -1.0172 -1.0953
16801TIP3    H271819   6.019   1.177   4.971 -2.0628  1.7362 -0.6122
16802TIP3   OH271820   0.345   0.174  11.437  0.6244  0.1937  0.0486
16802TIP3    H171821   0.396   0.109  11.486 -0.8257 -0.6758  0.4730
16802TIP3    H271822   0.321   0.129  11.356  1.7145  1.0949 -0.8008
16803TIP3   OH271823   2.729   3.491   1.599 -0.2280 -0.2617  0.8642
16803TIP3    H171824   2.810   3.502   1.649 -1.3660  1.5646  2.3907
16803TIP3    H271825   2.725   3.568   1.542 -0.9140 -0.3143  0.8348
16804TIP3   OH271826   1.235   3.183   2.197  0.3674 -0.5666  0.6517
16804TIP3    H171827   1.260   3.140   2.116  0.0738 -0.7452  0.6565
16804TIP3    H271828   1.140   3.192   2.192  0.4416  0.2397  0.5731
16805TIP3   OH271829   1.430   1.503  17.170  0.2118  0.1753  0.1072
16805TIP3    H171830   1.462   1.578  17.119 -0.2347 -0.4993 -1.2265
16805TIP3    H271831   1.509   1.451  17.188  0.0740 -1.4676 -3.1461
16806TIP3   OH271832   5.242   4.484  16.662 -0.4042 -0.1150  0.0998
16806TIP3    H171833   5.283   4.568  16.643 -0.7843  0.2437  0.8421
16806TIP3    H271834   5.160   4.486  16.614 -0.1779 -0.2815 -0.3002
16807TIP3   OH271835   2.964   0.247   5.195  0.1379  0.2953 -0.3875
16807TIP3    H171836   2.975   0.278   5.284 -2.7841  0.8013 -0.1296
16807TIP3    H271837   2.908   0.170   5.203  0.8379 -0.3967 -1.7130
16808TIP3   OH271838   0.908   5.315   1.281  0.1023 -0.2677  0.2077
16808TIP3    H171839   0.820   5.287   1.307 -0.2967 -0.1361 -0.9328
16808TIP3    H271840   0.909   5.409   1.299 -0.5175  0.0174 -1.0634
16809TIP3   OH271841   3.021   5.803  12.839 -0.1526  0.6012 -0.0313
16809TIP3    H171842   2.934   5.762  12.838  0.6447 -1.1412 -1.2381
16809TIP3    H271843   3.047   5.801  12.931 -1.6251  1.7371  0.4530
16810TIP3   OH271844   6.435   4.069  11.772  0.1661  0.1732  0.3782
16810TIP3    H171845   6.466   4.063  11.862 -1.5841 -0.9114  0.9595
16810TIP3    H271846   6.494   4.012  11.723  0.5875  0.0661  0.9986
16811TIP3   OH271847   4.697   0.960  10.926  0.5121 -0.2043  0.1244
16811TIP3    H171848   4.652   1.044  10.913  1.2020  0.4744  1.7656
16811TIP3    H271849   4.648   0.918  10.997  1.5598 -0.1023  0.9353
16812TIP3   OH271850   6.089   1.503   2.993 -0.4891 -0.3377  0.6459
16812TIP3    H171851   6.143   1.426   3.010  1.4978  0.6941 -0.6074
16812TIP3    H271852   6.096   1.518   2.899 -2.2632  0.3719  0.5921
16813TIP3   OH271853   5.486   5.497  12.379  0.2593  0.0924 -0.2828
16813TIP3    H171854   5.429   5.460  12.446  1.0801 -0.8407 -0.0763
16813TIP3    H271855   5.427   5.520  12.307 -0.6893  1.4877  0.8821
16814TIP3   OH271856   2.376   0.002  16.005 -0.1804  0.4602 -0.0026
16814TIP3    H171857   2.287  -0.021  15.978  0.7079 -2.2689 -0.9166
16814TIP3    H271858   2.414   0.044  15.929 -0.3527  0.6647  0.0220
16815TIP3   OH271859   0.262   3.906   1.932  0.7429 -0.0150 -0.8740
16815TIP3    H171860   0.244   3.993   1.967 -0.2307 -0.2658 -0.7067
16815TIP3    H271861   0.182   3.883   1.884  0.8539 -0.9481 -0.6320
16816TIP3   OH271862   1.897   6.707   4.560 -0.3546 -0.1798  0.1054
16816TIP3    H171863   1.875   6.659   4.480  1.6956 -0.2656 -0.4813
16816TIP3    H271864   1.814   6.719   4.605 -1.2472 -2.2128 -0.8779
16817TIP3   OH271865   3.187   3.636  16.529 -0.1787 -0.8099  0.3293
16817TIP3    H171866   3.206   3.547  16.499  0.0725 -0.7043  0.1661
16817TIP3    H271867   3.092   3.641  16.532 -0.1964 -1.4756  1.5205
16818TIP3   OH271868   2.075   6.341  13.602  0.1324 -0.1718  0.5852
16818TIP3    H171869   2.028   6.407  13.654  1.0718 -0.7298  2.2337
16818TIP3    H271870   2.019   6.263  13.606 -0.8769  0.4215 -1.1870
16819TIP3   OH271871   5.415   2.010  16.477  0.2699 -0.5734 -0.1074
16819TIP3    H171872   5.397   2.092  16.523  2.0760  1.0036 -1.9886
16819TIP3    H271873   5.464   1.957  16.540  2.2168  1.2952  0.0808
16820TIP3   OH271874   5.692   4.311  16.561 -0.2950 -0.0776 -0.1029
16820TIP3    H171875   5.627   4.242  16.550 -1.1040  0.8205 -1.2225
16820TIP3    H271876   5.775   4.271  16.536 -0.9619 -0.2745 -2.1791
16821TIP3   OH271877   4.653   2.737  15.017  0.3504 -0.2537  0.3462
16821TIP3    H171878   4.648   2.804  14.948 -2.6042 -2.0879 -1.4386
16821TIP3    H271879   4.631   2.784  15.097  2.3057  1.6305 -0.1108
16822TIP3   OH271880   6.043   0.148  10.224 -0.1089 -0.4998 -0.6181
16822TIP3    H171881   6.101   0.190  10.288  0.5184 -0.5135 -1.1709
16822TIP3    H271882   6.092   0.150  10.142 -0.3744 -1.6624 -0.8147
16823TIP3   OH271883   5.804   4.043  14.385 -0.6178  0.5934 -0.0547
16823TIP3    H171884   5.753   4.020  14.307 -0.3630  0.2942 -0.1340
16823TIP3    H271885   5.773   4.131  14.409 -2.7320 -0.4072  1.1700
16824TIP3   OH271886   0.410   6.519  16.826 -0.2686 -0.0631  0.1945
16824TIP3    H171887   0.458   6.490  16.903 -0.3177 -1.0697 -0.1413
16824TIP3    H271888   0.401   6.614  16.838 -0.4523 -0.2286  1.5121
16825TIP3   OH271889   6.254   5.279  11.309  0.4219 -0.2706 -0.2783
16825TIP3    H171890   6.275   5.201  11.360 -0.4106  0.3386  1.0322
16825TIP3    H271891   6.177   5.255  11.257 -0.3524 -0.0729  0.7590
16826TIP3   OH271892   3.629   2.438  11.421  0.7723  0.2924  0.1764
16826TIP3    H171893   3.603   2.474  11.505 -0.0726  1.7667 -0.6690
16826TIP3    H271894   3.695   2.372  11.442 -1.6782 -1.7012  2.2044
16827TIP3   OH271895   5.958   3.547  13.163 -0.2949  0.4172  0.2408
16827TIP3    H171896   5.955   3.640  13.139  2.2486  0.3863 -0.4919
16827TIP3    H271897   6.008   3.506  13.093 -1.9001 -1.6810  0.2290
16828TIP3   OH271898   3.676   2.463   5.876 -0.3515 -0.1850  0.0238
16828TIP3    H171899   3.611   2.474   5.946  1.0668 -0.0768  1.3571
16828TIP3    H271900   3.749   2.418   5.917  0.6729  0.1915 -1.3104
16829TIP3   OH271901   5.454   4.294   1.328 -0.3963 -0.2144 -0.0059
16829TIP3    H171902   5.448   4.359   1.398 -0.8171  0.6868 -0.8440
16829TIP3    H271903   5.516   4.229   1.360  1.2137  1.3691  0.2607
16830TIP3   OH271904   6.685   0.857   4.785 -0.0785  0.1598 -0.4936
16830TIP3    H171905   6.601   0.903   4.774 -0.4236 -0.3047  0.1157
16830TIP3    H271906   6.719   0.848   4.696 -0.1770  1.2618 -0.6643
16831TIP3   OH271907   6.616   1.423   3.094 -0.0403  0.2913  0.0245
16831TIP3    H171908   6.701   1.420   3.139  0.0568  1.5460 -0.0570
16831TIP3    H271909   6.598   1.331   3.074  0.9467 -0.0771  0.6922
16832TIP3   OH271910   5.989   0.830  13.698 -0.0262 -0.2530 -0.0339
16832TIP3    H171911   6.071   0.790  13.669 -1.6999 -2.7260 -1.7504
16832TIP3    H271912   5.965   0.783  13.778 -1.3613 -1.9519 -1.3605
16833TIP3   OH271913   3.715   4.480   5.915  0.0630 -0.6991  0.3385
16833TIP3    H171914   3.804   4.483   5.880 -0.2685  1.9560 -0.4901
16833TIP3    H271915   3.712   4.551   5.979 -2.6856  2.6230 -3.0559
16834TIP3   OH271916   2.997   2.668  10.360  0.0779  0.3784  0.2313
16834TIP3    H171917   2.956   2.660  10.446 -2.1949 -0.2752 -0.8243
16834TIP3    H271918   3.077   2.616  10.366 -1.0520 -1.3385  1.3663
16835TIP3   OH271919   5.359   0.343  11.108  0.1436 -0.7649  0.2831
16835TIP3    H171920   5.299   0.365  11.038  0.4193  2.1143  0.8003
16835TIP3    H271921   5.351   0.416  11.170  1.6664 -1.9935  2.0494
16836TIP3   OH271922   5.377   3.092   4.409  0.2218 -0.2155  0.1715
16836TIP3    H171923   5.318   3.130   4.345  0.7391 -1.4882 -1.1193
16836TIP3    H271924   5.342   3.004   4.425  1.5107 -0.8545 -0.3395
16837TIP3   OH271925   1.156   0.985   1.745  0.6210  0.1941 -0.5522
16837TIP3    H171926   1.083   0.927   1.722  0.8110  0.2262 -1.2637
16837TIP3    H271927   1.162   0.979   1.840 -0.4742  0.3873 -0.4560
16838TIP3   OH271928   1.297   1.254  11.070 -0.1150  0.0470 -0.4191
16838TIP3    H171929   1.386   1.245  11.105  0.2947 -0.4796 -1.5215
16838TIP3    H271930   1.285   1.176  11.015 -1.0090  0.4431 -0.8059
16839TIP3   OH271931   0.975   6.083  17.019 -0.5334 -0.6048 -0.3298
16839TIP3    H171932   0.940   6.066  17.107 -0.5816 -1.8633 -0.5789
16839TIP3    H271933   1.066   6.109  17.035 -1.0202  0.9182  0.1925
16840TIP3   OH271934   2.391   3.844   4.188  0.3333 -0.1005 -0.1124
16840TIP3    H171935   2.382   3.791   4.109  0.6832 -1.9480  1.0135
16840TIP3    H271936   2.337   3.798   4.253  2.1396 -0.1757  1.4250
16841TIP3   OH271937   2.149   5.206   0.949  0.1175 -0.4995 -0.4649
16841TIP3    H171938   2.233   5.196   0.903  0.3916 -0.1322 -0.0542
16841TIP3    H271939   2.166   5.273   1.016 -0.4367 -0.6050 -0.2130
16842TIP3   OH271940   1.424   2.375   4.837 -0.3625 -0.2031 -0.5425
16842TIP3    H171941   1.360   2.347   4.902 -0.6079  0.3698 -0.5259
16842TIP3    H271942   1.377   2.439   4.784  0.1050 -0.0087 -0.7259
16843TIP3   OH271943   4.640   2.203   0.942  0.1463 -0.7851  0.9483
16843TIP3    H171944   4.622   2.133   0.879  1.2405  0.7769 -1.2125
16843TIP3    H271945   4.574   2.270   0.924  0.1962 -0.5037  1.7783
16844TIP3   OH271946   3.348   3.089  16.106 -0.5612 -0.2345  0.5200
16844TIP3    H171947   3.432   3.107  16.149 -0.8948 -0.2713  1.2087
16844TIP3    H271948   3.303   3.030  16.167 -0.6844 -1.0232 -0.3109
16845TIP3   OH271949   6.109   0.707   2.184 -0.3090  0.0069 -0.2751
16845TIP3    H171950   6.042   0.736   2.121  0.4597  0.4465 -0.9011
16845TIP3    H271951   6.131   0.787   2.233  0.9461  0.2442 -1.1909
16846TIP3   OH271952   1.136   5.052   1.780 -0.0818  0.1804 -0.0094
16846TIP3    H171953   1.210   5.109   1.799 -0.8653  1.3702 -0.4230
16846TIP3    H271954   1.176   4.966   1.765  1.0932  0.5333  0.9040
16847TIP3   OH271955   4.507   5.200   2.334 -0.4373 -0.3008  0.8810
16847TIP3    H171956   4.516   5.284   2.379 -0.1743 -0.6667  1.5133
16847TIP3    H271957   4.526   5.134   2.401  0.6712 -0.8323  0.0812
16848TIP3   OH271958   0.882   0.782   2.800 -0.2761  0.0596  0.2869
16848TIP3    H171959   0.949   0.737   2.852  0.1358  0.7910  0.4107
16848TIP3    H271960   0.816   0.716   2.782 -1.0829  0.0934  2.8261
16849TIP3   OH271961   4.682   2.024   6.569 -0.1072 -0.4863 -0.0692
16849TIP3    H171962   4.700   2.100   6.514 -0.3955  0.1949  0.7614
16849TIP3    H271963   4.652   2.060   6.652 -2.1077 -1.5202 -0.2742
16850TIP3   OH271964   1.969   0.046   5.333  0.8291  0.3434 -0.4669
16850TIP3    H171965   1.927   0.114   5.387  1.3085 -0.1209  0.5185
16850TIP3    H271966   1.910   0.036   5.258  0.0754  0.9341  0.0213
16851TIP3   OH271967   3.726   0.050   2.497 -0.2064 -0.2085 -0.3199
16851TIP3    H171968   3.671  -0.025   2.520 -0.6562  0.4131  0.7065
16851TIP3    H271969   3.672   0.101   2.436 -0.2940 -0.2124 -0.2457
16852TIP3   OH271970   6.397   0.618   1.812  0.5399  0.5060  0.0923
16852TIP3    H171971   6.400   0.594   1.904  1.3014  0.2300 -0.0018
16852TIP3    H271972   6.325   0.565   1.776  0.7933 -0.0167  0.3484
16853TIP3   OH271973   6.243   3.923   2.079  0.1723  0.1196  1.2774
16853TIP3    H171974   6.322   3.871   2.068  2.0306  2.8742  0.5671
16853TIP3    H271975   6.198   3.917   1.995 -0.5497 -1.6223  1.7485
16854TIP3   OH271976   6.266   2.763   5.689  0.3142 -0.2302 -0.0653
16854TIP3    H171977   6.249   2.821   5.764 -0.6059  0.7517 -1.0009
16854TIP3    H271978   6.201   2.788   5.624  0.9824 -1.1909 -1.1416
16855TIP3   OH271979   5.946   2.098  16.632 -0.5949  0.0617  0.7289
16855TIP3    H171980   5.927   2.011  16.597 -0.9954  0.8531 -1.1906
16855TIP3    H271981   6.041   2.097  16.647  0.1716  0.4421 -3.0508
16856TIP3   OH271982   4.093   1.423  13.946  0.0911  0.0284  0.1434
16856TIP3    H171983   4.000   1.439  13.928  0.0067  0.7260  1.1346
16856TIP3    H271984   4.092   1.357  14.015  0.3342  0.0252  0.1425
16857TIP3   OH271985   2.123   3.706   2.301  0.0922 -0.8115 -0.4342
16857TIP3    H171986   2.163   3.709   2.388 -0.1677 -1.7008 -0.2692
16857TIP3    H271987   2.179   3.760   2.246  0.8069 -1.0302  0.0731
16858TIP3   OH271988   0.486   2.374  13.636  0.4415 -0.2979  0.4802
16858TIP3    H171989   0.565   2.377  13.583 -0.6048  1.6553 -1.0970
16858TIP3    H271990   0.479   2.462  13.673 -0.7676 -0.5722  0.9397
16859TIP3   OH271991   3.430   2.081  14.635  0.1253 -0.6517 -0.0528
16859TIP3    H171992   3.397   2.141  14.701  0.3307 -0.2539 -0.3056
16859TIP3    H271993   3.381   2.000  14.648 -1.4259  0.1307 -0.8341
16860TIP3   OH271994   1.641   0.014   4.652  0.1004 -0.5625  0.0588
16860TIP3    H171995   1.621   0.002   4.745 -1.7924  1.6717  0.0121
16860TIP3    H271996   1.557   0.004   4.607  0.4421  1.2231 -1.0747
16861TIP3   OH271997   2.280   0.126   1.202 -0.1453  0.0729  0.0677
16861TIP3    H171998   2.279   0.069   1.279  1.6390  0.8722  0.7243
16861TIP3    H271999   2.346   0.192   1.222 -0.2641  0.8048 -1.8001
16862TIP3   OH272000   4.221   3.043   4.554  0.4974 -0.0735  0.3603
16862TIP3    H172001   4.265   3.117   4.596 -2.3683  2.1826 -0.2705
16862TIP3    H272002   4.202   3.073   4.466 -2.3872 -0.7386  0.6497
16863TIP3   OH272003   3.439   0.452  17.064 -0.2138  0.6288 -0.6006
16863TIP3    H172004   3.415   0.383  17.002 -1.9607 -0.3233  1.0476
16863TIP3    H272005   3.356   0.495  17.086  0.2376  0.5480  1.4758
16864TIP3   OH272006   2.693   6.710   0.348 -0.3901 -0.0535 -0.2267
16864TIP3    H172007   2.605   6.720   0.310 -0.1724 -0.1262 -0.7615
16864TIP3    H272008   2.750   6.695   0.272 -0.1450 -1.5314  0.2160
16865TIP3   OH272009   2.808   2.720  16.697 -0.3862  0.1287  0.2572
16865TIP3    H172010   2.843   2.633  16.675  1.0450  0.8918 -0.6195
16865TIP3    H272011   2.808   2.722  16.793 -2.0086 -1.4293  0.3294
16866TIP3   OH272012   2.312   3.211  11.328  0.6275  0.5651  0.1243
16866TIP3    H172013   2.366   3.220  11.250  2.7853  1.1784  1.6001
16866TIP3    H272014   2.364   3.157  11.387 -0.5958  0.7819  1.4589
16867TIP3   OH272015   5.598   3.154  15.417 -0.5248 -0.3344  0.1294
16867TIP3    H172016   5.644   3.139  15.499 -0.8603 -0.5216  0.2823
16867TIP3    H272017   5.666   3.149  15.350  0.0799  1.5557  0.5210
16868TIP3   OH272018   1.760   2.437   5.394  0.6914 -0.3470  0.0795
16868TIP3    H172019   1.747   2.522   5.435  0.1411 -1.1917  1.7818
16868TIP3    H272020   1.854   2.422   5.397  1.1376  1.2911 -2.6781
16869TIP3   OH272021   5.051   4.491   3.468  0.0924 -1.0619  0.4543
16869TIP3    H172022   5.078   4.412   3.514 -1.2245 -1.1244  1.1511
16869TIP3    H272023   5.014   4.460   3.385  2.1445 -0.9682 -0.5794
16870TIP3   OH272024   6.444   5.131   5.119 -0.0453 -0.2291  0.4105
16870TIP3    H172025   6.438   5.046   5.163  1.0348  0.4034  1.8583
16870TIP3    H272026   6.423   5.112   5.028 -0.2367 -1.9733  0.7814
16871TIP3   OH272027   3.150   3.398  12.073 -0.2727  0.2466  0.1779
16871TIP3    H172028   3.113   3.363  12.155 -0.7016  1.6329  0.6100
16871TIP3    H272029   3.106   3.349  12.004  1.6900 -2.5259  0.7390
16872TIP3   OH272030   5.211   0.650   0.750 -0.0466  0.3979  0.5203
16872TIP3    H172031   5.215   0.745   0.754 -0.4100  0.4268  0.2423
16872TIP3    H272032   5.178   0.623   0.836  0.5122  0.4956  0.7628
16873TIP3   OH272033   3.824   4.604  12.960  0.6265  0.3854  0.3395
16873TIP3    H172034   3.886   4.544  13.001 -0.1705  0.3156  1.4808
16873TIP3    H272035   3.822   4.680  13.018 -0.2977  0.4081  0.2940
16874TIP3   OH272036   6.421   1.808   5.144  0.2432 -0.5782 -0.5161
16874TIP3    H172037   6.501   1.759   5.164  0.8782  0.7902  0.4616
16874TIP3    H272038   6.350   1.754   5.178  1.1130  0.5326  3.6343
16875TIP3   OH272039   5.024   4.962   5.425  0.0299 -0.4539 -0.2496
16875TIP3    H172040   4.974   4.883   5.407 -0.5970 -0.2701  0.6397
16875TIP3    H272041   4.961   5.023   5.463  0.7526  0.0641  0.1467
16876TIP3   OH272042   3.385   6.456  16.812 -0.0719  0.3253  0.5214
16876TIP3    H172043   3.440   6.435  16.737  0.3847 -0.8107  1.1422
16876TIP3    H272044   3.354   6.545  16.796  0.7712  0.4385 -0.5469
16877TIP3   OH272045   1.043   2.641   0.330  0.4972 -0.0126 -0.5373
16877TIP3    H172046   0.953   2.660   0.303  0.4119 -0.1983 -0.3886
16877TIP3    H272047   1.076   2.580   0.264  0.6177  0.2936 -0.7621
16878TIP3   OH272048   5.023   3.446  15.561 -0.1307 -0.0674 -0.2739
16878TIP3    H172049   5.118   3.452  15.563 -0.2089  2.8722  1.4814
16878TIP3    H272050   5.000   3.448  15.468  1.4967 -2.6521 -0.8140
16879TIP3   OH272051   5.104   5.666  15.291  0.2034 -0.1030 -0.7218
16879TIP3    H172052   5.180   5.643  15.237  2.1024 -0.0393  1.7411
16879TIP3    H272053   5.061   5.583  15.309  0.9331 -0.4175 -0.4061
16880TIP3   OH272054   4.712   0.058  14.539 -0.1678  0.3639 -0.0490
16880TIP3    H172055   4.713   0.129  14.474 -1.1752  2.1395  1.7599
16880TIP3    H272056   4.804   0.041  14.556  0.1002  0.9770 -0.7942
16881TIP3   OH272057   4.680   6.251  12.293  0.7944 -0.0560  0.1692
16881TIP3    H172058   4.595   6.261  12.336  1.1955  0.9382  0.7471
16881TIP3    H272059   4.719   6.175  12.336  1.5251  1.3757  2.1924
16882TIP3   OH272060   6.393   5.855  14.366 -0.0601 -0.4638 -0.0181
16882TIP3    H172061   6.315   5.894  14.325 -0.0515 -1.0376 -0.6062
16882TIP3    H272062   6.443   5.820  14.292  1.1196  0.5298  0.2819
16883TIP3   OH272063   0.050   6.498   5.543  0.1042 -0.3698  0.1735
16883TIP3    H172064  -0.020   6.560   5.525  1.6195  1.4765  0.3842
16883TIP3    H272065   0.040   6.430   5.475 -2.2121 -0.4987  0.5843
16884TIP3   OH272066   2.809   2.387  13.306  0.3234 -0.7705 -0.3241
16884TIP3    H172067   2.779   2.330  13.235 -0.9761 -1.4374  0.7354
16884TIP3    H272068   2.790   2.476  13.275 -1.3980 -1.1142 -0.3043
16885TIP3   OH272069   6.757   0.700  12.995  0.4082 -0.7912 -0.0364
16885TIP3    H172070   6.715   0.769  13.047 -1.1569 -1.5263 -0.2557
16885TIP3    H272071   6.797   0.642  13.061 -0.0177 -0.7518  0.2643
16886TIP3   OH272072   2.845   4.848  10.553  0.0944 -0.0936  0.0913
16886TIP3    H172073   2.770   4.856  10.493  1.2759 -0.8132 -1.5357
16886TIP3    H272074   2.915   4.811  10.500  1.1130 -1.0805  2.0245
16887TIP3   OH272075   4.953   1.420   3.647  0.0707 -0.1712  0.0467
16887TIP3    H172076   5.027   1.480   3.641  1.5447 -1.8493  0.4800
16887TIP3    H272077   4.993   1.333   3.645 -1.9525 -1.1426 -0.2351
16888TIP3   OH272078   2.111   0.830   5.910 -0.0950  0.3696 -0.4398
16888TIP3    H172079   2.060   0.806   5.987  1.0350 -3.4188 -0.6728
16888TIP3    H272080   2.058   0.800   5.836 -0.3902  2.4056 -1.1192
16889TIP3   OH272081   2.519   2.073   2.071  0.3614 -0.3436 -0.2355
16889TIP3    H172082   2.542   2.112   1.987  1.0942 -0.5598 -0.1373
16889TIP3    H272083   2.439   2.022   2.052 -0.7116  1.2995 -0.3184
16890TIP3   OH272084   6.725   0.436   4.142 -0.0193 -0.7896  0.1177
16890TIP3    H172085   6.759   0.351   4.171  1.1667 -0.1261  0.7645
16890TIP3    H272086   6.777   0.457   4.065  0.7622  0.0168  0.8355
16891TIP3   OH272087   0.995   6.113   4.080  0.1703 -0.3690 -0.2633
16891TIP3    H172088   0.980   6.069   4.164  2.0447 -1.1856 -0.3000
16891TIP3    H272089   1.063   6.177   4.098 -0.3292  0.3535 -0.8977
16892TIP3   OH272090   2.676   6.642   1.469 -0.0060  0.3337  0.0174
16892TIP3    H172091   2.619   6.711   1.503  0.1993 -0.0814  1.2694
16892TIP3    H272092   2.620   6.590   1.412 -1.2933 -0.8345  2.2078
16893TIP3   OH272093   0.626   4.909   4.581  0.8957 -0.0853  0.2363
16893TIP3    H172094   0.672   4.891   4.499  0.2036 -1.7790  0.1771
16893TIP3    H272095   0.696   4.917   4.646  1.5722  2.7856 -0.6709
16894TIP3   OH272096   3.133   6.664  16.468 -0.5484  0.0588 -0.0976
16894TIP3    H172097   3.042   6.643  16.448 -0.9008  1.7989 -0.5447
16894TIP3    H272098   3.127   6.737  16.531  0.5632 -1.7360  2.2425
16895TIP3   OH272099   4.344   3.832   5.725 -0.4497  0.3172 -0.3345
16895TIP3    H172100   4.375   3.761   5.780 -0.1057 -0.3606 -1.3699
16895TIP3    H272101   4.352   3.911   5.779  1.9892  0.0068 -0.1676
16896TIP3   OH272102   1.680   2.709  11.717 -0.2086  0.1473 -0.3003
16896TIP3    H172103   1.622   2.711  11.794  0.4415 -0.2502  0.2148
16896TIP3    H272104   1.756   2.659  11.746  0.4132  0.6896 -0.9570
16897TIP3   OH272105   5.344   5.291   2.726 -0.7125 -0.5651  0.2512
16897TIP3    H172106   5.328   5.315   2.635  0.7994 -0.0174  0.0999
16897TIP3    H272107   5.342   5.374   2.774  0.7819 -0.5357  0.3216
16898TIP3   OH272108   5.600   3.437  15.795  0.5859 -0.4794 -0.1493
16898TIP3    H172109   5.529   3.379  15.821 -1.9007  1.9494 -1.0984
16898TIP3    H272110   5.605   3.502  15.864 -0.1721  1.0327 -1.4577
16899TIP3   OH272111   0.043   2.689   0.018 -0.3714  0.3696 -0.3435
16899TIP3    H172112   0.022   2.694  -0.076  1.5050 -0.8304 -0.8832
16899TIP3    H272113  -0.041   2.672   0.060 -1.1672  0.3166 -1.8670
16900TIP3   OH272114   1.362   5.908  13.440 -0.3124  0.1878 -0.4293
16900TIP3    H172115   1.297   5.975  13.458  1.0474  1.7117 -0.9289
16900TIP3    H272116   1.381   5.917  13.347  1.1194  0.2905 -0.1515
16901TIP3   OH272117   6.679   2.667  14.444  0.2608 -0.0007  0.3662
16901TIP3    H172118   6.605   2.722  14.469  0.0300  0.2700 -0.8544
16901TIP3    H272119   6.669   2.588  14.497 -1.3552 -0.2906 -0.3060
16902TIP3   OH272120   1.679   3.142  17.197  0.3519 -0.4069  0.1011
16902TIP3    H172121   1.642   3.072  17.143 -2.5591 -0.1106  1.5396
16902TIP3    H272122   1.712   3.206  17.134 -1.9522 -0.5614 -1.3949
16903TIP3   OH272123   0.595   0.944  11.494 -0.3610 -0.0729 -0.7961
16903TIP3    H172124   0.523   0.885  11.472 -0.0418  0.3284 -3.1997
16903TIP3    H272125   0.573   1.026  11.449  0.0460  1.1443  1.0692
16904TIP3   OH272126   2.348   1.874  14.601  0.5447  0.5892 -0.1668
16904TIP3    H172127   2.294   1.858  14.678  0.6510  0.6997 -0.0684
16904TIP3    H272128   2.324   1.962  14.572 -0.3648  0.0997 -0.9719
16905TIP3   OH272129   0.903   4.186   3.994 -0.2358 -0.3300  0.0917
16905TIP3    H172130   0.870   4.256   3.938 -0.1677 -0.4637 -0.1150
16905TIP3    H272131   0.899   4.222   4.083 -0.7006 -0.2524  0.0418
16906TIP3   OH272132   3.174   4.774  13.217  0.6526  0.2824  0.3783
16906TIP3    H172133   3.202   4.743  13.131 -1.4816  2.0334 -1.0565
16906TIP3    H272134   3.099   4.718  13.239  1.6096 -0.6189  1.4889
16907TIP3   OH272135   2.429   0.241   1.890 -0.5256  0.2706 -0.6123
16907TIP3    H172136   2.509   0.252   1.941 -1.3586  0.0099  0.8219
16907TIP3    H272137   2.359   0.242   1.956 -1.6925  0.4603 -1.8250
16908TIP3   OH272138   6.336   4.836   1.898  0.3832  0.1425 -0.3976
16908TIP3    H172139   6.281   4.908   1.928 -3.6660 -2.4016 -0.9645
16908TIP3    H272140   6.341   4.776   1.973 -1.5372 -1.6826 -1.5962
16909TIP3   OH272141   4.514   3.519   1.989 -0.6532  0.5916 -0.3347
16909TIP3    H172142   4.493   3.425   1.990  0.6365  0.2867 -0.4707
16909TIP3    H272143   4.565   3.533   2.068 -0.4253  1.0803 -0.5641
16910TIP3   OH272144   2.919   6.045  15.126  0.1212  0.1896 -0.6411
16910TIP3    H172145   2.968   6.125  15.141  1.0529 -0.2807 -1.0993
16910TIP3    H272146   2.949   5.985  15.194  0.1423 -0.0792 -0.8831
16911TIP3   OH272147   0.238   6.506  13.608 -0.1997  0.6468  0.0399
16911TIP3    H172148   0.240   6.481  13.516  0.7340  1.4686 -0.1777
16911TIP3    H272149   0.234   6.423  13.655 -0.8895  0.2242 -0.7348
16912TIP3   OH272150   4.202   2.511  12.949 -0.4691 -0.5637  0.6814
16912TIP3    H172151   4.278   2.452  12.948 -0.9479 -1.2236 -0.9121
16912TIP3    H272152   4.220   2.573  12.879 -0.0547  1.1470  2.2348
16913TIP3   OH272153   1.997   1.226   5.887  0.0478  0.2882  0.4060
16913TIP3    H172154   1.960   1.312   5.867 -3.7251 -1.1499  0.4061
16913TIP3    H272155   1.993   1.219   5.982 -0.8582 -0.3171  0.3341
16914TIP3   OH272156   2.913   4.186   3.701 -0.5387 -0.3605 -0.2431
16914TIP3    H172157   2.871   4.119   3.648  0.2762  1.6167 -3.6553
16914TIP3    H272158   3.007   4.169   3.691 -0.3325 -0.5351  1.5368
16915TIP3   OH272159   1.567   3.785   3.251  0.0388  0.3929  0.2290
16915TIP3    H172160   1.531   3.781   3.340 -1.2186 -0.1052 -0.2850
16915TIP3    H272161   1.612   3.701   3.240  0.1833  0.4492  0.3784
16916TIP3   OH272162   6.530   1.318  11.680 -0.2231 -0.1398  0.0364
16916TIP3    H172163   6.557   1.340  11.591 -0.7051 -0.6033 -0.2343
16916TIP3    H272164   6.475   1.240  11.670 -2.2112  1.1257  0.4514
16917TIP3   OH272165   0.505   4.153   3.711 -0.4017  0.2016 -0.9597
16917TIP3    H172166   0.528   4.194   3.627 -0.4577  1.3612 -0.4229
16917TIP3    H272167   0.488   4.226   3.770  1.1088 -0.5541  0.5110
16918TIP3   OH272168   1.151   1.665   4.088  0.0156 -0.1724  0.0714
16918TIP3    H172169   1.057   1.663   4.071  0.0184 -0.9646  0.1252
16918TIP3    H272170   1.171   1.758   4.098 -0.7684  0.0012  0.1099
16919TIP3   OH272171   0.142   0.671  16.017  0.4188  0.1640 -0.5307
16919TIP3    H172172   0.058   0.634  16.044 -0.5354  1.8945 -1.0163
16919TIP3    H272173   0.181   0.602  15.963 -0.9301 -0.4666 -0.7610
16920TIP3   OH272174   1.286   5.738   6.234 -0.0036 -0.4423 -0.1129
16920TIP3    H172175   1.351   5.727   6.303 -0.0250  1.6566  0.2916
16920TIP3    H272176   1.212   5.683   6.262  0.6213 -0.9035  0.6748
16921TIP3   OH272177   2.560   1.387  15.396 -1.1847  0.0914  0.2358
16921TIP3    H172178   2.570   1.437  15.477 -2.2899  0.8786 -0.0982
16921TIP3    H272179   2.632   1.417  15.340 -1.2293  0.5465  0.4186
16922TIP3   OH272180   4.361   0.626  11.447 -0.1742 -0.0748  0.2174
16922TIP3    H172181   4.412   0.706  11.430  0.7271 -1.0549 -2.1277
16922TIP3    H272182   4.272   0.657  11.458  0.1211  1.2670 -0.9017
16923TIP3   OH272183   3.572   5.584  12.383  0.2467  0.5797  0.0725
16923TIP3    H172184   3.640   5.550  12.325 -0.2081 -0.6825  0.2519
16923TIP3    H272185   3.583   5.679  12.379  1.4321  0.4405 -0.6028
16924TIP3   OH272186   4.322   3.931  11.587  0.1329  0.0364  0.1014
16924TIP3    H172187   4.305   3.948  11.679 -0.3681  1.8441 -0.2702
16924TIP3    H272188   4.259   3.863  11.563 -1.7710  1.5587  0.4694
16925TIP3   OH272189   2.083   5.997  13.324 -0.0333 -0.4445  0.0924
16925TIP3    H172190   2.161   6.052  13.317  0.3757 -1.0845 -0.5881
16925TIP3    H272191   2.027   6.041  13.388 -0.5119  1.7340 -1.6844
16926TIP3   OH272192   1.437   2.754   2.335  0.1052  0.4040  0.0338
16926TIP3    H172193   1.417   2.744   2.428 -2.7211 -1.6695 -0.6733
16926TIP3    H272194   1.432   2.849   2.320 -1.9124  0.6116  1.5690
16927TIP3   OH272195   5.641   1.553  13.835 -0.3646 -0.6287 -0.5852
16927TIP3    H172196   5.561   1.581  13.879  0.5993  0.1858  0.7331
16927TIP3    H272197   5.691   1.507  13.904  1.9136  2.0683 -0.2509
16928TIP3   OH272198   5.563   5.595  16.079  0.3800 -0.1581  0.2818
16928TIP3    H172199   5.623   5.591  16.153  0.0737 -1.7879  0.4815
16928TIP3    H272200   5.496   5.658  16.106 -0.3033 -1.4725  1.8925
16929TIP3   OH272201   3.419   6.527   5.784  0.2163  0.0121 -0.1242
16929TIP3    H172202   3.347   6.549   5.725 -1.1681  0.2030  1.5685
16929TIP3    H272203   3.439   6.610   5.828  1.5477 -0.0218 -0.6263
16930TIP3   OH272204   4.080   0.529   4.068 -0.3170 -0.1778  0.5090
16930TIP3    H172205   4.080   0.451   4.012  1.1358 -2.0794  2.9588
16930TIP3    H272206   3.988   0.542   4.090 -0.7828 -0.0596 -1.3467
16931TIP3   OH272207   3.995   2.910   4.523 -0.2442  0.0073 -0.3801
16931TIP3    H172208   3.959   2.969   4.456 -0.3099  0.1160 -0.2482
16931TIP3    H272209   4.079   2.949   4.547 -0.5865  0.4150  0.1916
16932TIP3   OH272210   5.854   2.444   0.100 -0.2812  0.2945 -0.5624
16932TIP3    H172211   5.767   2.479   0.118 -0.0371  0.4179  0.4369
16932TIP3    H272212   5.844   2.393   0.019 -1.0007  1.3016 -1.1167
16933TIP3   OH272213   0.914   2.454  14.673  0.1659 -0.1114  0.1980
16933TIP3    H172214   0.938   2.546  14.685  0.4688 -0.4108  2.2176
16933TIP3    H272215   0.899   2.445  14.579 -0.6382  2.1923  0.0514
16934TIP3   OH272216   4.600   2.215  13.686 -0.4786 -0.0316 -0.5327
16934TIP3    H172217   4.641   2.203  13.601  0.8668 -0.4751  0.1401
16934TIP3    H272218   4.602   2.128  13.726  0.2718  0.4401  0.5113
16935TIP3   OH272219   1.425   5.412  15.098 -0.2806 -0.5035 -0.6400
16935TIP3    H172220   1.381   5.333  15.130 -1.8822 -0.2722 -2.1391
16935TIP3    H272221   1.365   5.483  15.121  0.6464  0.1715 -0.2548
16936TIP3   OH272222   0.195   6.408  11.920  0.2994  1.1957  0.2008
16936TIP3    H172223   0.138   6.347  11.874  2.2932 -0.8291  0.2500
16936TIP3    H272224   0.156   6.494  11.904 -1.8612  0.0717 -1.0185
16937TIP3   OH272225   4.872   1.555   3.942  0.0582 -0.1309 -0.3786
16937TIP3    H172226   4.940   1.622   3.937 -0.3875  0.2275 -2.7581
16937TIP3    H272227   4.810   1.578   3.873 -2.3895 -0.6020  1.4896
16938TIP3   OH272228   3.021   1.492  11.735 -0.3454 -0.1034  0.2315
16938TIP3    H172229   3.105   1.502  11.780 -0.7824  0.1484  1.0120
16938TIP3    H272230   2.973   1.572  11.756 -1.2466 -0.7784  0.8222
16939TIP3   OH272231   2.699   5.537  15.255 -0.2415 -0.0948 -0.5610
16939TIP3    H172232   2.681   5.562  15.346 -0.8175  0.1175 -0.7325
16939TIP3    H272233   2.754   5.458  15.262 -0.4251 -0.1785 -0.0346
16940TIP3   OH272234   1.608   3.389   1.061 -0.4332 -0.1811 -0.1555
16940TIP3    H172235   1.616   3.295   1.041  0.0425  0.0388 -1.0496
16940TIP3    H272236   1.515   3.401   1.080 -0.1927 -1.2057  1.9838
16941TIP3   OH272237   0.168   3.951   3.414  0.4078  0.3331 -0.1635
16941TIP3    H172238   0.246   3.908   3.381  0.0144 -0.1899 -0.4313
16941TIP3    H272239   0.145   4.016   3.348 -0.9333 -1.3633 -1.4556
16942TIP3   OH272240   0.313   1.400  15.006  0.8374 -0.0445  0.7362
16942TIP3    H172241   0.406   1.395  15.030  1.0637  1.7025  0.3526
16942TIP3    H272242   0.276   1.465  15.065 -0.1257 -0.6064  0.7753
16943TIP3   OH272243   6.151   3.467  13.350 -0.0150 -0.3382  0.0398
16943TIP3    H172244   6.174   3.555  13.379  1.4315 -0.5445 -0.4047
16943TIP3    H272245   6.075   3.479  13.292 -0.1355  0.5457  0.3671
16944TIP3   OH272246   1.745   6.349   3.991  0.2871  0.1750  0.0092
16944TIP3    H172247   1.770   6.402   4.066  0.6635  0.0018  0.0066
16944TIP3    H272248   1.778   6.261   4.011 -1.4803 -0.3973  0.6294
16945TIP3   OH272249   0.508   2.753   0.986 -0.2525 -0.1080  0.3903
16945TIP3    H172250   0.536   2.763   1.077  0.9958  0.1407 -0.0079
16945TIP3    H272251   0.452   2.675   0.987  0.5116 -0.6651  1.2082
16946TIP3   OH272252   4.747   4.540  12.010 -0.4915 -0.0211 -0.4836
16946TIP3    H172253   4.761   4.611  12.072 -0.9385 -0.0069 -0.3918
16946TIP3    H272254   4.708   4.469  12.062 -1.4225  0.2045 -0.8469
16947TIP3   OH272255   5.473   3.887  16.100 -0.4676 -0.1276  0.1091
16947TIP3    H172256   5.521   3.969  16.098 -0.9127  0.1793  1.3791
16947TIP3    H272257   5.540   3.820  16.089 -0.0861  0.3894 -0.7773
16948TIP3   OH272258   4.560   1.512   2.643 -0.1981  0.4649 -0.4207
16948TIP3    H172259   4.507   1.451   2.593 -1.0492  0.0382  0.9591
16948TIP3    H272260   4.628   1.458   2.684 -0.3148  0.6052 -0.0384
16949TIP3   OH272261   4.344   5.716  17.262  0.4331  0.0647 -0.5141
16949TIP3    H172262   4.307   5.634  17.295  0.1158  0.0765 -0.8373
16949TIP3    H272263   4.269   5.775  17.254  0.5953  0.2492 -0.6913
16950TIP3   OH272264   1.053   3.547   1.073  0.2987  0.5656  0.1761
16950TIP3    H172265   1.115   3.572   1.141 -0.2398  1.0389  0.5022
16950TIP3    H272266   0.970   3.586   1.101  0.2067  1.2955 -1.0732
16951TIP3   OH272267   6.766   0.978  12.039 -0.0903  0.2943 -0.3060
16951TIP3    H172268   6.819   1.032  12.098 -0.9389  2.5786 -1.4828
16951TIP3    H272269   6.797   1.002  11.951 -1.2416 -0.3366 -0.9123
16952TIP3   OH272270   1.604   2.868  15.052 -0.4858 -0.3731 -0.5817
16952TIP3    H172271   1.696   2.859  15.029 -0.2801 -0.7992  0.3706
16952TIP3    H272272   1.570   2.779  15.051 -0.4907 -0.4023  0.6291
16953TIP3   OH272273   6.403   1.489  14.119 -1.0773  0.8962  0.8227
16953TIP3    H172274   6.406   1.450  14.206  0.2081 -0.5860  0.1548
16953TIP3    H272275   6.347   1.430  14.068  2.1704 -1.1884 -0.6236
16954TIP3   OH272276   0.536   1.131   4.683 -0.4058 -0.4184 -0.2745
16954TIP3    H172277   0.523   1.146   4.777 -1.8389 -0.0973 -0.5001
16954TIP3    H272278   0.481   1.056   4.662 -1.0605  0.2648 -1.0820
16955TIP3   OH272279   3.998   1.471   1.386  0.1131 -0.1048 -0.5074
16955TIP3    H172280   4.060   1.419   1.438 -1.9612 -2.1244  0.0861
16955TIP3    H272281   3.947   1.519   1.451 -0.8862 -0.7607 -0.7866
16956TIP3   OH272282   1.928   1.784  16.903  0.3869 -0.0750 -0.0413
16956TIP3    H172283   1.950   1.867  16.862 -1.4690  0.1466 -0.6998
16956TIP3    H272284   1.917   1.724  16.829 -0.0287 -0.4475  0.3188
16957TIP3   OH272285   2.311   1.822   2.156 -0.2977 -0.1963  0.0339
16957TIP3    H172286   2.259   1.814   2.076 -1.8548  2.0793  0.7229
16957TIP3    H272287   2.273   1.897   2.202  0.8416 -1.1424  2.6997
16958TIP3   OH272288   4.529   4.003  16.657 -0.0568  0.5831  0.4328
16958TIP3    H172289   4.445   4.000  16.611 -0.7761 -0.7700  1.7515
16958TIP3    H272290   4.588   3.949  16.604 -0.3046  0.7096  0.0277
16959TIP3   OH272291   5.619   6.560   1.313  0.2813 -1.2212 -0.3906
16959TIP3    H172292   5.538   6.547   1.264 -0.4488  1.6194 -0.1300
16959TIP3    H272293   5.685   6.509   1.265 -1.2649 -2.1200 -1.6687
16960TIP3   OH272294   0.319   1.554   0.061  0.7460 -0.6466 -0.1864
16960TIP3    H172295   0.250   1.559  -0.005 -0.4347 -0.1236  1.0444
16960TIP3    H272296   0.283   1.494   0.127  1.1976  0.1390  0.7789
16961TIP3   OH272297   0.992   6.638   2.720  0.0723 -0.5485 -0.3711
16961TIP3    H172298   1.054   6.581   2.765  0.1479 -0.3490 -0.2172
16961TIP3    H272299   1.040   6.720   2.707 -1.2418  0.9449  3.0467
16962TIP3   OH272300   3.684   0.091  15.181  0.0386  0.6850  0.0115
16962TIP3    H172301   3.705   0.158  15.116 -1.7845  0.4231 -0.9061
16962TIP3    H272302   3.741   0.112  15.256  1.8050  1.3178 -1.4232
16963TIP3   OH272303   5.203   2.318  11.473  0.4627 -0.2422 -0.2434
16963TIP3    H172304   5.148   2.347  11.547 -0.3496 -2.1885 -0.0250
16963TIP3    H272305   5.148   2.332  11.396  0.7795  0.4720 -0.3514
16964TIP3   OH272306   0.826   4.483  10.884 -0.6013 -0.2058  0.0370
16964TIP3    H172307   0.774   4.447  10.957  0.0269 -0.1254  0.5390
16964TIP3    H272308   0.764   4.493  10.812 -1.4663  0.6502  0.8682
16965TIP3   OH272309   1.366   4.013  15.420 -0.0516  0.3168  0.1179
16965TIP3    H172310   1.408   3.946  15.474 -0.2238 -0.7816 -1.0811
16965TIP3    H272311   1.289   3.970  15.383  0.1753  0.9728 -1.1835
16966TIP3   OH272312   3.389   1.771   4.228  0.0888 -0.0350 -0.3899
16966TIP3    H172313   3.456   1.764   4.297 -0.4735 -1.6910  0.0356
16966TIP3    H272314   3.307   1.753   4.272 -0.3841 -0.2580 -1.3386
16967TIP3   OH272315   5.926   0.602   0.119  0.0134 -0.1005 -0.0551
16967TIP3    H172316   5.835   0.573   0.124  0.9257 -3.3787 -0.5617
16967TIP3    H272317   5.956   0.572   0.033  1.5593  1.1222  0.0109
16968TIP3   OH272318   0.278   4.482   6.358 -0.0771  0.2139  0.1675
16968TIP3    H172319   0.345   4.498   6.424  0.1082  0.7807 -0.1511
16968TIP3    H272320   0.229   4.563   6.353 -1.7493 -0.6673  1.4469
16969TIP3   OH272321   1.270   2.532  15.202  0.1311  0.2711  0.1072
16969TIP3    H172322   1.260   2.609  15.258 -1.7276  1.0232 -1.1469
16969TIP3    H272323   1.364   2.519  15.195  0.4706  2.1710  0.7124
16970TIP3   OH272324   2.932   6.095  13.140 -0.6123  0.5176 -0.2566
16970TIP3    H172325   3.004   6.152  13.113 -1.6093  1.6317 -0.6192
16970TIP3    H272326   2.968   6.044  13.213  0.3951  1.3652 -0.1459
16971TIP3   OH272327   3.237   4.637  13.009  0.1101 -0.0830  0.1596
16971TIP3    H172328   3.327   4.639  12.976  0.5295 -2.0571  1.0564
16971TIP3    H272329   3.214   4.544  13.010 -1.6915  0.3287  0.6534
16972TIP3   OH272330   1.538   1.048   4.756  0.7796  0.5447  0.0220
16972TIP3    H172331   1.498   1.134   4.740 -0.8106 -0.1747 -0.0377
16972TIP3    H272332   1.628   1.069   4.782  0.7417  2.1683 -0.9959
16973TIP3   OH272333   1.078   5.041  11.387  0.0867 -0.0720  0.8334
16973TIP3    H172334   1.008   4.984  11.417  0.8027 -1.3426  0.1568
16973TIP3    H272335   1.156   5.011  11.433  0.6852 -0.3869 -0.3404
16974TIP3   OH272336   6.472   0.190  16.687 -0.0058  0.0324 -0.1539
16974TIP3    H172337   6.546   0.155  16.736  1.0778  1.3900 -0.7537
16974TIP3    H272338   6.404   0.203  16.754  0.5471 -0.5202  0.5361
16975TIP3   OH272339   4.377   4.257   5.457 -0.6296  0.0641  0.0575
16975TIP3    H172340   4.351   4.165   5.447  0.7158 -0.2462 -0.9237
16975TIP3    H272341   4.357   4.297   5.373 -1.1146  0.6479  0.4478
16976TIP3   OH272342   3.788   2.675   5.085  0.0459 -0.3882  0.0206
16976TIP3    H172343   3.833   2.757   5.066  0.1151 -0.5279 -0.4246
16976TIP3    H272344   3.770   2.637   4.999  0.3842 -1.0381  0.2314
16977TIP3   OH272345   6.674   4.942  12.090 -0.3448 -0.1288  0.3221
16977TIP3    H172346   6.698   5.020  12.041  2.5773 -0.4130  1.1184
16977TIP3    H272347   6.618   4.892  12.030 -1.1367  1.8727 -0.7119
16978TIP3   OH272348   1.531   0.530   0.320 -0.0792  0.2574 -0.0287
16978TIP3    H172349   1.464   0.513   0.386 -1.6775  2.4970 -0.9380
16978TIP3    H272350   1.560   0.620   0.338  0.8788  0.2105 -1.2087
16979TIP3   OH272351   1.788   5.670  16.373 -0.0348  0.3701  0.1929
16979TIP3    H172352   1.732   5.596  16.396 -0.4091  0.5675 -0.0850
16979TIP3    H272353   1.812   5.708  16.457 -0.4919  0.4137  0.3062
16980TIP3   OH272354   6.180   4.840   3.926 -0.1700 -0.4439 -0.0189
16980TIP3    H172355   6.249   4.898   3.895  0.1462 -0.8509 -0.0874
16980TIP3    H272356   6.132   4.814   3.847 -0.7198  0.2383  0.0855
16981TIP3   OH272357   0.421   3.866  15.452  1.0193  0.0036 -0.2712
16981TIP3    H172358   0.386   3.839  15.537 -0.4330  0.7321 -0.6228
16981TIP3    H272359   0.515   3.876  15.468  0.8087 -0.0812  1.1845
16982TIP3   OH272360   6.527   3.112   4.217 -0.6709  0.2639 -0.1488
16982TIP3    H172361   6.521   3.047   4.146 -0.2781  0.1670 -0.0937
16982TIP3    H272362   6.620   3.117   4.237 -0.7757  0.3417  0.3214
16983TIP3   OH272363   0.175   6.606  12.976 -0.2420 -0.3036  0.8322
16983TIP3    H172364   0.262   6.641  12.994  0.1990 -1.4599  1.0332
16983TIP3    H272365   0.187   6.553  12.897 -0.7317 -0.5788  0.9418
16984TIP3   OH272366   3.560   5.971   1.660  0.1839  0.2918  0.1481
16984TIP3    H172367   3.552   5.928   1.745 -1.3020  0.3560  0.0511
16984TIP3    H272368   3.474   5.962   1.619  0.1860  2.2378 -0.4071
16985TIP3   OH272369   0.966   3.096  16.645  0.4261  0.3172 -0.4260
16985TIP3    H172370   1.002   3.029  16.704  0.2664  0.8189  0.2650
16985TIP3    H272371   0.999   3.073  16.559 -0.1704 -1.0326 -0.3105
16986TIP3   OH272372   4.616   4.084  13.630 -0.4112 -0.4048 -0.0407
16986TIP3    H172373   4.600   4.006  13.684  1.6566 -1.7662 -1.2361
16986TIP3    H272374   4.615   4.051  13.541  1.7062  0.6551 -0.5243
16987TIP3   OH272375   3.408   1.764   2.566  0.0269  0.1106 -0.4620
16987TIP3    H172376   3.420   1.687   2.511  0.0432  0.5825 -1.1300
16987TIP3    H272377   3.481   1.761   2.628 -0.4590 -0.8721  0.0810
16988TIP3   OH272378   4.616   2.281   0.496  0.5488  0.0157  0.1757
16988TIP3    H172379   4.677   2.354   0.481  0.1096  0.3131 -0.1826
16988TIP3    H272380   4.538   2.322   0.533 -0.2493 -0.0708 -1.3393
16989TIP3   OH272381   0.410   2.526  12.660  0.0162 -0.7832 -0.5916
16989TIP3    H172382   0.498   2.557  12.639  0.3026 -0.5234  0.8443
16989TIP3    H272383   0.417   2.430  12.660 -0.1330 -0.8135 -2.1102
16990TIP3   OH272384   4.683   6.558   3.548  0.0526 -0.0750  0.1164
16990TIP3    H172385   4.713   6.476   3.508 -0.5125 -0.9580  1.4565
16990TIP3    H272386   4.763   6.609   3.558  0.2458  0.1447 -1.9747
16991TIP3   OH272387   4.718   6.352  12.031 -0.1156 -0.4028  0.4806
16991TIP3    H172388   4.693   6.292  12.101 -3.9636  1.0373  0.5623
16991TIP3    H272389   4.636   6.375  11.987  0.9154  4.8405  0.5586
16992TIP3   OH272390   1.199   4.408  14.357  0.4491 -0.2747  0.3704
16992TIP3    H172391   1.142   4.363  14.419  0.0846 -0.4848 -0.1178
16992TIP3    H272392   1.140   4.459  14.302  0.8795  1.2022  1.2214
16993TIP3   OH272393   6.012   0.344  15.451 -0.0429 -0.3005  0.1928
16993TIP3    H172394   5.979   0.318  15.536 -1.0653  0.9404  0.2146
16993TIP3    H272395   6.040   0.263  15.409  4.3764 -0.6659  3.1987
16994TIP3   OH272396   0.850   4.982   4.341 -0.2877  0.1120  0.1964
16994TIP3    H172397   0.879   5.052   4.399  0.0238 -0.7569  1.1195
16994TIP3    H272398   0.893   4.903   4.375 -1.5887 -0.7352 -0.0573
16995TIP3   OH272399   4.813   0.792   2.083  0.5616  0.2005  0.3305
16995TIP3    H172400   4.797   0.885   2.101  1.7710  0.5439 -0.2333
16995TIP3    H272401   4.744   0.746   2.130  0.4148  1.3465  1.2984
16996TIP3   OH272402   1.719   2.953   6.206 -0.1855 -0.1076  0.7030
16996TIP3    H172403   1.758   2.970   6.292 -0.7592 -2.1961  1.4371
16996TIP3    H272404   1.625   2.964   6.219 -0.3136 -0.8529  0.4895
16997TIP3   OH272405   1.625   1.002   1.294 -0.0613  0.1223 -0.7164
16997TIP3    H172406   1.711   1.025   1.328 -0.1435  0.3089 -0.6343
16997TIP3    H272407   1.641   0.972   1.205  0.3369 -1.6447 -0.0886
16998TIP3   OH272408   0.727   0.159  11.331  0.9352  0.0495 -0.3313
16998TIP3    H172409   0.795   0.222  11.308  0.9183  0.7764  1.4735
16998TIP3    H272410   0.761   0.075  11.299  2.9397  0.3037  0.9283
16999TIP3   OH272411   5.049   4.419  15.832 -0.2119 -0.5034 -0.4624
16999TIP3    H172412   5.100   4.343  15.858  0.9239  1.0158  2.1600
16999TIP3    H272413   5.104   4.464  15.768  1.5840  0.7380  1.8039
17000TIP3   OH272414   3.192   5.011  17.081 -0.0714  0.3173 -0.4726
17000TIP3    H172415   3.248   5.088  17.070 -0.5515  0.4416 -2.3345
17000TIP3    H272416   3.105   5.048  17.098 -0.0904  0.1666 -0.2447
17001TIP3   OH272417   0.278   3.537  15.203 -0.3920  0.3020  0.1247
17001TIP3    H172418   0.199   3.518  15.151 -0.5569 -2.5959  1.2560
17001TIP3    H272419   0.245   3.580  15.282 -0.5848  0.8847 -0.2620
17002TIP3   OH272420   4.931   6.651   1.877  0.0725  0.3891  0.5438
17002TIP3    H172421   4.944   6.633   1.970  2.7134 -2.7113 -0.2515
17002TIP3    H272422   4.874   6.581   1.846  4.2846 -2.6686 -1.1791
17003TIP3   OH272423   4.789   4.038   5.086 -0.0925 -0.0635 -0.4121
17003TIP3    H172424   4.871   4.081   5.112 -0.6513  0.5363  0.4145
17003TIP3    H272425   4.780   4.058   4.993  0.5370  0.1453 -0.4350
17004TIP3   OH272426   2.168   5.427   4.996  0.1751  0.5860  0.0308
17004TIP3    H172427   2.158   5.339   4.961  1.7594 -0.1180  1.2321
17004TIP3    H272428   2.245   5.463   4.951 -0.3652  1.3113 -0.3378
17005TIP3   OH272429   6.007   0.886  13.426  0.1416  0.2441 -0.2009
17005TIP3    H172430   6.017   0.853  13.515 -0.3980  2.1803  0.6320
17005TIP3    H272431   6.002   0.981  13.436 -2.5664  0.4183 -2.0091
17006TIP3   OH272432   1.941   4.481   1.263  0.1209  0.3354  0.0909
17006TIP3    H172433   1.912   4.407   1.316  0.8666  0.8814  1.3225
17006TIP3    H272434   1.862   4.534   1.251 -0.1974 -0.1342  0.1048
17007TIP3   OH272435   2.426   5.649   6.905 -0.3276  0.1304 -0.0335
17007TIP3    H172436   2.427   5.557   6.878 -2.8549 -0.5562  1.8418
17007TIP3    H272437   2.440   5.698   6.824  1.1871 -1.8573 -1.0732
17008TIP3   OH272438   5.273   1.182  15.113 -0.2410 -0.3726 -0.0365
17008TIP3    H172439   5.274   1.153  15.022 -1.9205 -0.3099 -0.1041
17008TIP3    H272440   5.184   1.164  15.143  0.1109  0.1683  1.4122
17009TIP3   OH272441   6.067   3.421  11.063  0.8442  0.2430  0.3439
17009TIP3    H172442   6.122   3.491  11.029  1.5742 -0.8458 -0.8579
17009TIP3    H272443   6.043   3.370  10.985  0.2128 -0.7390  1.1545
17010TIP3   OH272444   2.047   2.541   3.929  0.3895  0.0026 -0.7021
17010TIP3    H172445   1.976   2.542   3.865  0.1156 -2.4046 -0.5304
17010TIP3    H272446   2.041   2.455   3.970  0.4383  1.4745  2.7318
17011TIP3   OH272447   0.769   3.211   2.818 -0.5975 -0.0069  0.4282
17011TIP3    H172448   0.691   3.182   2.771  0.2901  0.0413 -1.1470
17011TIP3    H272449   0.735   3.258   2.894 -2.1407  0.7016 -0.6340
17012TIP3   OH272450   2.791   5.019  13.132 -0.0004  0.1214 -0.9661
17012TIP3    H172451   2.708   4.970  13.134  0.6411 -1.1017 -2.3261
17012TIP3    H272452   2.857   4.953  13.110  0.9657  1.5395 -2.5062
17013TIP3   OH272453   5.121   6.157  16.266 -0.0059 -0.4681  0.3322
17013TIP3    H172454   5.048   6.219  16.257 -0.1779 -0.6874  0.2144
17013TIP3    H272455   5.193   6.199  16.220  0.1904  0.1414  1.1638
17014TIP3   OH272456   5.885   5.550   3.256  0.3911 -0.4439 -0.1817
17014TIP3    H172457   5.851   5.565   3.168 -1.3407  0.9400  0.6623
17014TIP3    H272458   5.811   5.567   3.314  1.7562 -0.2895  1.6174
17015TIP3   OH272459   4.222   5.555   3.705  0.0132 -0.7903  0.2377
17015TIP3    H172460   4.247   5.538   3.614 -0.2496  0.5058 -0.1026
17015TIP3    H272461   4.225   5.469   3.748 -5.0481 -2.5879 -2.2016
17016TIP3   OH272462   0.030   3.152  12.559  0.0938 -0.0917  0.0409
17016TIP3    H172463   0.080   3.217  12.607 -1.5686 -0.4582  2.4298
17016TIP3    H272464  -0.055   3.149  12.603 -0.5199 -2.6055 -1.1050
17017TIP3   OH272465   1.281   2.905  14.074 -0.2528 -0.5662  0.0016
17017TIP3    H172466   1.354   2.845  14.090 -0.3955 -0.8461 -0.4065
17017TIP3    H272467   1.286   2.926  13.981 -0.9898 -0.9775 -0.1381
17018TIP3   OH272468   5.066   6.095  17.091 -0.2470  0.4747  0.6075
17018TIP3    H172469   5.119   6.126  17.165 -0.7906  1.1323  0.7272
17018TIP3    H272470   5.011   6.170  17.067 -0.8948 -0.0967  0.2739
17019TIP3   OH272471   6.267   4.914  14.090  1.4447 -0.3209 -0.3590
17019TIP3    H172472   6.220   4.841  14.130 -0.1041  0.5004 -0.6074
17019TIP3    H272473   6.267   4.895  13.997  0.6772  0.1616 -0.4713
17020TIP3   OH272474   5.983   5.267   3.238 -0.3027  0.2207  0.3365
17020TIP3    H172475   5.947   5.356   3.226 -0.2124  0.3507  0.9862
17020TIP3    H272476   5.999   5.261   3.332 -0.2450 -0.4670  0.2831
17021TIP3   OH272477   6.415   0.585   5.610 -0.3956  0.2300 -0.1159
17021TIP3    H172478   6.467   0.664   5.596  1.0052 -0.8172 -0.9237
17021TIP3    H272479   6.477   0.520   5.642 -0.9505 -1.3671 -2.0978
17022TIP3   OH272480   0.943   6.226   3.207 -0.1349  0.6706  0.3761
17022TIP3    H172481   0.987   6.162   3.264 -0.3749 -0.1886 -0.3807
17022TIP3    H272482   0.991   6.307   3.221  0.4134  0.2367  1.0873
17023TIP3   OH272483   2.632   6.094  12.589  0.5002 -0.7361 -0.6607
17023TIP3    H172484   2.661   6.086  12.680 -0.5895 -1.5609 -0.3616
17023TIP3    H272485   2.588   6.179  12.586  2.5253  0.3765 -1.0371
17024TIP3   OH272486   1.315   2.045  16.651  0.6721  0.0720 -0.4994
17024TIP3    H172487   1.309   2.140  16.656  1.4200  0.2027 -1.6353
17024TIP3    H272488   1.371   2.020  16.724 -0.9508  0.3030  0.8735
17025TIP3   OH272489   2.461   0.397  14.498  0.0735  0.1909  0.3295
17025TIP3    H172490   2.529   0.367  14.438  1.1240  3.2957 -0.2404
17025TIP3    H272491   2.380   0.360  14.463  1.0653 -0.7600 -1.0682
17026TIP3   OH272492   1.419   4.698  15.436 -0.9378 -0.2129  0.6976
17026TIP3    H172493   1.457   4.623  15.391 -2.5068 -1.2601  1.0240
17026TIP3    H272494   1.369   4.660  15.509 -1.9437  1.1159  0.7492
17027TIP3   OH272495   0.743   3.312   2.033  0.3607  0.1058  0.1993
17027TIP3    H172496   0.681   3.323   1.961 -0.6207 -0.0511  0.9886
17027TIP3    H272497   0.817   3.265   1.995  1.0312  2.2469 -1.3101
17028TIP3   OH272498   1.025   5.676   2.931 -0.0989  0.1792  0.3402
17028TIP3    H172499   1.030   5.763   2.891 -1.5957 -0.4219 -1.2960
17028TIP3    H272500   1.103   5.631   2.898  0.4090  0.7207  0.7768
17029TIP3   OH272501   5.333   4.741   5.731  0.5039  0.6315  0.2326
17029TIP3    H172502   5.353   4.824   5.775  0.1585  0.2291  1.1873
17029TIP3    H272503   5.342   4.675   5.800 -0.1527 -0.0178 -0.2908
17030TIP3   OH272504   3.172   0.268   4.454 -0.2892 -0.3044 -0.0632
17030TIP3    H172505   3.083   0.291   4.483  0.0684  0.2925  0.6112
17030TIP3    H272506   3.205   0.208   4.521  0.2837  0.5200  0.4202
17031TIP3   OH272507   3.016   0.032   2.791  0.3074  0.5773 -0.1825
17031TIP3    H172508   3.022   0.128   2.798  0.1202  0.4793  1.7115
17031TIP3    H272509   3.090   0.008   2.735  0.4811  1.8027 -0.5212
17032TIP3   OH272510   2.932   5.183   4.337  0.1287 -0.2209  0.5267
17032TIP3    H172511   3.019   5.162   4.301 -0.9904 -1.4005 -1.7128
17032TIP3    H272512   2.895   5.098   4.361 -0.9527  0.0971  0.0477
17033TIP3   OH272513   2.595   1.444   5.723  0.9262 -0.2072  0.1959
17033TIP3    H172514   2.563   1.362   5.760 -0.6435  0.3589  0.2091
17033TIP3    H272515   2.563   1.511   5.784  0.8967  0.5076 -0.5860
17034TIP3   OH272516   5.534   0.563  16.023 -0.1871  0.1144 -0.2539
17034TIP3    H172517   5.521   0.510  16.102 -1.3009  1.7365  0.7159
17034TIP3    H272518   5.598   0.514  15.972 -0.4418 -1.6632  1.0279
17035TIP3   OH272519   6.773   3.699  12.931  0.3132  0.1946 -0.0903
17035TIP3    H172520   6.694   3.675  12.883  0.2195  0.2171  0.0513
17035TIP3    H272521   6.802   3.780  12.890 -0.0373  0.4701  0.2086
17036TIP3   OH272522   2.600   0.594  13.506  0.1784 -0.3124 -0.0479
17036TIP3    H172523   2.575   0.505  13.479  1.0034 -0.3047 -0.9023
17036TIP3    H272524   2.678   0.613  13.454  1.3550  0.0470  1.7806
17037TIP3   OH272525   4.305   1.728   0.495 -0.2898 -0.5080 -0.1244
17037TIP3    H172526   4.307   1.655   0.434  0.8888 -0.4011 -0.2460
17037TIP3    H272527   4.361   1.700   0.568 -0.5526 -0.0839  0.2482
17038TIP3   OH272528   2.523   4.408   0.326  0.4325 -0.1899  0.4086
17038TIP3    H172529   2.480   4.492   0.309  2.8583  1.1256  0.3922
17038TIP3    H272530   2.556   4.381   0.240  2.1143  0.3106  0.8672
17039TIP3   OH272531   2.442   3.012  11.472  0.2420 -0.3717 -0.3008
17039TIP3    H172532   2.514   3.074  11.485  0.5814 -1.1042  1.7528
17039TIP3    H272533   2.479   2.942  11.418  0.6241 -0.0294 -0.4822
17040TIP3   OH272534   1.071   4.689  16.023  1.0487  0.0363 -0.1458
17040TIP3    H172535   1.042   4.768  15.978 -2.1974  0.5104  2.3937
17040TIP3    H272536   1.065   4.620  15.957 -1.0217  1.1047 -1.1863
17041TIP3   OH272537   0.632   2.393  11.786  0.0620  0.3339 -0.0863
17041TIP3    H172538   0.667   2.306  11.804  0.3513  0.5927  0.6754
17041TIP3    H272539   0.708   2.446  11.764 -0.0508  0.5003 -0.0803
17042TIP3   OH272540   5.383   6.635   5.602  0.3369  0.5015 -0.0262
17042TIP3    H172541   5.439   6.614   5.528 -0.0426 -0.2940 -0.0917
17042TIP3    H272542   5.323   6.702   5.568 -0.5501 -0.6430 -0.7768
17043TIP3   OH272543   2.077   4.840  11.746 -0.4673 -1.0531  0.2325
17043TIP3    H172544   2.130   4.919  11.743 -0.1418 -1.2195  1.1654
17043TIP3    H272545   2.097   4.794  11.665 -1.0924  0.0873 -0.5854
17044TIP3   OH272546   5.601   3.685  17.131  0.4273  0.2859 -0.0191
17044TIP3    H172547   5.580   3.638  17.050  0.6570 -1.0320  0.6724
17044TIP3    H272548   5.621   3.774  17.102 -0.9696  0.2335 -1.2527
17045TIP3   OH272549   6.128   1.364  16.647 -0.3245 -0.2593  0.1061
17045TIP3    H172550   6.121   1.364  16.742 -0.7398  0.7236  0.0828
17045TIP3    H272551   6.038   1.358  16.616 -0.2787  0.6028 -0.2174
17046TIP3   OH272552   5.726   5.543   4.512  0.2912  0.4611 -0.2467
17046TIP3    H172553   5.799   5.586   4.555  0.7924  2.0379 -2.4916
17046TIP3    H272554   5.742   5.449   4.525  0.8575  0.8285  2.1147
17047TIP3   OH272555   0.973   1.187   1.566 -0.1644  0.2522 -0.6234
17047TIP3    H172556   0.909   1.206   1.635 -0.6757  1.0770 -1.3070
17047TIP3    H272557   0.945   1.103   1.530 -0.0167 -0.0816  0.0235
17048TIP3   OH272558   6.433   0.743  10.758  0.0815  0.4439  0.4336
17048TIP3    H172559   6.386   0.737  10.675 -0.4416  0.0582  0.7486
17048TIP3    H272560   6.372   0.787  10.817  0.7128  1.3438  0.4330
17049TIP3   OH272561   4.246   6.276   1.325  0.1790  0.0802 -0.5123
17049TIP3    H172562   4.183   6.344   1.351  0.1446  0.0136 -0.4193
17049TIP3    H272563   4.231   6.264   1.232  0.8012  0.8375 -0.7208
17050TIP3   OH272564   0.496   2.954   0.100 -0.1667 -0.4811 -0.1051
17050TIP3    H172565   0.447   3.007   0.162  0.6991 -0.3497  0.4899
17050TIP3    H272566   0.436   2.884   0.075 -0.5948 -0.4282  0.7433
17051TIP3   OH272567   2.754   2.828   3.447  0.1197 -0.0704  0.1554
17051TIP3    H172568   2.681   2.778   3.411  0.4848 -0.1891 -0.4291
17051TIP3    H272569   2.831   2.774   3.430  0.7831  1.4029 -2.0533
17052TIP3   OH272570   5.126   0.916  15.393  0.6266  0.0226  0.5056
17052TIP3    H172571   5.147   0.852  15.326  1.6590  0.7958  0.0564
17052TIP3    H272572   5.126   0.867  15.475 -0.1622 -0.8367  0.0070
17053TIP3   OH272573   5.053   5.205   3.234 -0.9277 -0.5054 -0.1209
17053TIP3    H172574   5.142   5.208   3.270 -0.5831  1.1043 -1.0105
17053TIP3    H272575   5.062   5.239   3.145 -2.4262 -0.4357 -0.2699
17054TIP3   OH272576   1.330   3.439   1.594 -0.3056 -0.5142  0.3427
17054TIP3    H172577   1.292   3.403   1.514  1.1949  0.4295 -0.8308
17054TIP3    H272578   1.399   3.497   1.564 -0.1284  0.3653  2.3182
17055TIP3   OH272579   1.772   2.380  16.042 -0.0787 -0.5783  0.5234
17055TIP3    H172580   1.835   2.320  16.083 -0.4069 -1.9053 -0.8654
17055TIP3    H272581   1.827   2.441  15.992  0.2189 -0.1009  1.4094
17056TIP3   OH272582   1.758   5.960  12.615 -0.0531 -0.2853 -0.3228
17056TIP3    H172583   1.750   6.044  12.570 -1.5847  0.0002  0.4399
17056TIP3    H272584   1.840   5.967  12.664  0.0945  0.5612 -0.6714
17057TIP3   OH272585   2.133   1.941   1.973 -0.4665  0.0352 -0.0640
17057TIP3    H172586   2.040   1.929   1.952 -1.2937  1.8607  2.1000
17057TIP3    H272587   2.145   2.036   1.972  0.7609 -0.0494  1.9185
17058TIP3   OH272588   1.710   4.704   2.506  0.2903  0.1814 -0.8382
17058TIP3    H172589   1.647   4.686   2.575  1.1380  0.6473  0.0751
17058TIP3    H272590   1.685   4.645   2.435 -0.6729 -0.2121 -0.1954
17059TIP3   OH272591   3.156   5.879  14.358  0.5127 -0.0026 -0.0007
17059TIP3    H172592   3.098   5.833  14.419 -1.3174 -0.1826 -1.7593
17059TIP3    H272593   3.109   5.959  14.336  1.1293  0.0727 -1.1288
17060TIP3   OH272594   5.455   3.385  11.408  0.0141  0.0192  0.1009
17060TIP3    H172595   5.387   3.415  11.348  0.4632  0.6160 -0.1230
17060TIP3    H272596   5.410   3.328  11.470 -0.7377  0.6371  0.1322
17061TIP3   OH272597   0.242   0.550   6.396 -0.5371  0.3657 -0.5484
17061TIP3    H172598   0.223   0.597   6.477  1.5125 -0.2244  0.3692
17061TIP3    H272599   0.311   0.602   6.355 -1.3408  0.4813 -1.7776
17062TIP3   OH272600   4.596   4.318  13.776 -0.1994 -0.5127  0.0592
17062TIP3    H172601   4.600   4.248  13.711 -0.7554  0.0078 -0.5582
17062TIP3    H272602   4.554   4.278  13.852 -0.6931 -0.8083 -0.3607
17063TIP3   OH272603   4.798   5.523  16.039 -0.0307 -0.6968  0.2533
17063TIP3    H172604   4.772   5.464  16.110 -0.4219 -0.9419 -0.0942
17063TIP3    H272605   4.879   5.485  16.005  0.2962 -0.4432  0.7251
17064TIP3   OH272606   5.729   1.190   2.755 -0.4234  0.0512  0.0058
17064TIP3    H172607   5.741   1.259   2.690  0.8545 -0.1082  0.0557
17064TIP3    H272608   5.761   1.111   2.713  0.1190 -0.1126  0.7068
17065TIP3   OH272609   1.505   3.781   4.859  0.3740 -0.2849  0.3572
17065TIP3    H172610   1.508   3.765   4.954  0.3239 -0.2356  0.3671
17065TIP3    H272611   1.442   3.717   4.826 -2.0127  1.6985  0.7766
17066TIP3   OH272612   6.636   6.212   0.714  0.1078  0.4329 -0.1811
17066TIP3    H172613   6.586   6.272   0.658 -0.5474  0.5891  0.5565
17066TIP3    H272614   6.684   6.156   0.652  1.0155  1.9241 -0.8922
17067TIP3   OH272615   3.332   6.077   5.972  0.0715  0.0276 -0.1207
17067TIP3    H172616   3.304   6.089   6.063  0.8191  2.2693 -0.1230
17067TIP3    H272617   3.376   6.159   5.950  1.3129 -1.0811 -2.0104
17068TIP3   OH272618   1.504   5.234  15.372  0.2751  0.6686 -0.0917
17068TIP3    H172619   1.517   5.141  15.391  0.7131  0.5546 -0.9429
17068TIP3    H272620   1.411   5.249  15.392  0.6565  0.5552  2.0843
17069TIP3   OH272621   4.163   2.966   0.948  0.4017  0.1295  0.4642
17069TIP3    H172622   4.120   3.035   0.898 -0.9077 -0.7298  0.3184
17069TIP3    H272623   4.106   2.953   1.024 -0.6900 -2.2891 -0.6550
17070TIP3   OH272624   5.070   0.317  15.009  0.2371  0.4869  0.0654
17070TIP3    H172625   5.047   0.224  15.011  2.9866 -0.2930 -0.5091
17070TIP3    H272626   5.055   0.343  14.918  1.3140  0.0288 -0.2641
17071TIP3   OH272627   6.636   1.030   1.157 -0.2691  0.0966  0.0296
17071TIP3    H172628   6.607   1.058   1.244 -0.4676  0.6480 -0.2083
17071TIP3    H272629   6.699   0.960   1.174  0.2608  0.7117  0.6480
17072TIP3   OH272630   6.502   2.953   3.971 -0.2015 -0.0775  0.5598
17072TIP3    H172631   6.530   2.862   3.971  1.2192  0.3376  0.2030
17072TIP3    H272632   6.562   2.997   3.911 -1.9464  0.7918 -0.6699
17073TIP3   OH272633   3.399   5.623  11.966  0.8253 -0.4528 -0.2922
17073TIP3    H172634   3.417   5.530  11.979  0.7765 -0.4647 -0.3129
17073TIP3    H272635   3.400   5.660  12.054  1.0507 -0.4360 -0.2999
17074TIP3   OH272636   6.606   4.899   0.038 -0.0091  0.0684  0.2904
17074TIP3    H172637   6.618   4.957  -0.038  0.7844 -0.8402 -0.2977
17074TIP3    H272638   6.654   4.819   0.015 -1.3515 -0.9582  0.9600
17075TIP3   OH272639   1.619   0.732  11.360 -0.4835  0.1062 -0.7545
17075TIP3    H172640   1.708   0.762  11.375 -0.6317  0.0060  0.4054
17075TIP3    H272641   1.597   0.679  11.437 -1.6115  0.3086 -0.9082
17076TIP3   OH272642   6.186   4.925   3.234  0.1364 -0.4268  0.0895
17076TIP3    H172643   6.182   4.859   3.165  0.7467  0.1915 -0.5598
17076TIP3    H272644   6.280   4.939   3.248  0.0202 -0.3734  0.8956
17077TIP3   OH272645   3.425   6.477  11.609  0.2493 -0.0456  0.1129
17077TIP3    H172646   3.419   6.484  11.514 -0.4756 -0.0746  0.1537
17077TIP3    H272647   3.512   6.439  11.625  0.6699  0.6184 -0.5011
17078TIP3   OH272648   6.652   1.809  13.552  0.1408 -0.5731  0.4243
17078TIP3    H172649   6.637   1.867  13.627  0.2735  0.1013 -0.0571
17078TIP3    H272650   6.738   1.834  13.519 -0.5528  0.2033 -0.8646
17079TIP3   OH272651   5.667   6.431   2.809 -0.1949 -0.3755 -0.4885
17079TIP3    H172652   5.671   6.491   2.734 -1.4996  2.7434  1.7193
17079TIP3    H272653   5.719   6.474   2.877  0.1318 -2.5951  0.7637
17080TIP3   OH272654   3.856   0.921  10.950 -0.0245  0.6976  0.5437
17080TIP3    H172655   3.774   0.884  10.915  0.0494  0.8216  0.2446
17080TIP3    H272656   3.830   1.003  10.990 -0.1640  0.4026  1.0731
17081TIP3   OH272657   0.483   4.531   0.307  0.5257 -0.2517 -0.1671
17081TIP3    H172658   0.545   4.581   0.255  0.2898 -1.3332 -1.5222
17081TIP3    H272659   0.441   4.471   0.245  0.3635 -1.7168  1.2794
17082TIP3   OH272660   0.083   6.268  17.097  0.2197 -0.2695 -0.1480
17082TIP3    H172661   0.162   6.289  17.047  0.1690 -0.3165 -0.2474
17082TIP3    H272662   0.100   6.181  17.133  0.7549  0.2431  0.9013
17083TIP3   OH272663   3.187   1.974   4.956  0.1055 -0.4357 -0.0489
17083TIP3    H172664   3.152   1.946   5.040  1.2873 -2.4514 -0.1410
17083TIP3    H272665   3.126   1.939   4.891  0.0815 -0.3437 -0.0760
17084TIP3   OH272666   3.474   3.453  14.896  0.2131  0.2335  0.0037
17084TIP3    H172667   3.458   3.544  14.872  0.2158 -0.2885 -2.1920
17084TIP3    H272668   3.393   3.408  14.875  0.4270 -0.3813  0.4737
17085TIP3   OH272669   0.123   5.689  11.008  0.1991 -0.3737  0.6900
17085TIP3    H172670   0.188   5.695  10.938 -0.2244  1.1162  0.3739
17085TIP3    H272671   0.156   5.747  11.076  0.1765 -1.1559  1.3859
17086TIP3   OH272672   1.090   0.276  14.089 -0.0300  0.5426  0.3833
17086TIP3    H172673   1.050   0.200  14.132  1.6509 -0.2947  0.5409
17086TIP3    H272674   1.028   0.299  14.020 -1.1607 -0.1849  1.1035
17087TIP3   OH272675   6.340   4.660  14.723 -0.0776 -0.3393  0.1422
17087TIP3    H172676   6.308   4.572  14.704  0.0814 -0.1711 -0.9628
17087TIP3    H272677   6.261   4.710  14.744 -0.4686 -0.1670 -1.6057
17088TIP3   OH272678   3.347   5.377   3.845 -0.1484 -0.0578  0.1894
17088TIP3    H172679   3.436   5.411   3.837 -0.5457  0.9880  0.1542
17088TIP3    H272680   3.333   5.367   3.939  0.5851 -1.8454  0.1577
17089TIP3   OH272681   6.105   0.407  14.919  0.2995  0.8787  0.1131
17089TIP3    H172682   6.130   0.404  15.011 -0.4299  2.7542  0.4110
17089TIP3    H272683   6.050   0.329  14.908  0.3422  0.6545  1.2800
17090TIP3   OH272684   2.840   2.829   3.722  0.0515  0.0749 -0.5764
17090TIP3    H172685   2.843   2.833   3.626 -1.5855 -0.3731 -0.6824
17090TIP3    H272686   2.863   2.738   3.743 -1.3268 -0.3256 -0.6873
17091TIP3   OH272687   5.532   6.189  10.860 -0.0279  0.5619  0.3686
17091TIP3    H172688   5.455   6.133  10.864  0.1664  0.3249  0.7668
17091TIP3    H272689   5.601   6.140  10.904  0.8541 -0.0071 -1.5095
17092TIP3   OH272690   6.473   3.713  17.255  0.1187 -0.1926  0.6026
17092TIP3    H172691   6.450   3.628  17.295 -1.5878 -0.3101 -0.4888
17092TIP3    H272692   6.524   3.690  17.178 -2.8397 -0.5700 -1.4347
17093TIP3   OH272693   2.996   1.664   2.116 -0.2010  0.2976 -0.0873
17093TIP3    H172694   3.072   1.620   2.079 -0.4757  0.1741 -0.5118
17093TIP3    H272695   2.924   1.642   2.057 -0.3623  1.2227 -0.2503
17094TIP3   OH272696   0.654   0.216   2.148  0.1773  0.4180 -0.9028
17094TIP3    H172697   0.677   0.299   2.107 -1.2240  0.8325 -0.8851
17094TIP3    H272698   0.565   0.229   2.182  0.1766 -0.8795 -0.3367
17095TIP3   OH272699   5.404   6.622  13.537  0.0579  0.2072 -0.3654
17095TIP3    H172700   5.430   6.531  13.524 -2.2627 -0.5188 -0.2654
17095TIP3    H272701   5.342   6.620  13.610 -1.4115  1.5874 -1.4970
17096TIP3   OH272702   4.974   6.220   6.617  0.2745 -0.6409  0.0648
17096TIP3    H172703   4.925   6.294   6.583  1.7457  0.7718  0.8875
17096TIP3    H272704   5.013   6.179   6.540  1.2625  0.8264 -0.2688
17097TIP3   OH272705   5.062   5.467  16.204 -0.1916 -0.0249  0.2207
17097TIP3    H172706   5.085   5.560  16.213  0.7333 -0.3804  1.7592
17097TIP3    H272707   4.997   5.452  16.272  0.7789 -0.8531  0.9870
17098TIP3   OH272708   4.618   1.669  13.194 -0.3535  0.5052 -0.4111
17098TIP3    H172709   4.686   1.728  13.162 -1.2683  1.5916 -0.3868
17098TIP3    H272710   4.631   1.667  13.289 -1.8606  2.6806 -0.1102
17099TIP3   OH272711   1.446   2.914   6.326 -0.1320  0.2918 -0.4306
17099TIP3    H172712   1.402   2.842   6.372 -0.3154  0.7853  0.1849
17099TIP3    H272713   1.516   2.940   6.386  0.2956  0.2512 -0.9078
17100TIP3   OH272714   6.419   3.652   3.441 -0.5600  0.0150  0.0471
17100TIP3    H172715   6.373   3.676   3.360  0.2402 -0.5374 -0.5877
17100TIP3    H272716   6.505   3.622   3.412  0.3800  1.4119  1.2449
17101TIP3   OH272717   4.149   5.672  11.427 -0.4738 -0.3821  0.5782
17101TIP3    H172718   4.198   5.595  11.396 -0.1729 -0.2097  0.6291
17101TIP3    H272719   4.191   5.746  11.385 -1.9022 -0.3691 -0.9402
17102TIP3   OH272720   1.452   2.901  15.402 -0.4651  0.2594 -0.6106
17102TIP3    H172721   1.420   2.811  15.417 -0.1905  0.2866  0.1809
17102TIP3    H272722   1.382   2.943  15.352 -0.9416 -0.1746 -0.3181
17103TIP3   OH272723   0.842   6.099   5.458  0.6862  0.2243  0.0957
17103TIP3    H172724   0.832   6.056   5.543 -1.6194  1.9576  0.7946
17103TIP3    H272725   0.838   6.027   5.395  0.0943 -0.8908  1.3508
17104TIP3   OH272726   5.561   4.042  12.676  0.2816  0.3750 -0.1786
17104TIP3    H172727   5.581   4.105  12.606 -0.7330  0.1808 -0.6727
17104TIP3    H272728   5.537   3.962  12.629 -0.9605  0.4080  0.3634
17105TIP3   OH272729   3.932   3.460  15.414 -0.1674 -0.0650  0.0327
17105TIP3    H172730   3.868   3.493  15.478  0.2250 -0.3360  0.5772
17105TIP3    H272731   4.009   3.438  15.467  0.2141 -0.1684 -0.5574
17106TIP3   OH272732   1.580   5.567   3.897 -0.5041 -0.5094  0.6262
17106TIP3    H172733   1.541   5.550   3.983  1.5222 -1.2441  1.4591
17106TIP3    H272734   1.505   5.578   3.838 -2.0534 -3.6255  1.7796
17107TIP3   OH272735   0.796   0.438   6.280 -0.3863 -0.0310 -0.1769
17107TIP3    H172736   0.878   0.488   6.285 -0.0048 -0.7220  1.2313
17107TIP3    H272737   0.728   0.500   6.306 -0.2988  0.5042 -1.1997
17108TIP3   OH272738   6.466   1.665   4.047 -0.0285  0.1663  0.0195
17108TIP3    H172739   6.419   1.588   4.014 -0.9390  1.5142 -2.0651
17108TIP3    H272740   6.397   1.727   4.070  0.6879  1.1471 -0.4120
17109TIP3   OH272741   3.495   4.817  11.611  0.2679 -0.0533 -0.8772
17109TIP3    H172742   3.470   4.907  11.635 -0.0629 -0.0719 -1.1420
17109TIP3    H272743   3.577   4.827  11.563  0.9603 -0.0193  0.2830
17110TIP3   OH272744   4.767   4.450  15.395 -1.0749 -0.6036  1.1034
17110TIP3    H172745   4.769   4.502  15.475 -0.5140  1.5373 -0.2152
17110TIP3    H272746   4.685   4.474  15.353 -0.2523  0.1857 -0.1052
17111TIP3   OH272747   1.267   0.701   2.143 -0.3930 -0.2169  0.8091
17111TIP3    H172748   1.252   0.646   2.220  0.4401  0.3891  1.4257
17111TIP3    H272749   1.311   0.644   2.080 -0.5078 -0.5392  1.0193
17112TIP3   OH272750   6.111   4.813  14.748  0.7053  0.4621 -0.5019
17112TIP3    H172751   6.112   4.791  14.655 -0.6108  1.0670 -0.6750
17112TIP3    H272752   6.044   4.881  14.757 -0.1936 -0.5652  1.1073
17113TIP3   OH272753   2.737   4.461   0.983 -0.1286  0.0612 -0.2169
17113TIP3    H172754   2.764   4.461   1.075  1.0984 -0.5329 -0.5672
17113TIP3    H272755   2.814   4.491   0.935 -1.1578  1.6399 -0.9753
17114TIP3   OH272756   5.931   4.142   5.990 -0.0293 -0.1234  0.0992
17114TIP3    H172757   5.923   4.096   6.073 -1.1039 -0.6751 -0.2965
17114TIP3    H272758   5.853   4.116   5.940 -0.6008  1.9716 -0.2027
17115TIP3   OH272759   2.638   6.261  11.549 -0.1920 -0.5708 -0.5842
17115TIP3    H172760   2.672   6.238  11.635  0.2365 -1.3445 -0.9456
17115TIP3    H272761   2.585   6.186  11.523 -2.0993  0.5404 -0.1111
17116TIP3   OH272762   0.847   3.724   3.728  0.3599 -0.1310  0.5055
17116TIP3    H172763   0.882   3.769   3.805 -0.9359 -0.6267  1.4404
17116TIP3    H272764   0.757   3.700   3.754 -0.3619  0.3103 -1.4360
17117TIP3   OH272765   4.988   0.032  15.964  0.6336  0.1484 -0.5863
17117TIP3    H172766   4.987   0.025  16.060 -2.1728  2.7402 -0.2443
17117TIP3    H272767   4.907   0.079  15.944  1.7318  0.7469 -4.1715
17118TIP3   OH272768   3.008   3.919   2.594  0.3424 -0.1231  0.0404
17118TIP3    H172769   3.017   4.010   2.620 -0.4441  0.2241 -0.8610
17118TIP3    H272770   3.030   3.870   2.674  1.1258  0.8249  0.4318
17119TIP3   OH272771   4.051   5.916  17.124  0.3474 -0.0701  0.0407
17119TIP3    H172772   4.113   5.962  17.068 -0.9416  0.1571 -1.2635
17119TIP3    H272773   4.025   5.839  17.074  0.5737 -0.8976  1.1407
17120TIP3   OH272774   0.273   4.344   0.204 -0.0732  0.2515  0.5752
17120TIP3    H172775   0.223   4.369   0.282  0.1505 -2.2600  1.6115
17120TIP3    H272776   0.225   4.384   0.132 -1.3394  1.1421  1.8452
17121TIP3   OH272777   6.579   3.448  14.897 -0.6020  0.6545 -0.4364
17121TIP3    H172778   6.541   3.533  14.875 -3.6037 -0.9675 -2.3965
17121TIP3    H272779   6.504   3.396  14.927  0.8005 -1.7026 -0.7712
17122TIP3   OH272780   0.925   2.198  14.180 -0.3682 -1.0865  0.0549
17122TIP3    H172781   0.992   2.226  14.242 -0.5625  0.4402 -0.3799
17122TIP3    H272782   0.956   2.232  14.095 -1.5262 -0.6203 -0.1967
17123TIP3   OH272783   2.983   2.751   4.106 -0.0105  0.4113 -0.1769
17123TIP3    H172784   3.004   2.725   4.196 -1.2029  0.5626  0.1616
17123TIP3    H272785   2.988   2.669   4.056 -0.7872  0.0458  0.3161
17124TIP3   OH272786   3.204   5.417  15.304  0.3237 -0.3102  0.3090
17124TIP3    H172787   3.289   5.404  15.262  0.0952 -0.1518 -0.2203
17124TIP3    H272788   3.141   5.406  15.233 -0.1227 -0.7982  0.7722
17125TIP3   OH272789   6.044   6.122   4.982  0.2624 -0.6945 -0.5717
17125TIP3    H172790   6.079   6.211   4.980  1.9791 -1.3130  0.1478
17125TIP3    H272791   5.950   6.134   4.992  0.2633  1.0435 -2.0442
17126TIP3   OH272792   5.665   3.942   0.370  0.5987 -0.0827 -0.2584
17126TIP3    H172793   5.676   4.034   0.347  2.7224 -0.1233  0.4114
17126TIP3    H272794   5.695   3.936   0.461  3.2256 -1.8462 -1.1224
17127TIP3   OH272795   6.471   3.849   5.493  0.0984  0.1062 -0.1156
17127TIP3    H172796   6.452   3.928   5.544 -0.5647 -0.5115  0.6405
17127TIP3    H272797   6.551   3.869   5.445  0.6949  0.7651  1.1057
17128TIP3   OH272798   3.463   3.610  15.459 -0.6896  0.0726  0.6860
17128TIP3    H172799   3.486   3.571  15.375 -0.3506  1.3534  0.1707
17128TIP3    H272800   3.452   3.535  15.518  0.3823 -0.7744 -0.1608
17129TIP3   OH272801   0.772   0.264   0.912  1.0982  0.2700 -0.0280
17129TIP3    H172802   0.829   0.297   0.843  0.5166  1.0368 -0.1636
17129TIP3    H272803   0.762   0.339   0.972  0.3612  0.1085  0.0646
17130TIP3   OH272804   2.910   3.995  11.877  0.2276  0.4528  0.0037
17130TIP3    H172805   2.985   4.041  11.840 -0.5789  2.1435  0.3672
17130TIP3    H272806   2.844   3.997  11.808  0.0029  0.3144  0.2134
17131TIP3   OH272807   3.185   1.982  16.998  0.7215  0.1529 -0.1621
17131TIP3    H172808   3.154   2.043  16.931  0.8662 -0.9002 -1.2347
17131TIP3    H272809   3.106   1.953  17.044  0.7565  1.9611  1.1205
17132TIP3   OH272810   1.230   0.071   1.243 -0.3487 -0.0402 -0.0075
17132TIP3    H172811   1.303   0.105   1.191 -0.5718  0.8320  0.2388
17132TIP3    H272812   1.186   0.010   1.184  0.4205 -0.3767 -0.2505
17133TIP3   OH272813   3.265   0.997   1.766 -0.7228  0.7086 -0.0219
17133TIP3    H172814   3.222   1.082   1.774  0.5304  1.2886  1.0381
17133TIP3    H272815   3.305   0.983   1.852 -0.9127 -0.9603 -0.1871
17134TIP3   OH272816   2.446   1.476   0.819  0.0960 -0.1256 -0.4447
17134TIP3    H172817   2.481   1.505   0.904  0.5871  0.1103 -0.7238
17134TIP3    H272818   2.519   1.432   0.776 -0.0218  0.1436 -0.9274
17135TIP3   OH272819   4.645   3.586   3.184  0.7007 -0.3679 -0.2815
17135TIP3    H172820   4.721   3.580   3.126  0.5245 -1.2319 -0.4293
17135TIP3    H272821   4.621   3.679   3.182  2.6147  0.1955  0.8880
17136TIP3   OH272822   4.769   1.684  12.872 -0.1393 -0.5401 -0.3946
17136TIP3    H172823   4.723   1.602  12.853 -0.5317 -0.1172 -1.3291
17136TIP3    H272824   4.859   1.657  12.889 -0.0348 -1.0946 -1.6978
17137TIP3   OH272825   2.156   6.451  15.001 -0.5461 -0.2867 -0.1639
17137TIP3    H172826   2.140   6.358  14.981 -0.8809 -0.5976  1.4454
17137TIP3    H272827   2.097   6.498  14.942 -0.3646 -1.0899 -1.0123
17138TIP3   OH272828   4.335   0.140  13.815  0.1415 -0.3972  0.3129
17138TIP3    H172829   4.358   0.089  13.893 -0.8864 -3.3069 -1.1608
17138TIP3    H272830   4.400   0.114  13.750 -0.7299 -0.2287 -0.6389
17139TIP3   OH272831   6.300   1.032  15.205  0.2269 -0.2674 -0.5313
17139TIP3    H172832   6.334   1.115  15.237  1.0298 -0.3916 -1.0430
17139TIP3    H272833   6.248   0.998  15.278  1.5262 -0.2568  0.4463
17140TIP3   OH272834   4.360   2.497   4.774 -0.4946 -0.3419 -0.3337
17140TIP3    H172835   4.367   2.402   4.762 -2.0047 -0.4920 -0.1863
17140TIP3    H272836   4.451   2.527   4.781  0.0860 -1.5312 -2.1530
17141TIP3   OH272837   1.553   1.928   0.390 -0.2508  0.3033 -0.1731
17141TIP3    H172838   1.642   1.935   0.424 -0.4457  0.4973  0.3042
17141TIP3    H272839   1.499   1.974   0.455 -0.9298 -1.3517  0.4912
17142TIP3   OH272840   4.427   5.018   0.940  0.1309 -0.1981 -0.1161
17142TIP3    H172841   4.403   4.933   0.978 -0.5752 -0.4339 -1.0562
17142TIP3    H272842   4.519   5.010   0.918  0.4213 -0.2375  1.0459
17143TIP3   OH272843   2.948   6.062   5.612  0.1648 -0.5532  0.5420
17143TIP3    H172844   2.860   6.064   5.574  0.1349  0.9168  0.6279
17143TIP3    H272845   2.945   5.990   5.676 -0.6924 -1.0912 -0.0851
17144TIP3   OH272846   1.287   4.070   5.657  0.2419  0.0912 -0.0812
17144TIP3    H172847   1.377   4.042   5.674 -0.0009 -0.4018  0.4220
17144TIP3    H272848   1.245   4.070   5.743 -0.3457 -0.0694 -0.3601
17145TIP3   OH272849   3.351   2.622  11.637  0.3030  0.1724  0.0448
17145TIP3    H172850   3.359   2.613  11.542 -1.0163 -1.8428  0.0688
17145TIP3    H272851   3.343   2.716  11.651  0.6078  0.5276 -1.8281
17146TIP3   OH272852   5.445   2.172  14.898  0.1875  0.1000 -1.0028
17146TIP3    H172853   5.465   2.144  14.808 -1.2479  0.0251 -1.3290
17146TIP3    H272854   5.361   2.130  14.917  0.7653 -0.3763  0.6193
17147TIP3   OH272855   0.442   3.412   0.972 -0.1634  0.2788  0.1756
17147TIP3    H172856   0.443   3.505   0.995 -0.7963  0.4423 -0.4284
17147TIP3    H272857   0.520   3.399   0.918  0.4991  0.2202  1.1188
17148TIP3   OH272858   1.414   2.502  11.717  0.0887  0.3382 -0.0166
17148TIP3    H172859   1.486   2.559  11.745  0.6049 -0.5536  0.5029
17148TIP3    H272860   1.361   2.491  11.796  1.3776 -1.9367  0.6116
17149TIP3   OH272861   1.781   0.939  14.584 -0.8592  0.6252  0.0773
17149TIP3    H172862   1.745   0.874  14.524 -0.7418  0.9173 -0.3105
17149TIP3    H272863   1.864   0.965  14.544 -0.0301 -0.2924  1.1272
17150TIP3   OH272864   6.347   4.509   4.518  0.1271  0.5742 -0.6843
17150TIP3    H172865   6.299   4.541   4.595  0.4558  0.5802 -0.4822
17150TIP3    H272866   6.304   4.426   4.496 -0.7640  1.1615 -1.2392
17151TIP3   OH272867   3.925   5.575   5.268  0.3164  0.1026 -0.9279
17151TIP3    H172868   3.871   5.648   5.238  0.0820  0.2169 -0.2579
17151TIP3    H272869   3.862   5.513   5.305  0.2699 -1.4052 -3.2941
17152TIP3   OH272870   3.059   3.012  13.007 -0.1580  0.0194  0.5623
17152TIP3    H172871   3.011   3.030  13.088  2.2297  1.9649  1.6788
17152TIP3    H272872   3.108   2.932  13.026 -0.5799 -0.2547  0.5261
17153TIP3   OH272873   2.479   3.349   5.080  0.1407 -0.1494  0.5913
17153TIP3    H172874   2.411   3.416   5.092 -0.2442 -0.3862 -0.2348
17153TIP3    H272875   2.431   3.272   5.048  0.8934 -0.0988 -0.7023
17154TIP3   OH272876   1.138   3.272   2.497  0.5403 -0.0253 -0.1387
17154TIP3    H172877   1.158   3.185   2.461 -1.4790 -0.4276 -0.4117
17154TIP3    H272878   1.188   3.332   2.443  1.0896 -0.9454 -0.6872
17155TIP3   OH272879   6.584   6.582   2.649  0.3508 -0.4891  0.2859
17155TIP3    H172880   6.667   6.541   2.671  1.1783 -1.0865 -3.2692
17155TIP3    H272881   6.580   6.577   2.553 -2.1321  2.7281  0.0554
17156TIP3   OH272882   1.628   1.403   5.754  0.0359  0.1268 -0.0038
17156TIP3    H172883   1.546   1.403   5.804  0.1232 -1.5369  0.2126
17156TIP3    H272884   1.622   1.325   5.699  0.8720  0.7735 -1.0595
17157TIP3   OH272885   1.640   0.370  11.774 -0.0931  0.0796 -0.0016
17157TIP3    H172886   1.593   0.447  11.741 -1.1351  0.0925  1.3915
17157TIP3    H272887   1.732   0.390  11.762 -0.3107  1.8607  0.9162
17158TIP3   OH272888   5.291   4.613  15.144 -1.0622 -0.0651  0.2049
17158TIP3    H172889   5.341   4.542  15.104  0.1142 -0.1617  1.7487
17158TIP3    H272890   5.284   4.680  15.076 -0.8818 -1.0265 -0.7795
17159TIP3   OH272891   5.680   6.369  14.050  0.2316 -0.2425 -0.0968
17159TIP3    H172892   5.726   6.443  14.011 -0.2545  0.7455  1.1260
17159TIP3    H272893   5.599   6.407  14.084 -0.9436 -1.7167 -1.1458
17160TIP3   OH272894   2.397   4.571  16.565  0.1881  0.3897  0.5560
17160TIP3    H172895   2.394   4.485  16.525  0.3116  0.4391  0.4394
17160TIP3    H272896   2.427   4.556  16.654  2.7955  0.5641 -0.2053
17161TIP3   OH272897   4.536   5.390  15.741  0.3061 -0.1846 -0.3512
17161TIP3    H172898   4.558   5.350  15.657 -1.2071  0.8035 -1.2685
17161TIP3    H272899   4.452   5.350  15.765  0.1587  0.3883  0.1158
17162TIP3   OH272900   3.927   3.230  14.394  0.2783 -0.5398 -0.0946
17162TIP3    H172901   3.985   3.160  14.423  1.7566 -0.1394 -1.9179
17162TIP3    H272902   3.858   3.186  14.344  0.0041 -0.8594  0.5561
17163TIP3   OH272903   1.884   5.636  16.075  0.4478 -0.4371 -0.3303
17163TIP3    H172904   1.937   5.557  16.060  0.2095 -0.3656 -1.6715
17163TIP3    H272905   1.842   5.620  16.159 -1.1286 -2.6439 -1.4287
17164TIP3   OH272906   3.042   4.340   0.434 -0.1855 -0.4951  0.8687
17164TIP3    H172907   2.951   4.365   0.451  0.0980  0.8157  0.5521
17164TIP3    H272908   3.090   4.373   0.511  0.7756  3.5118 -1.1974
17165TIP3   OH272909   4.518   4.828   2.244 -0.1228 -0.0623  0.6335
17165TIP3    H172910   4.506   4.867   2.330  0.3716 -0.8975  1.0926
17165TIP3    H272911   4.502   4.900   2.183 -0.0033  0.6559  1.4268
17166TIP3   OH272912   3.579   3.846   1.505 -0.3977  0.4401  0.5351
17166TIP3    H172913   3.495   3.850   1.461 -1.4743 -0.8068  2.3289
17166TIP3    H272914   3.640   3.815   1.438 -1.1830  2.0378 -0.9788
17167TIP3   OH272915   3.083   5.525   3.566 -0.8207  0.3266 -0.5020
17167TIP3    H172916   2.993   5.502   3.590 -0.0068 -0.7859  1.8238
17167TIP3    H272917   3.100   5.477   3.486 -1.6164 -1.2390  0.2232
17168TIP3   OH272918   6.617   0.786   0.298 -0.2317 -0.4795 -0.4573
17168TIP3    H172919   6.531   0.751   0.274 -0.3139 -0.3583 -0.3402
17168TIP3    H272920   6.657   0.811   0.215  0.1358 -1.5511 -0.6260
17169TIP3   OH272921   0.418   5.773  15.928  0.2103 -0.2574  0.1200
17169TIP3    H172922   0.333   5.816  15.924  1.4094  2.2074 -1.8042
17169TIP3    H272923   0.429   5.749  16.020 -0.8079  3.2630  1.3263
17170TIP3   OH272924   5.209   3.882  15.895 -0.0634  0.3194 -0.2121
17170TIP3    H172925   5.239   3.817  15.831 -0.3783  1.0039 -1.0736
17170TIP3    H272926   5.287   3.901  15.948  0.1219 -0.4799 -0.1765
17171TIP3   OH272927   6.610   2.470   5.723  0.3628 -0.3453  0.2866
17171TIP3    H172928   6.568   2.475   5.809 -1.7410 -2.0807 -0.5546
17171TIP3    H272929   6.565   2.399   5.678  0.8798  0.9676 -2.5430
17172TIP3   OH272930   3.806   4.935   1.602 -0.8895  0.6358 -0.0924
17172TIP3    H172931   3.897   4.941   1.633 -0.3632  1.5543 -1.6852
17172TIP3    H272932   3.789   5.021   1.563 -1.3340 -0.5555 -2.6920
17173TIP3   OH272933   4.007   3.196   5.115  0.5044  0.5142  0.1528
17173TIP3    H172934   3.960   3.279   5.114  1.7924  1.3352 -1.8904
17173TIP3    H272935   4.010   3.170   5.023  1.1353 -1.2102  0.6242
17174TIP3   OH272936   4.141   6.305   3.878 -0.2748 -0.7755  0.0237
17174TIP3    H172937   4.102   6.383   3.915 -2.1536 -1.4580 -0.4053
17174TIP3    H272938   4.220   6.336   3.833 -0.6294  0.7442  0.4209
17175TIP3   OH272939   4.992   1.505   2.343 -0.3211  0.1252 -0.0294
17175TIP3    H172940   5.075   1.531   2.303 -0.5523  0.0221 -0.5903
17175TIP3    H272941   4.994   1.409   2.340  0.3141  0.0691  1.5802
17176TIP3   OH272942   3.916   0.485  13.616 -0.0074 -0.7503 -0.4459
17176TIP3    H172943   3.985   0.521  13.560 -1.7448 -0.1937 -2.3122
17176TIP3    H272944   3.913   0.392  13.593 -0.5952 -0.5580 -1.1896
17177TIP3   OH272945   5.791   1.589   1.551 -0.3142 -0.2418 -0.0760
17177TIP3    H172946   5.704   1.612   1.517 -0.3649 -0.4864 -0.1168
17177TIP3    H272947   5.775   1.568   1.643  0.0969  2.1159  0.5904
17178TIP3   OH272948   1.425   6.423  14.940 -0.6016 -0.0575  0.2721
17178TIP3    H172949   1.336   6.390  14.940 -1.2398  1.5337 -1.0440
17178TIP3    H272950   1.430   6.481  15.016 -1.0417  0.6999 -0.2691
17179TIP3   OH272951   0.767   5.995  11.009  0.3419  0.9476  0.1629
17179TIP3    H172952   0.750   5.920  10.952  0.0125 -0.0493  1.5275
17179TIP3    H272953   0.759   6.071  10.951 -0.7038  0.0274 -0.9714
17180TIP3   OH272954   5.749   3.808   4.816  0.3394  0.7830  0.3467
17180TIP3    H172955   5.685   3.759   4.868  0.2551  0.7864  0.2468
17180TIP3    H272956   5.799   3.741   4.770 -0.7853  0.8154 -0.9973
17181TIP3   OH272957   5.354   5.716   3.734 -0.4353  0.4228  0.4631
17181TIP3    H172958   5.434   5.753   3.772 -0.5816  0.7966  0.4141
17181TIP3    H272959   5.341   5.633   3.780  0.1361  0.2241  0.2730
17182TIP3   OH272960   1.892   6.086   0.218 -0.3800  0.3152  0.3627
17182TIP3    H172961   1.886   6.049   0.130  1.0511  0.5224  0.1570
17182TIP3    H272962   1.892   6.010   0.276  0.6542  0.0728  0.0547
17183TIP3   OH272963   0.865   0.379   0.310 -0.3912 -0.2549  0.2441
17183TIP3    H172964   0.905   0.302   0.269  0.4038 -1.3416  2.8191
17183TIP3    H272965   0.918   0.453   0.280 -0.1172 -0.9285 -0.9836
17184TIP3   OH272966   3.974   2.008  12.006  0.4060  0.6574 -0.8451
17184TIP3    H172967   4.064   2.003  12.038  0.5161 -2.0253 -1.3608
17184TIP3    H272968   3.975   1.959  11.924 -1.1864  2.1240 -1.7951
17185TIP3   OH272969   2.482   5.956  15.698  0.0720 -0.3339  0.2856
17185TIP3    H172970   2.393   5.929  15.678 -0.2389  1.9232 -1.9296
17185TIP3    H272971   2.476   5.998  15.784 -1.0290 -0.1635  0.1400
17186TIP3   OH272972   0.126   0.868   3.300 -0.2731 -0.6809  0.4956
17186TIP3    H172973   0.220   0.869   3.321 -0.2926 -0.5904  0.5777
17186TIP3    H272974   0.124   0.855   3.205 -0.1726 -0.5525  0.4740
17187TIP3   OH272975   2.155   4.282   5.728 -0.0598 -0.6963  0.3051
17187TIP3    H172976   2.154   4.305   5.635 -0.5404 -0.0430  0.4665
17187TIP3    H272977   2.159   4.365   5.774 -0.7764 -0.9688  0.8859
17188TIP3   OH272978   2.354   6.218   0.465 -0.4525 -0.3730 -0.3351
17188TIP3    H172979   2.416   6.161   0.510 -0.3438 -0.1357 -0.1828
17188TIP3    H272980   2.280   6.225   0.526 -0.3869 -0.2043 -0.2738
17189TIP3   OH272981   5.930   3.994   4.878  0.4320  0.3470  0.2751
17189TIP3    H172982   5.993   3.979   4.808  0.0463  0.1056 -0.0231
17189TIP3    H272983   5.877   3.915   4.881  0.7286  0.1724  1.1416
17190TIP3   OH272984   0.802   6.034  12.272  0.4577  0.3143 -0.3895
17190TIP3    H172985   0.738   6.082  12.219 -0.4045 -0.3620  0.0164
17190TIP3    H272986   0.869   6.099  12.294 -0.5547  1.2570 -0.0553
17191TIP3   OH272987   2.727   2.307   0.809  0.5357 -0.1610 -0.1840
17191TIP3    H172988   2.776   2.225   0.802  0.4317 -0.3402  1.0168
17191TIP3    H272989   2.790   2.375   0.786  1.0541 -0.4653  0.3176
17192TIP3   OH272990   6.156   4.338   5.171  0.3835  0.6633 -0.2318
17192TIP3    H172991   6.116   4.351   5.257  1.5246 -1.4267  0.6960
17192TIP3    H272992   6.093   4.286   5.123  0.7152 -0.1401  0.1871
17193TIP3   OH272993   2.006   1.203  16.233  0.0555  0.2956 -0.1478
17193TIP3    H172994   1.920   1.161  16.230  0.1352  0.0123  1.1099
17193TIP3    H272995   2.061   1.142  16.284  1.1155  0.2755 -1.2549
17194TIP3   OH272996   5.824   1.564   0.021  0.4122  0.4023 -0.6499
17194TIP3    H172997   5.832   1.483   0.072  0.3492  0.3930 -0.6546
17194TIP3    H272998   5.734   1.593   0.035 -0.2333 -0.6367 -2.2742
17195TIP3   OH272999   0.206   3.885  16.854  0.2252 -0.5033 -0.2096
17195TIP3    H173000   0.181   3.811  16.909 -0.8111 -0.1216 -0.1351
17195TIP3    H273001   0.287   3.917  16.891  0.4537 -1.3245  0.0271
17196TIP3   OH273002   5.983   3.709  15.906 -0.4726  0.7371 -0.1854
17196TIP3    H173003   5.989   3.656  15.986 -2.2513  0.7044 -0.0316
17196TIP3    H273004   6.042   3.666  15.844  0.0902  0.1192  0.7576
17197TIP3   OH273005   1.948   6.253  15.404  0.1522  0.2666  0.0872
17197TIP3    H173006   1.906   6.311  15.341 -2.0177 -0.1000  1.0849
17197TIP3    H273007   1.964   6.308  15.480 -2.5460 -0.4514  1.2981
17198TIP3   OH273008   0.686   0.086   2.488 -0.5718  0.1169  0.1691
17198TIP3    H173009   0.727   0.017   2.540 -1.2559  0.8387  1.7003
17198TIP3    H273010   0.666   0.043   2.404 -0.0391 -1.2476  0.7090
17199TIP3   OH273011   2.548   1.117   4.052  0.6159 -0.1285  0.0289
17199TIP3    H173012   2.562   1.191   4.112 -0.0399 -0.2869  0.3818
17199TIP3    H273013   2.453   1.105   4.049  0.7105 -0.9312 -0.0551
17200TIP3   OH273014   6.537   1.789  12.623 -0.1483 -0.7890  0.6592
17200TIP3    H173015   6.557   1.765  12.713 -2.2088 -1.2494  1.0292
17200TIP3    H273016   6.479   1.720  12.591  2.1323 -1.7532 -1.7546
17201TIP3   OH273017   6.110   3.966  12.615 -0.1486  0.0860  0.0105
17201TIP3    H173018   6.193   4.008  12.637  0.9576 -1.6484 -0.6247
17201TIP3    H273019   6.066   4.028  12.557 -0.9334  2.5678  2.9921
17202TIP3   OH273020   4.017   5.177  15.485 -0.3610  0.2199  0.6308
17202TIP3    H173021   3.997   5.230  15.562  0.8202  1.9081 -0.1457
17202TIP3    H273022   4.110   5.158  15.492 -0.3806 -0.1724 -0.0499
17203TIP3   OH273023   3.325   5.386  11.449 -0.4256  0.2142  0.7757
17203TIP3    H173024   3.411   5.412  11.417  0.6389 -2.1999  1.4258
17203TIP3    H273025   3.300   5.312  11.393 -1.3403 -0.1194  1.5897
17204TIP3   OH273026   1.412   4.246   1.010 -0.0056 -0.8350  0.1080
17204TIP3    H173027   1.466   4.323   0.997 -1.1507 -0.2215 -1.2624
17204TIP3    H273028   1.472   4.179   1.044  1.9006 -0.6013 -2.5370
17205TIP3   OH273029   6.217   4.245  12.559 -0.1527  0.0228 -0.3191
17205TIP3    H173030   6.279   4.195  12.506  1.2353  0.9284  0.3772
17205TIP3    H273031   6.231   4.214  12.648 -1.8680 -0.8816 -0.3319
17206TIP3   OH273032   5.342   2.178   5.687 -0.4288  0.6240 -0.0933
17206TIP3    H173033   5.278   2.138   5.744  0.3271  1.1468  1.1787
17206TIP3    H273034   5.379   2.106   5.637 -0.6177  0.0409  0.5936
17207TIP3   OH273035   0.027   0.817   4.533 -0.3865 -0.5484 -1.4703
17207TIP3    H173036   0.073   0.745   4.490 -1.6602 -2.6359  0.4784
17207TIP3    H273037   0.085   0.893   4.519  1.9790 -2.3135 -1.9570
17208TIP3   OH273038   4.382   0.958  13.659  0.1787 -0.3222  0.7478
17208TIP3    H173039   4.301   1.002  13.632  1.3230  1.2420 -0.2973
17208TIP3    H273040   4.378   0.872  13.616 -0.9706 -0.3281  0.8279
17209TIP3   OH273041   3.015   0.945   3.112  0.3021 -0.3341 -0.3485
17209TIP3    H173042   3.064   1.027   3.109 -1.2024  0.6276  0.1956
17209TIP3    H273043   3.014   0.914   3.021  0.1428  0.7236 -0.7266
17210TIP3   OH273044   1.950   5.218  12.843 -0.2155  0.1875  0.1779
17210TIP3    H173045   2.046   5.228  12.840 -0.2787  0.6269 -2.0019
17210TIP3    H273046   1.920   5.253  12.759 -2.3656  0.6504  1.0877
17211TIP3   OH273047   1.338   1.448   5.071 -0.4781  0.5781  0.1705
17211TIP3    H173048   1.292   1.365   5.079 -0.4511  0.5680  0.2206
17211TIP3    H273049   1.275   1.507   5.031 -0.6547  0.6657  0.5804
17212TIP3   OH273050   6.724   2.624  11.127  0.2139  0.4184 -0.2201
17212TIP3    H173051   6.775   2.563  11.074 -0.8704 -1.1944  0.5000
17212TIP3    H273052   6.764   2.619  11.214 -0.1518  0.3719 -0.0503
17213TIP3   OH273053   2.199   1.722   0.064  0.0529 -0.1970 -0.0931
17213TIP3    H173054   2.244   1.638   0.066 -0.8751 -0.7921 -1.9512
17213TIP3    H273055   2.106   1.700   0.058 -0.1922  0.9416 -0.8478
17214TIP3   OH273056   3.167   3.001  11.073  0.0245  0.7909  0.4047
17214TIP3    H173057   3.199   2.923  11.118  1.3616  0.6612 -0.6935
17214TIP3    H273058   3.215   3.073  11.113  1.8955  0.5849 -1.3234
17215TIP3   OH273059   2.533   5.210   0.231  0.2066 -0.0139 -0.1287
17215TIP3    H173060   2.562   5.129   0.272  0.7995  0.8072  1.1355
17215TIP3    H273061   2.523   5.272   0.303  0.4254  1.2336 -1.1199
17216TIP3   OH273062   2.592   2.638  15.457 -0.2280 -0.1484 -0.3108
17216TIP3    H173063   2.508   2.664  15.420 -0.0562  0.8348 -0.0287
17216TIP3    H273064   2.587   2.665  15.549  0.0763 -0.8524 -0.0784
17217TIP3   OH273065   3.557   0.017   1.020  0.1400  0.0983 -0.0436
17217TIP3    H173066   3.549   0.112   1.028  1.6995  0.3223 -0.7279
17217TIP3    H273067   3.643   0.004   0.979 -0.3397 -1.5825 -0.5831
17218TIP3   OH273068   0.850   3.246   6.630 -0.4970 -0.3336  0.4240
17218TIP3    H173069   0.783   3.224   6.695 -0.7168  0.1327  0.3553
17218TIP3    H273070   0.933   3.221   6.671 -0.5334  0.9835  1.3415
17219TIP3   OH273071   2.745   3.312  11.838 -0.1124 -0.6479 -0.2168
17219TIP3    H173072   2.671   3.310  11.898 -1.0559  0.9172 -1.2626
17219TIP3    H273073   2.705   3.321  11.751  1.2296 -2.2372 -1.0721
17220TIP3   OH273074   2.895   2.339  11.788 -0.2600  0.2513 -0.3951
17220TIP3    H173075   2.838   2.262  11.778 -0.0602 -0.1804  1.4751
17220TIP3    H273076   2.954   2.316  11.859 -0.2978  2.1954  0.3192
17221TIP3   OH273077   1.768   4.364   4.587 -0.1157 -0.0732 -0.6229
17221TIP3    H173078   1.679   4.358   4.621 -0.5710  1.8738 -1.3569
17221TIP3    H273079   1.787   4.275   4.556 -1.2886 -0.8339  0.6853
17222TIP3   OH273080   1.467   2.526  12.278  0.2678  0.0501  0.7245
17222TIP3    H173081   1.502   2.556  12.362 -1.9458  1.0292  1.3892
17222TIP3    H273082   1.419   2.446  12.299  0.7699 -0.4208  0.1258
17223TIP3   OH273083   6.227   3.361   2.211 -0.1112  0.0207 -0.4961
17223TIP3    H173084   6.289   3.288   2.209  0.3923  0.3580  1.0252
17223TIP3    H273085   6.149   3.328   2.167 -0.1390 -1.6959  0.7195
17224TIP3   OH273086   1.762   6.731   1.355  0.4810  0.4294  0.4015
17224TIP3    H173087   1.786   6.642   1.332  0.2434  0.5563 -0.3734
17224TIP3    H273088   1.774   6.736   1.450  0.8638 -0.3064  0.3964
17225TIP3   OH273089   3.197   0.138  13.485  0.0908 -0.2443 -0.4230
17225TIP3    H173090   3.205   0.222  13.440  1.2102  0.6368  1.2789
17225TIP3    H273091   3.200   0.161  13.578 -1.0446 -2.0594  0.1034
17226TIP3   OH273092   4.085   6.143  14.148 -0.3581 -0.0556  0.0552
17226TIP3    H173093   4.009   6.089  14.128 -0.1989 -0.2485 -0.0273
17226TIP3    H273094   4.147   6.085  14.191  0.3818 -0.2994 -1.2817
17227TIP3   OH273095   3.204   2.616  14.846  0.2081 -0.3033 -0.1765
17227TIP3    H173096   3.286   2.580  14.812 -0.7575 -1.7696 -1.0876
17227TIP3    H273097   3.185   2.691  14.790 -0.6882 -1.9054 -2.1319
17228TIP3   OH273098   3.405   1.266  13.558 -0.0617 -0.3335  0.2903
17228TIP3    H173099   3.356   1.191  13.593  0.9553 -1.0230  0.2924
17228TIP3    H273100   3.346   1.340  13.568 -0.5830 -0.8865  1.5632
17229TIP3   OH273101   4.642   6.732  15.445  0.2112  0.3778  0.2748
17229TIP3    H173102   4.566   6.790  15.439 -0.3283 -0.3038  0.3966
17229TIP3    H273103   4.704   6.779  15.501 -0.0651  0.9936  0.0738
17230TIP3   OH273104   1.740   4.911   0.335  0.0597  0.0614  0.2734
17230TIP3    H173105   1.742   4.963   0.255  0.4494 -0.1181  0.1662
17230TIP3    H273106   1.832   4.900   0.360 -0.0426 -0.1492  0.5711
17231TIP3   OH273107   2.223   2.863   2.638  0.5178  0.6551 -0.0843
17231TIP3    H173108   2.238   2.871   2.732 -1.2297  6.0461  0.1010
17231TIP3    H273109   2.310   2.869   2.599  1.1864 -0.7754  1.1057
17232TIP3   OH273110   0.720   1.456   2.893 -0.4528  0.1617  0.5206
17232TIP3    H173111   0.670   1.535   2.869 -0.5105  0.5969  2.0038
17232TIP3    H273112   0.809   1.488   2.908 -0.1981 -0.2669 -0.0550
17233TIP3   OH273113   4.529   1.930   6.022  0.3096 -0.2281 -0.2049
17233TIP3    H173114   4.461   1.959   5.961 -1.1332 -0.7447  1.1054
17233TIP3    H273115   4.607   1.976   5.993 -0.0959 -1.0401 -2.9456
17234TIP3   OH273116   4.686   5.128   1.862  0.0102  0.1901  0.2808
17234TIP3    H173117   4.695   5.192   1.791 -1.0874 -0.8928 -0.8904
17234TIP3    H273118   4.672   5.181   1.941 -1.4942  1.4158 -0.7491
17235TIP3   OH273119   3.669   0.194  11.165 -0.0563  0.1270  0.4427
17235TIP3    H173120   3.576   0.211  11.150  0.5532  1.1839 -3.0197
17235TIP3    H273121   3.704   0.278  11.194  0.0174  0.0170  0.6748
17236TIP3   OH273122   4.715   3.110   0.528 -0.2753 -0.0196 -0.7409
17236TIP3    H173123   4.723   3.183   0.590 -2.9276 -0.5849  0.3955
17236TIP3    H273124   4.657   3.047   0.572 -0.5920 -1.4046 -2.9834
17237TIP3   OH273125   5.994   4.883   2.547 -0.5436 -0.0433 -0.2743
17237TIP3    H173126   6.088   4.898   2.539 -0.6901  0.2695 -1.6251
17237TIP3    H273127   5.978   4.879   2.642  0.5260  1.8917  0.0383
17238TIP3   OH273128   3.961   2.501   1.404 -0.2886 -0.0618 -0.4021
17238TIP3    H173129   3.938   2.566   1.337  1.5354  0.5173 -0.5334
17238TIP3    H273130   4.055   2.487   1.392 -0.5465 -2.4384 -0.0905
17239TIP3   OH273131   6.051   1.913  16.251  0.4246  0.0663 -0.0295
17239TIP3    H173132   5.999   1.972  16.196 -0.2202 -2.2674 -2.0922
17239TIP3    H273133   6.127   1.892  16.197  1.2534 -0.0726  1.1690
17240TIP3   OH273134   1.682   3.724  16.428  0.1219 -0.8427  1.1045
17240TIP3    H173135   1.694   3.670  16.350 -0.2145  0.0038  0.4488
17240TIP3    H273136   1.589   3.744  16.428  0.5943  1.7647 -0.0813
17241TIP3   OH273137   0.795   4.658   3.081  0.2340  0.2560 -0.0447
17241TIP3    H173138   0.752   4.723   3.025 -1.9030 -0.7730  0.2923
17241TIP3    H273139   0.728   4.633   3.144  0.4123 -3.3929 -1.0909
17242TIP3   OH273140   4.771   5.613  15.064 -0.2672 -0.1435  0.5687
17242TIP3    H173141   4.789   5.548  15.132 -2.6241 -0.5681  0.8647
17242TIP3    H273142   4.786   5.697  15.106  2.5778 -0.4038  0.2551
17243TIP3   OH273143   6.351   2.231  11.684 -0.0691 -0.4023  0.1764
17243TIP3    H173144   6.397   2.269  11.609 -0.4672 -0.8352 -0.2978
17243TIP3    H273145   6.260   2.223  11.655 -0.1655 -0.8776  0.5892
17244TIP3   OH273146   0.709   1.480   5.136  0.2415  0.2842  0.5283
17244TIP3    H173147   0.758   1.496   5.055  1.6130 -1.3883  0.9674
17244TIP3    H273148   0.676   1.566   5.161 -0.4497  0.8161 -1.9164
17245TIP3   OH273149   2.967   0.627   3.544  0.3884 -0.7598 -0.0379
17245TIP3    H173150   2.947   0.689   3.474 -0.8184  0.0488  0.9764
17245TIP3    H273151   2.934   0.543   3.512 -0.9139 -0.2356 -0.1073
17246TIP3   OH273152   4.932   3.021   2.674  0.0776  0.0251  0.2190
17246TIP3    H173153   4.992   3.022   2.749  1.0248  0.6628 -0.5210
17246TIP3    H273154   4.927   3.112   2.647 -0.8060 -0.1060 -0.0742
17247TIP3   OH273155   2.325   4.312  16.834  0.2514  0.5430 -0.0206
17247TIP3    H173156   2.400   4.258  16.860  0.0774  0.7380  0.9226
17247TIP3    H273157   2.323   4.306  16.738  0.6171 -0.6026  0.0306
17248TIP3   OH273158   6.591   6.471   2.020  0.5542  0.2960  0.2061
17248TIP3    H173159   6.535   6.396   2.001  0.2272  0.7547 -0.6929
17248TIP3    H273160   6.680   6.437   2.012  0.4230 -0.2583  0.9251
17249TIP3   OH273161   6.543   0.181   3.418  0.0938 -0.1064 -0.1617
17249TIP3    H173162   6.629   0.215   3.391 -1.0450  1.4078 -2.1255
17249TIP3    H273163   6.516   0.124   3.346 -0.4345 -0.8482  0.6034
17250TIP3   OH273164   5.094   3.590  16.225  0.4628  0.0980 -0.3702
17250TIP3    H173165   5.025   3.543  16.179  2.1361 -0.4540 -2.5109
17250TIP3    H273166   5.089   3.559  16.315 -2.0347  0.0992 -0.4387
17251TIP3   OH273167   1.931   6.040   1.868  0.4943  1.0140  0.7491
17251TIP3    H173168   1.860   6.085   1.914 -0.5207 -1.4151  1.7341
17251TIP3    H273169   1.998   6.027   1.935 -0.2209 -0.9346  1.1402
17252TIP3   OH273170   1.042   3.358   2.789 -0.1478  0.4719 -0.1610
17252TIP3    H173171   0.994   3.334   2.710 -0.7351  0.3892  0.2165
17252TIP3    H273172   0.981   3.342   2.860  0.9945 -1.2390  0.4984
17253TIP3   OH273173   3.443   0.265   5.908 -0.0988  0.2751 -0.3326
17253TIP3    H173174   3.378   0.294   5.972  1.4306  0.6540  1.1281
17253TIP3    H273175   3.455   0.171   5.926  1.3407  0.6575  0.9681
17254TIP3   OH273176   0.194   4.680  16.583  0.2981  0.6101  0.3955
17254TIP3    H173177   0.246   4.728  16.518  1.1379  1.6885  1.7800
17254TIP3    H273178   0.116   4.733  16.596  0.5928  0.9175  0.9557
17255TIP3   OH273179   5.917   4.888  12.945 -0.0320 -0.1545  0.0928
17255TIP3    H173180   5.830   4.874  12.981  0.5241 -0.7037  1.2849
17255TIP3    H273181   5.956   4.954  13.003  0.0178  0.8251 -1.0122
17256TIP3   OH273182   6.199   1.975   5.701 -0.9800  0.0492  0.3294
17256TIP3    H173183   6.147   1.985   5.780 -0.0791  1.3124  0.7968
17256TIP3    H273184   6.282   1.937   5.731  0.3816  2.8704  0.4904
17257TIP3   OH273185   1.645   1.316  14.961  0.4769 -0.1669 -0.6264
17257TIP3    H173186   1.649   1.254  14.888  0.3758  0.1818 -0.9329
17257TIP3    H273187   1.732   1.356  14.962  0.3931  0.0200 -0.7285
17258TIP3   OH273188   3.904   0.715   2.822 -0.0711 -0.4987 -0.3510
17258TIP3    H173189   3.972   0.713   2.889  0.4077  2.3659 -0.6209
17258TIP3    H273190   3.824   0.735   2.870  0.0682  0.4011 -0.4775
17259TIP3   OH273191   3.553   2.735  11.893 -0.0035  0.4782  0.1565
17259TIP3    H173192   3.557   2.655  11.946 -1.3250  0.9164  0.9586
17259TIP3    H273193   3.577   2.706  11.805 -0.7309 -0.8655  0.3724
17260TIP3   OH273194   6.339   6.451   3.385  0.0496 -0.3448  0.1613
17260TIP3    H173195   6.278   6.381   3.409 -0.7183  0.8532  1.9097
17260TIP3    H273196   6.413   6.439   3.445  0.6502 -0.6228 -0.6315
17261TIP3   OH273197   0.911   4.885   1.596  0.0082 -0.2072 -0.2802
17261TIP3    H173198   0.838   4.901   1.536 -1.8775  2.1944  2.3279
17261TIP3    H273199   0.925   4.970   1.639  2.1646 -1.4126  1.6191
17262TIP3   OH273200   4.418   4.707   5.000  0.3623 -0.0493 -0.0479
17262TIP3    H173201   4.390   4.798   5.007 -1.0111 -0.4575  0.1851
17262TIP3    H273202   4.416   4.674   5.089 -0.4326 -0.6492 -0.2744
17263TIP3   OH273203   4.809   6.402   4.074 -0.4704  0.1015 -0.1176
17263TIP3    H173204   4.870   6.467   4.108 -0.2320 -0.1601 -0.0392
17263TIP3    H273205   4.801   6.423   3.980  1.1959 -0.9884 -0.5424
17264TIP3   OH273206   0.821   3.686   0.065 -0.1053  0.3458 -0.2788
17264TIP3    H173207   0.733   3.676   0.101  1.0931 -2.0078  2.4303
17264TIP3    H273208   0.848   3.774   0.092 -0.8106  0.1872  1.0657
17265TIP3   OH273209   4.954   6.633   4.034  0.2089  0.1513  0.9121
17265TIP3    H173210   4.980   6.697   4.100 -2.1681  0.7320  1.4045
17265TIP3    H273211   4.914   6.686   3.964  0.2023 -0.6515  0.2977
17266TIP3   OH273212   5.315   2.539   5.767 -0.0597  0.0816 -0.2392
17266TIP3    H173213   5.357   2.616   5.805 -0.0616  0.5271 -1.1357
17266TIP3    H273214   5.267   2.500   5.841 -0.3719  1.1431  0.1344
17267TIP3   OH273215   0.072   4.022   3.646  0.2060 -0.5975 -0.3223
17267TIP3    H173216   0.021   3.942   3.659 -0.4322 -0.3318 -1.1322
17267TIP3    H273217   0.139   3.998   3.582  0.3931 -0.6397 -0.1129
17268TIP3   OH273218   3.626   2.112  12.290 -0.1372  0.9884 -0.5116
17268TIP3    H173219   3.690   2.086  12.356  0.1615  3.4624  0.2720
17268TIP3    H273220   3.676   2.166  12.228 -1.3675  2.7922  0.0025
17269TIP3   OH273221   4.822   3.562   4.425 -0.1643  0.0371 -0.0891
17269TIP3    H173222   4.756   3.560   4.356  0.3477  0.9635 -0.6195
17269TIP3    H273223   4.782   3.514   4.497 -0.4037 -1.6222 -1.2753
17270TIP3   OH273224   4.092   0.618   6.238 -0.5205  0.4204  0.3249
17270TIP3    H173225   4.027   0.687   6.226 -1.4317 -0.3279  0.8469
17270TIP3    H273226   4.041   0.540   6.259  0.5181 -0.3185  0.1805
17271TIP3   OH273227   3.063   0.386  13.335 -0.6259  0.1036 -0.3088
17271TIP3    H173228   3.141   0.407  13.284  0.5980 -1.9795  0.5852
17271TIP3    H273229   3.052   0.460  13.394 -0.0123  0.9373 -1.2141
17272TIP3   OH273230   6.686   0.228  13.216 -0.5711 -0.1401 -0.3522
17272TIP3    H173231   6.633   0.191  13.145 -1.2172  1.7123 -0.8954
17272TIP3    H273232   6.776   0.221  13.185 -0.6941 -0.9576 -0.5547
17273TIP3   OH273233   4.908   3.178   0.320  0.2125  0.0504 -0.1079
17273TIP3    H173234   4.846   3.134   0.379  0.8370 -0.2488  0.3356
17273TIP3    H273235   4.879   3.269   0.318  1.5416  0.6296  2.5601
17274TIP3   OH273236   4.671   2.351  13.399  0.0541 -0.5175  0.2293
17274TIP3    H173237   4.734   2.404  13.446  0.3777 -0.7430  0.0538
17274TIP3    H273238   4.595   2.408  13.387 -0.3374 -0.7102  1.6943
17275TIP3   OH273239   0.291   0.601  15.226 -0.2829  0.1219 -0.8475
17275TIP3    H173240   0.205   0.636  15.247  0.8257  1.5346  1.8807
17275TIP3    H273241   0.338   0.673  15.185  0.7269  0.6650  1.1263
17276TIP3   OH273242   4.473   4.226  13.984 -0.1269  0.3389 -0.6491
17276TIP3    H173243   4.429   4.288  14.042 -1.4328 -0.3103 -0.9088
17276TIP3    H273244   4.549   4.197  14.034 -0.7880  0.3966  0.4233
17277TIP3   OH273245   6.412   3.799  12.180 -0.3297 -0.1185 -0.1388
17277TIP3    H173246   6.338   3.747  12.148 -1.6584 -1.1913  4.0180
17277TIP3    H273247   6.475   3.735  12.212  0.4005  0.7983  0.3253
17278TIP3   OH273248   1.195   0.477   4.905  0.4936  0.2760 -0.2674
17278TIP3    H173249   1.269   0.538   4.899  0.4499  0.2723 -0.9711
17278TIP3    H273250   1.213   0.425   4.983  0.7488  0.9071  0.1044
17279TIP3   OH273251   4.006   3.215   0.375  0.1109  0.5182  0.3436
17279TIP3    H173252   4.007   3.310   0.385 -2.5946  1.0970 -2.9690
17279TIP3    H273253   3.914   3.191   0.389  0.4103 -1.3137 -0.5574
17280TIP3   OH273254   1.909   3.682   6.323  0.0348  0.1593 -0.1744
17280TIP3    H173255   1.829   3.732   6.339  0.0935  0.5650 -1.1435
17280TIP3    H273256   1.966   3.704   6.396 -0.8794 -0.4540  0.7602
17281TIP3   OH273257   5.154   0.981  16.985 -0.3891  0.7651 -0.7102
17281TIP3    H173258   5.239   0.998  16.943 -0.0571  0.5607 -0.1304
17281TIP3    H273259   5.090   1.000  16.917  0.1588 -0.0436 -1.4770
17282TIP3   OH273260   1.347   0.561  15.938  1.0581  0.1448 -0.6660
17282TIP3    H173261   1.271   0.536  15.992 -0.8582  1.2807 -2.6736
17282TIP3    H273262   1.406   0.486  15.945  0.9881  0.2389  2.9672
17283TIP3   OH273263   2.219   4.008  15.932  0.2301 -0.1315  0.6264
17283TIP3    H173264   2.143   4.051  15.970 -0.3762 -0.3455 -0.3049
17283TIP3    H273265   2.196   3.915  15.932  0.3843 -0.1726  0.1140
17284TIP3   OH273266   4.426   0.443  14.225  0.3809 -0.2904  0.6986
17284TIP3    H173267   4.506   0.390  14.218  0.9931  0.6447  0.5127
17284TIP3    H273268   4.357   0.384  14.193  0.8804 -1.3351  1.4799
17285TIP3   OH273269   1.269   4.542   2.598 -0.9204 -0.1581 -0.0228
17285TIP3    H173270   1.330   4.480   2.558 -0.9756  1.5300 -3.0133
17285TIP3    H273271   1.253   4.607   2.530 -0.5230  3.4562  3.0143
17286TIP3   OH273272   1.484   5.140  11.514 -0.0476 -0.1331 -0.2824
17286TIP3    H173273   1.439   5.223  11.529  0.8847 -0.0851  2.9774
17286TIP3    H273274   1.568   5.165  11.476  0.1415  0.4538  0.4767
17287TIP3   OH273275   2.432   4.475  17.164 -0.2761  0.6804  0.4277
17287TIP3    H173276   2.392   4.532  17.229  0.7568 -0.7628  2.4148
17287TIP3    H273277   2.359   4.427  17.126 -0.9737  2.1139 -0.1472
17288TIP3   OH273278   5.254   6.623  15.733  0.8385  0.0916 -0.0142
17288TIP3    H173279   5.243   6.625  15.638  2.6703  0.8722 -0.2532
17288TIP3    H273280   5.237   6.713  15.761  0.5454 -0.0811  0.3758
17289TIP3   OH273281   1.909   6.668   4.085  0.3290  0.4294 -0.3190
17289TIP3    H173282   1.891   6.697   4.174  0.1018  1.1352 -0.5880
17289TIP3    H273283   1.838   6.706   4.033  0.4060 -0.0526 -0.7920
17290TIP3   OH273284   5.705   4.922  13.187  0.8589  0.9355 -0.8444
17290TIP3    H173285   5.764   4.991  13.157  1.7383  0.8695  0.6054
17290TIP3    H273286   5.750   4.885  13.263  0.2200 -0.9714 -1.3471
17291TIP3   OH273287   0.378   4.418   1.667 -0.0766 -0.2966 -0.1067
17291TIP3    H173288   0.407   4.466   1.589  1.6367 -1.5168 -0.2825
17291TIP3    H273289   0.287   4.395   1.649 -0.4294  1.4079 -0.7254
17292TIP3   OH273290   3.029   4.612   2.439  0.3908 -0.2702  0.0497
17292TIP3    H173291   2.935   4.598   2.447  0.5230 -1.3800 -0.2515
17292TIP3    H273292   3.068   4.525   2.448  1.3413  0.0780 -0.5443
17293TIP3   OH273293   2.998   5.880   5.333 -0.3075 -0.1003  0.2113
17293TIP3    H173294   2.932   5.930   5.381  0.7895  1.0071  0.6467
17293TIP3    H273295   2.965   5.790   5.332 -2.2222  0.5625 -0.3603
17294TIP3   OH273296   0.119   2.296   1.251  0.0229 -0.2836 -0.0086
17294TIP3    H173297   0.064   2.374   1.243  0.9473  0.2777 -1.1361
17294TIP3    H273298   0.201   2.328   1.288 -0.2673 -1.0720  1.3908
17295TIP3   OH273299   5.654   4.867   0.765  0.4428  0.7812  0.0000
17295TIP3    H173300   5.593   4.879   0.692 -1.1314 -0.9889  0.9506
17295TIP3    H273301   5.683   4.776   0.758  1.0672  0.8813  1.0087
17296TIP3   OH273302   4.935   2.670   2.951  0.7116 -0.1341 -0.4600
17296TIP3    H173303   4.932   2.594   3.009  0.0633  0.6405  0.5697
17296TIP3    H273304   5.005   2.724   2.986  0.4198  0.2675 -0.4916
17297TIP3   OH273305   1.511   2.322  12.738 -0.2829  0.1877  0.4550
17297TIP3    H173306   1.420   2.300  12.758 -0.7517  1.5066 -0.1464
17297TIP3    H273307   1.521   2.302  12.645  0.0795 -0.0351  0.5379
17298TIP3   OH273308   3.526   4.035   0.781 -0.2796 -0.0549  0.2485
17298TIP3    H173309   3.593   4.073   0.724  1.3384 -0.3875  1.8561
17298TIP3    H273310   3.445   4.040   0.729  0.4997  2.5004 -0.8579
17299TIP3   OH273311   6.661   2.558  11.499  0.2532 -0.0509  0.0804
17299TIP3    H173312   6.687   2.632  11.554  1.5305 -0.1907 -0.2940
17299TIP3    H273313   6.725   2.490  11.520 -0.0467 -0.5564 -0.6217
17300TIP3   OH273314   3.005   2.500  11.459  0.2645 -0.6585 -0.7643
17300TIP3    H173315   2.952   2.428  11.425  1.2729 -1.9455  0.2441
17300TIP3    H273316   3.092   2.485  11.422  0.8688 -0.9051  0.6760
17301TIP3   OH273317   5.785   2.407  13.593 -0.4364  0.7713 -0.5357
17301TIP3    H173318   5.856   2.382  13.534 -0.2889  0.3784 -0.1922
17301TIP3    H273319   5.795   2.351  13.669 -0.9859  0.8605 -0.3888
17302TIP3   OH273320   4.246   5.918   0.775  0.1686  0.2644 -0.0763
17302TIP3    H173321   4.154   5.944   0.771  0.1841  0.2034 -0.9118
17302TIP3    H273322   4.251   5.838   0.722  0.6113 -0.0117  0.3706
17303TIP3   OH273323   5.294   1.490  12.288  0.6447  0.5311  0.7589
17303TIP3    H173324   5.249   1.468  12.370 -1.3180  0.1805 -0.3689
17303TIP3    H273325   5.295   1.409  12.238 -0.6302  1.3432 -0.6613
17304TIP3   OH273326   4.192   0.583   4.715 -0.0872  0.0384 -0.1704
17304TIP3    H173327   4.206   0.648   4.783 -0.5723 -0.2907  0.2509
17304TIP3    H273328   4.260   0.518   4.729 -0.6375 -0.4059  0.4634
17305TIP3   OH273329   2.720   6.746  17.069 -0.5089 -0.1392  0.1010
17305TIP3    H173330   2.674   6.771  17.149  0.9324  1.4746  0.4748
17305TIP3    H273331   2.734   6.829  17.023  1.3787 -0.6589 -0.3271
17306TIP3   OH273332   4.711   2.865  11.362 -0.2694  0.2539  0.0527
17306TIP3    H173333   4.743   2.775  11.348  0.1080  0.4659 -0.5019
17306TIP3    H273334   4.786   2.920  11.341 -0.5165  0.7059  0.3440
17307TIP3   OH273335   1.689   5.135   1.780  0.0964 -0.0956  0.1708
17307TIP3    H173336   1.603   5.136   1.738  0.0129  1.1413  0.3589
17307TIP3    H273337   1.732   5.057   1.743 -0.9625 -0.5347 -0.1832
17308TIP3   OH273338   4.400   6.098   2.116  0.0942  0.3248  0.1512
17308TIP3    H173339   4.436   6.013   2.089  1.4626  0.2084  2.1727
17308TIP3    H273340   4.310   6.097   2.082  1.3041 -0.1443 -3.4757
17309TIP3   OH273341   5.562   5.450   1.843  0.3502 -0.1336 -0.4149
17309TIP3    H173342   5.619   5.527   1.844  0.1604  0.0338 -1.2518
17309TIP3    H273343   5.495   5.471   1.777  1.0204 -1.5131 -1.5900
17310TIP3   OH273344   4.450   2.168  12.183 -0.2136  0.2281  0.5450
17310TIP3    H173345   4.517   2.112  12.220 -0.0210  0.0916 -0.0106
17310TIP3    H273346   4.498   2.240  12.142 -0.3078 -0.6482 -1.1801
17311TIP3   OH273347   2.391   6.123   5.767 -0.2973  0.3977 -0.6577
17311TIP3    H173348   2.310   6.125   5.818 -0.5433 -2.3188 -0.7956
17311TIP3    H273349   2.413   6.215   5.754 -3.0238  1.2287 -0.1025
17312TIP3   OH273350   1.400   0.005   2.871  0.4132  0.4851  0.1424
17312TIP3    H173351   1.366  -0.038   2.949  0.7037 -0.8983 -0.4574
17312TIP3    H273352   1.451   0.078   2.904 -1.0871  1.1124  1.1494
17313TIP3   OH273353   5.947   1.899   6.599  0.4563  0.4440  0.2501
17313TIP3    H173354   5.910   1.987   6.586  0.9752  0.4580 -1.2877
17313TIP3    H273355   6.042   1.913   6.595  0.5690 -0.0211  1.2016
17314TIP3   OH273356   0.249   4.581   4.521  0.0244 -0.8851  0.0435
17314TIP3    H173357   0.279   4.595   4.610 -0.1471 -0.3846  0.0233
17314TIP3    H273358   0.177   4.643   4.509  0.5631 -0.3880 -0.6994
17315TIP3   OH273359   5.052   3.794   0.522  0.0245 -0.1150  0.5721
17315TIP3    H173360   5.102   3.714   0.506 -1.1566 -0.6638 -0.5265
17315TIP3    H273361   4.994   3.802   0.447  1.4790  2.8963 -0.3968
17316TIP3   OH273362   1.473   3.406   4.231  0.5234 -0.1812 -0.0687
17316TIP3    H173363   1.518   3.340   4.283  1.0331  0.5246  0.4177
17316TIP3    H273364   1.439   3.359   4.155  0.7228 -1.0238  0.3547
17317TIP3   OH273365   4.140   5.204   5.327  0.1718  0.2450 -0.0709
17317TIP3    H173366   4.160   5.123   5.372  1.4907  0.4869 -0.1650
17317TIP3    H273367   4.059   5.235   5.366 -0.4632 -1.2118 -0.1857
17318TIP3   OH273368   5.629   2.468  14.258 -0.0643 -0.1493  0.3522
17318TIP3    H173369   5.630   2.379  14.223 -1.8157  0.0614 -0.3615
17318TIP3    H273370   5.569   2.516  14.200  0.0385  1.2276  1.3278
17319TIP3   OH273371   1.494   0.290   4.656 -0.0092  0.2569 -0.1525
17319TIP3    H173372   1.427   0.345   4.615 -0.4678 -0.1129  0.0964
17319TIP3    H273373   1.546   0.257   4.582 -0.1812  0.4396 -0.3576
17320TIP3   OH273374   0.698   2.595   2.774  0.1264 -0.6515 -0.2642
17320TIP3    H173375   0.721   2.605   2.682  0.3655  2.3759  0.0157
17320TIP3    H273376   0.617   2.544   2.774  0.2812 -0.9590 -2.0917
17321TIP3   OH273377   2.661   3.869   4.133  0.0979  0.3724  0.4526
17321TIP3    H173378   2.569   3.860   4.157 -0.9407  1.7206 -2.5339
17321TIP3    H273379   2.659   3.893   4.040  3.4034  2.1252  0.6961
17322TIP3   OH273380   3.067   5.611  16.146 -0.6483 -0.1461  0.0934
17322TIP3    H173381   3.127   5.685  16.155 -0.0277 -0.5345 -0.6617
17322TIP3    H273382   3.044   5.611  16.053 -1.0827 -0.5689  0.1976
17323TIP3   OH273383   3.796   1.843   2.941 -0.1767  0.0586 -0.8170
17323TIP3    H173384   3.724   1.828   3.002 -0.8786 -0.9849 -1.8553
17323TIP3    H273385   3.873   1.807   2.984 -0.5708 -0.2309 -0.3487
17324TIP3   OH273386   5.989   2.562  14.555 -0.0195  0.4596  0.6462
17324TIP3    H173387   6.049   2.510  14.503 -0.0652  0.9803  0.0535
17324TIP3    H273388   6.016   2.548  14.645  1.0354  0.7459  0.3827
17325TIP3   OH273389   5.759   0.925   0.668  0.2089  0.1363  0.2698
17325TIP3    H173390   5.829   0.866   0.696 -0.1789 -0.5020 -0.0801
17325TIP3    H273391   5.700   0.870   0.617  0.0967  0.9314 -0.4901
17326TIP3   OH273392   1.871   5.780   6.195  0.3289  0.0778 -0.8739
17326TIP3    H173393   1.813   5.751   6.266  0.2936 -1.4990 -1.5010
17326TIP3    H273394   1.943   5.717   6.195  2.0942  1.9729 -0.1416
17327TIP3   OH273395   2.599   1.546  10.774  0.0116 -0.4316 -0.2204
17327TIP3    H173396   2.526   1.530  10.715 -0.3886  0.2097  0.0941
17327TIP3    H273397   2.624   1.459  10.807 -1.4088 -0.5452  0.6246
17328TIP3   OH273398   6.703   0.293  11.668 -1.1947  0.0290 -0.3904
17328TIP3    H173399   6.678   0.385  11.657 -0.6472  0.3137  0.6053
17328TIP3    H273400   6.638   0.259  11.730 -0.5191  0.1485  0.3901
17329TIP3   OH273401   2.219   0.405   0.259 -0.2212 -0.6554  0.4159
17329TIP3    H173402   2.268   0.483   0.284 -0.8711 -0.6297  1.7095
17329TIP3    H273403   2.209   0.412   0.164 -1.3916  1.5081  0.6457
17330TIP3   OH273404   4.209   3.851  17.042 -0.4217  0.2818 -0.0231
17330TIP3    H173405   4.295   3.861  17.001  0.9320 -0.2405  2.4802
17330TIP3    H273406   4.180   3.940  17.059 -0.5774  0.4742 -1.2370
17331TIP3   OH273407   2.095   5.568  10.678 -0.0621 -0.5021 -0.2153
17331TIP3    H173408   2.080   5.583  10.584  1.8454 -0.2623 -0.5284
17331TIP3    H273409   2.092   5.655  10.717 -1.0543 -0.6215  0.0002
17332TIP3   OH273410   5.262   3.958  12.497  0.3419 -0.1232 -0.6645
17332TIP3    H173411   5.175   3.951  12.458 -0.2957 -0.8747  0.8022
17332TIP3    H273412   5.272   4.051  12.517 -0.5919 -0.1721  0.1158
17333TIP3   OH273413   0.646   5.243   1.392 -0.0035 -0.0616  0.4135
17333TIP3    H173414   0.654   5.159   1.345  1.8573  0.3014 -0.0010
17333TIP3    H273415   0.563   5.279   1.361  0.0051 -0.9574 -0.7477
17334TIP3   OH273416   3.528   5.894   3.582  0.0811  0.1874 -0.0305
17334TIP3    H173417   3.468   5.839   3.531  1.0142  1.3770 -2.5920
17334TIP3    H273418   3.534   5.976   3.533  1.5123  1.2311  1.7400
17335TIP3   OH273419   5.002   2.647  10.814 -0.0093 -0.6230  0.3667
17335TIP3    H173420   4.994   2.554  10.791 -0.2471 -0.8291  1.2440
17335TIP3    H273421   5.061   2.683  10.748 -0.4010 -1.2583 -0.3498
17336TIP3   OH273422   5.501   6.297   1.448 -0.0499  0.0292  0.5249
17336TIP3    H173423   5.579   6.295   1.394  0.1608 -0.6544  0.8441
17336TIP3    H273424   5.482   6.390   1.460  0.8857  0.2084  0.6928
17337TIP3   OH273425   5.304   6.284  11.440  0.3251  0.6250  0.3168
17337TIP3    H173426   5.346   6.253  11.360 -1.1405 -1.6673  0.3583
17337TIP3    H273427   5.230   6.225  11.453  0.5144  0.8985  3.3706
17338TIP3   OH273428   3.593   1.115   3.494 -0.1910  0.1459 -0.2607
17338TIP3    H173429   3.685   1.142   3.496 -0.2672  0.3964  0.1829
17338TIP3    H273430   3.557   1.150   3.576 -0.5734 -0.3318 -0.2252
17339TIP3   OH273431   5.692   3.221  15.070  0.5302  0.0425 -0.2149
17339TIP3    H173432   5.780   3.254  15.090  0.3073  0.6877 -0.2751
17339TIP3    H273433   5.633   3.280  15.117  0.0917  0.1451 -0.8853
17340TIP3   OH273434   4.884   0.137   1.714 -0.0849  0.3964  0.3476
17340TIP3    H173435   4.852   0.066   1.769 -1.3600  0.6560 -0.0214
17340TIP3    H273436   4.882   0.214   1.770 -0.6750  0.5188  0.1687
17341TIP3   OH273437   6.363   2.348  14.249  0.2845  0.3996 -0.4767
17341TIP3    H173438   6.354   2.336  14.154 -0.0752  1.4373 -0.5811
17341TIP3    H273439   6.420   2.276  14.276  0.4926  0.1575 -1.4992
17342TIP3   OH273440   6.732   1.498  11.160  0.1443 -0.1974 -0.1579
17342TIP3    H173441   6.772   1.584  11.166  0.0868 -0.2463  1.2648
17342TIP3    H273442   6.662   1.508  11.095 -0.4837  1.0877  0.6814
17343TIP3   OH273443   5.251   0.757  15.179  0.5686  0.8245  0.0255
17343TIP3    H173444   5.204   0.759  15.096 -2.8299 -0.8406  1.7402
17343TIP3    H273445   5.344   0.762  15.154 -0.3371  1.3780 -3.7513
17344TIP3   OH273446   6.704   6.517  12.366  0.0774 -0.2652 -0.3079
17344TIP3    H173447   6.668   6.482  12.286  2.4001  0.2007 -1.6534
17344TIP3    H273448   6.732   6.441  12.416 -2.1976 -0.6037  0.5534
17345TIP3   OH273449   0.941   2.035  12.851 -0.2437  0.1251  0.1585
17345TIP3    H173450   1.030   2.013  12.877  0.3595  1.8418 -0.3348
17345TIP3    H273451   0.917   1.968  12.787  1.4115  0.6995 -1.1174
17346TIP3   OH273452   0.927   4.795  13.843 -0.5541 -0.2681  0.3173
17346TIP3    H173453   0.847   4.822  13.888 -2.0957  0.2617 -2.4813
17346TIP3    H273454   0.902   4.790  13.750  2.7478  0.2339 -0.7445
17347TIP3   OH273455   6.038   5.589   0.273 -0.1504 -0.1695  0.5485
17347TIP3    H173456   6.045   5.643   0.352 -0.7492 -0.8867  1.1069
17347TIP3    H273457   5.991   5.644   0.211 -0.3629  0.1193  0.9609
17348TIP3   OH273458   4.744   0.238   2.681 -0.3190 -0.1245  0.2449
17348TIP3    H173459   4.659   0.254   2.641 -0.1288  1.2186  0.3222
17348TIP3    H273460   4.774   0.155   2.643 -0.4676  0.7274 -1.8719
17349TIP3   OH273461   6.155   5.279   0.927  0.1348  0.3347 -0.9309
17349TIP3    H173462   6.229   5.306   0.873  0.4707 -1.3112 -1.3391
17349TIP3    H273463   6.195   5.237   1.003 -0.3161 -2.0749 -1.9310
17350TIP3   OH273464   5.087   4.907   0.120 -0.6797  0.6195 -0.0371
17350TIP3    H173465   5.068   4.833   0.178  1.4182  0.1921  0.1748
17350TIP3    H273466   5.001   4.932   0.085 -1.6014 -1.0948  0.8492
17351TIP3   OH273467   1.435   0.534  17.089  0.2717  0.3095 -0.4053
17351TIP3    H173468   1.516   0.489  17.063  0.9562  0.7787  0.8028
17351TIP3    H273469   1.454   0.566  17.178 -0.8004  1.5015 -0.5882
17352TIP3   OH273470   6.557   4.709  14.128  0.0082  0.4262 -0.4732
17352TIP3    H173471   6.518   4.754  14.204 -0.3656  1.2725 -1.1436
17352TIP3    H273472   6.526   4.619  14.135  0.6208  0.2950  0.8067
17353TIP3   OH273473   1.022   1.132  13.445  0.0805  0.1178 -0.1297
17353TIP3    H173474   0.997   1.051  13.400 -0.3197 -0.3232  0.8613
17353TIP3    H273475   0.939   1.177  13.460 -0.0416 -0.7089  1.9684
17354TIP3   OH273476   2.436   3.126  15.092 -0.3313  0.0828  0.1639
17354TIP3    H173477   2.500   3.103  15.024  0.2810  2.2166 -0.0380
17354TIP3    H273478   2.487   3.129  15.173  0.3871  3.6656 -0.2650
17355TIP3   OH273479   3.477   0.089  13.552 -0.1151 -0.0212  1.0633
17355TIP3    H173480   3.426   0.117  13.476  0.9709  0.9191  0.6524
17355TIP3    H273481   3.459  -0.004  13.559 -0.0636 -0.1827 -0.4930
17356TIP3   OH273482   5.015   0.075  15.476 -0.1072 -0.2605 -0.4688
17356TIP3    H173483   5.068   0.122  15.411  0.0081  1.0895  0.5576
17356TIP3    H273484   4.938   0.131  15.489  0.6177  0.3476  1.6931
17357TIP3   OH273485   2.066   0.194  16.151  0.3431 -0.2380  0.0192
17357TIP3    H173486   2.153   0.224  16.126  1.0101 -0.6835  1.7099
17357TIP3    H273487   2.021   0.178  16.068  1.9839 -0.3300 -0.8812
17358TIP3   OH273488   1.131   0.413  12.538 -0.5831  0.3990 -0.7148
17358TIP3    H173489   1.158   0.501  12.514  0.2749  0.4486  0.3343
17358TIP3    H273490   1.062   0.391  12.476 -1.5585  2.1992 -0.3181
17359TIP3   OH273491   0.975   4.461  16.767 -0.3522 -0.3155  0.4595
17359TIP3    H173492   0.965   4.553  16.741  0.9635  0.0726  1.2409
17359TIP3    H273493   0.989   4.465  16.862 -1.1983 -1.4066  0.6441
17360TIP3   OH273494   2.397   5.415   4.825  0.3634  0.3050 -0.3262
17360TIP3    H173495   2.394   5.320   4.818  0.1626  0.1288  1.6203
17360TIP3    H273496   2.474   5.440   4.774  0.3861 -0.8804 -0.9169
17361TIP3   OH273497   0.184   3.811  16.588  0.1943  0.3347  0.2837
17361TIP3    H173498   0.179   3.848  16.676  2.6601  1.8119 -0.0869
17361TIP3    H273499   0.164   3.719  16.599 -0.5384  0.6754  2.2224
17362TIP3   OH273500   5.513   5.455  12.006 -0.2885 -0.1604  0.1459
17362TIP3    H173501   5.538   5.476  11.916  0.4729  0.6593  0.5271
17362TIP3    H273502   5.471   5.534  12.038 -0.6024 -0.4670  0.4989
17363TIP3   OH273503   2.983   5.441  15.551 -0.3189  0.4622 -0.0029
17363TIP3    H173504   2.912   5.376  15.551 -0.1618  0.2903 -0.3020
17363TIP3    H273505   3.002   5.456  15.459  1.8536 -1.5050  0.0261
17364TIP3   OH273506   1.641   0.120   3.507 -0.1492 -0.9287  0.5846
17364TIP3    H173507   1.692   0.068   3.444  1.8037 -2.4868  3.2291
17364TIP3    H273508   1.554   0.079   3.507 -0.5273 -0.2673 -1.7156
17365TIP3   OH273509   5.096   5.425   5.417  0.5049 -0.1860 -0.3461
17365TIP3    H173510   5.176   5.375   5.398 -0.1919 -0.5886 -2.5815
17365TIP3    H273511   5.046   5.369   5.477  2.0976  0.3318  1.5455
17366TIP3   OH273512   0.353   5.426   3.217  0.0041 -0.1088  0.0870
17366TIP3    H173513   0.268   5.468   3.203  0.1736 -0.4380 -2.3554
17366TIP3    H273514   0.332   5.337   3.243 -0.4652 -0.4859 -1.4676
17367TIP3   OH273515   2.790   6.456   1.950 -0.2908 -0.0829  0.3946
17367TIP3    H173516   2.882   6.477   1.938 -0.8971  1.8887 -1.6853
17367TIP3    H273517   2.748   6.490   1.871 -2.5890 -2.4384  0.4781
17368TIP3   OH273518   2.000   4.335  13.034  0.0793 -0.3809 -0.5923
17368TIP3    H173519   2.034   4.248  13.055  0.9685 -0.3462 -1.7293
17368TIP3    H273520   2.039   4.393  13.099  1.5573 -0.4848 -1.3268
17369TIP3   OH273521   1.343   2.110  14.031  0.0692 -0.1715  0.5709
17369TIP3    H173522   1.284   2.174  13.991 -0.8532  0.8253  3.3034
17369TIP3    H273523   1.317   2.026  13.991 -0.7973  0.7052 -0.8295
17370TIP3   OH273524   1.917   5.170  11.913 -0.2955 -0.5042 -0.3279
17370TIP3    H173525   1.995   5.202  11.959 -0.7948  1.1943 -0.6019
17370TIP3    H273526   1.928   5.201  11.824 -1.2004 -0.4251 -0.4134
17371TIP3   OH273527   6.352   4.502   4.103  0.0053  0.4635 -0.4348
17371TIP3    H173528   6.280   4.505   4.167 -0.6735 -1.4511 -1.0233
17371TIP3    H273529   6.430   4.488   4.156 -0.5068 -0.7967  0.0526
17372TIP3   OH273530   0.055   0.322  16.484 -0.0252 -0.1441 -0.1104
17372TIP3    H173531   0.065   0.241  16.534  2.1712 -0.1328 -0.4144
17372TIP3    H273532  -0.038   0.325  16.461 -0.2514 -2.3489  0.2705
17373TIP3   OH273533   3.805   0.215  15.580 -0.1866  0.4887 -0.0980
17373TIP3    H173534   3.814   0.248  15.491  0.7780  0.0671 -0.1629
17373TIP3    H273535   3.888   0.172  15.599 -1.0650 -1.1148  0.3214
17374TIP3   OH273536   2.060   2.030   4.080 -0.2400 -0.2827  0.0972
17374TIP3    H173537   2.056   2.029   3.984 -0.0110 -0.6246  0.0925
17374TIP3    H273538   2.150   2.006   4.101 -0.3877 -0.5763  0.4054
17375TIP3   OH273539   0.301   1.074   2.083 -0.1681 -0.3645  0.2351
17375TIP3    H173540   0.396   1.077   2.089  0.0473 -1.8980 -1.5920
17375TIP3    H273541   0.275   1.166   2.069  1.0937 -0.0158  0.0747
17376TIP3   OH273542   0.342   3.248   5.853 -0.1732  0.1072 -0.1232
17376TIP3    H173543   0.349   3.262   5.759 -0.5097  2.2768  0.1300
17376TIP3    H273544   0.313   3.332   5.888  1.4082 -0.1864  2.1049
17377TIP3   OH273545   1.052   4.223   5.572 -0.1610 -0.4823  0.0600
17377TIP3    H173546   1.118   4.231   5.641  0.1984 -0.7416 -0.2520
17377TIP3    H273547   1.000   4.303   5.580  0.4848 -0.0480  0.0045
17378TIP3   OH273548   2.778   3.943   4.373 -0.1435  0.2402 -0.2723
17378TIP3    H173549   2.752   3.894   4.294 -1.8715  1.1117 -0.2887
17378TIP3    H273550   2.821   4.022   4.338 -2.1002  1.2917 -0.4496
17379TIP3   OH273551   1.602   0.355  15.690  0.4465 -0.1745  0.0662
17379TIP3    H173552   1.664   0.424  15.667 -0.3039 -0.4129 -2.9684
17379TIP3    H273553   1.567   0.325  15.607 -1.1949 -2.4503  1.4747
17380TIP3   OH273554   3.435   2.785  11.048  0.1805  0.1629 -0.1296
17380TIP3    H173555   3.432   2.813  10.956 -0.1030  1.3878  0.2286
17380TIP3    H273556   3.482   2.855  11.093 -0.0624 -0.2130  0.7335
17381TIP3   OH273557   0.207   2.816   1.888 -0.0371  0.0870 -0.0129
17381TIP3    H173558   0.184   2.725   1.904 -0.7093  0.2587  0.0163
17381TIP3    H273559   0.235   2.818   1.797  1.2683 -0.3930  0.3516
17382TIP3   OH273560   2.128   0.067   4.432 -0.8763 -0.3277  0.0618
17382TIP3    H173561   2.048   0.022   4.458 -2.4480  2.0984 -0.2515
17382TIP3    H273562   2.170   0.090   4.514 -1.7015  0.3389  0.3170
17383TIP3   OH273563   2.822   0.279   4.308  0.3424  0.1374 -0.2668
17383TIP3    H173564   2.775   0.293   4.226  1.1635 -0.0348 -0.7781
17383TIP3    H273565   2.889   0.214   4.287 -0.0025 -0.5730  0.7606
17384TIP3   OH273566   1.633   5.862  16.850  1.0946  0.2666  0.0157
17384TIP3    H173567   1.564   5.848  16.785  0.6833  2.5166 -0.1231
17384TIP3    H273568   1.688   5.784  16.845  0.0215 -0.4275 -1.7082
17385TIP3   OH273569   4.529   0.170   5.365 -0.5589 -0.2614  0.4726
17385TIP3    H173570   4.443   0.175   5.407  0.3212  0.4313  2.3223
17385TIP3    H273571   4.581   0.237   5.410  1.2882 -1.4695  0.2449
17386TIP3   OH273572   3.661   1.738   3.278 -0.0973 -0.5222 -0.3762
17386TIP3    H173573   3.738   1.774   3.321  0.6822 -1.2379 -1.1406
17386TIP3    H273574   3.591   1.747   3.343  0.8140 -0.6150  0.6397
17387TIP3   OH273575   5.117   2.421   3.104 -0.1423 -0.0540  0.5886
17387TIP3    H173576   5.192   2.477   3.126 -1.0330  2.9064 -2.8970
17387TIP3    H273577   5.052   2.440   3.172  0.5061  1.2064  0.8862
17388TIP3   OH273578   6.610   1.537  16.752 -0.5681  0.5953  0.4366
17388TIP3    H173579   6.661   1.614  16.726 -1.8470  1.0271 -0.9454
17388TIP3    H273580   6.531   1.541  16.698 -1.9852 -0.1696  2.3354
17389TIP3   OH273581   5.129   1.114   3.024 -0.2309 -0.4076 -1.0524
17389TIP3    H173582   5.183   1.058   3.079 -0.7395 -0.6445 -0.7925
17389TIP3    H273583   5.125   1.197   3.072 -1.1393 -0.7895 -0.4394
17390TIP3   OH273584   4.989   5.334   5.159  0.1029 -0.6604 -0.4162
17390TIP3    H173585   5.020   5.355   5.247 -0.8377  1.3530 -0.5293
17390TIP3    H273586   5.069   5.314   5.110  0.7123 -0.9063  0.6421
17391TIP3   OH273587   5.662   6.120   3.534  0.2148  0.6704 -0.5639
17391TIP3    H173588   5.712   6.202   3.527  0.2354  0.8691  1.2871
17391TIP3    H273589   5.628   6.121   3.624 -2.3988  0.1166 -1.4688
17392TIP3   OH273590   0.247   6.612  11.653 -0.3034  0.0669 -0.1138
17392TIP3    H173591   0.210   6.546  11.594 -1.4966 -0.0998  0.7821
17392TIP3    H273592   0.171   6.651  11.696  0.4786  0.9817  0.4713
17393TIP3   OH273593   6.632   3.367   2.201 -0.3927  0.0580  0.3878
17393TIP3    H173594   6.625   3.401   2.290 -0.8528  1.8939 -0.3062
17393TIP3    H273595   6.722   3.384   2.175 -0.6324  0.8691  0.0283
17394TIP3   OH273596   1.085   2.682  14.672  0.3596  0.0818  0.3742
17394TIP3    H173597   1.046   2.696  14.586 -0.0310  0.1239  0.5561
17394TIP3    H273598   1.175   2.714  14.663  0.3099  0.1163 -0.0077
17395TIP3   OH273599   6.602   0.288  13.635  0.2638 -0.2712  0.1334
17395TIP3    H173600   6.578   0.231  13.708  1.5600  0.4268  1.1414
17395TIP3    H273601   6.695   0.272  13.622  0.1774  0.0451 -1.0121
17396TIP3   OH273602   1.757   4.143  14.833  0.3177  0.2093 -0.0326
17396TIP3    H173603   1.746   4.200  14.757  1.2394 -1.6745 -1.6665
17396TIP3    H273604   1.687   4.078  14.826  0.0808  0.3282  1.0495
17397TIP3   OH273605   2.864   0.373   0.690 -0.2386 -0.1909  0.8593
17397TIP3    H173606   2.838   0.419   0.769  1.5150  1.9638  0.3024
17397TIP3    H273607   2.950   0.336   0.711 -0.8530 -1.7688  0.7199
17398TIP3   OH273608   0.386   2.519  15.625 -0.0527 -0.1372  0.2026
17398TIP3    H173609   0.395   2.425  15.640  3.2185 -0.2229 -1.3999
17398TIP3    H273610   0.446   2.559  15.688  1.3710  0.5278 -1.4671
17399TIP3   OH273611   2.248   2.778   5.834 -0.4835 -0.4953  0.5601
17399TIP3    H173612   2.313   2.841   5.866  0.0413 -2.0325  2.7190
17399TIP3    H273613   2.271   2.766   5.742  1.5033 -0.0357  0.9377
17400TIP3   OH273614   6.084   5.573  16.967  0.4954  0.4324 -0.0281
17400TIP3    H173615   6.083   5.520  16.887 -0.4962  2.2357 -1.2712
17400TIP3    H273616   6.168   5.553  17.008  0.5214 -1.4095 -0.8928
17401TIP3   OH273617   4.192   2.276  11.402 -0.6796 -0.4021 -0.1752
17401TIP3    H173618   4.112   2.307  11.358  0.2269  0.6609 -1.1414
17401TIP3    H273619   4.173   2.288  11.495 -1.0670  1.3941 -0.4437
17402TIP3   OH273620   4.785   6.209   5.102  1.1309  0.3228 -0.5105
17402TIP3    H173621   4.719   6.267   5.140  0.3549 -0.1250 -1.1549
17402TIP3    H273622   4.827   6.263   5.034  0.4015  0.1405 -1.1179
17403TIP3   OH273623   2.488   2.625   4.153 -0.1792  0.1602 -0.7617
17403TIP3    H173624   2.577   2.640   4.183 -0.3402  0.9133 -0.6554
17403TIP3    H273625   2.432   2.670   4.216 -0.5961  0.3796 -1.2798
17404TIP3   OH273626   5.153   4.860   2.246  0.2303  0.1598 -0.0420
17404TIP3    H173627   5.188   4.938   2.290  1.4864 -0.1277 -0.4842
17404TIP3    H273628   5.059   4.863   2.263  0.6424 -0.0454  2.8465
17405TIP3   OH273629   1.165   4.286   1.876  0.3375  0.2095  0.1086
17405TIP3    H173630   1.103   4.352   1.844  0.3522 -0.1562 -0.7014
17405TIP3    H273631   1.110   4.213   1.904  0.3647  0.2043  0.1470
17406TIP3   OH273632   4.644   0.067   1.134 -0.5692 -0.3306 -0.6092
17406TIP3    H173633   4.591   0.029   1.204 -1.2926  0.5755 -0.6562
17406TIP3    H273634   4.682  -0.009   1.089  1.5949 -0.9425  1.9942
17407TIP3   OH273635   3.192   5.975   2.673  0.2775 -0.5955  0.7082
17407TIP3    H173636   3.281   6.002   2.699  0.7312 -0.6133 -0.7287
17407TIP3    H273637   3.153   5.940   2.753  2.2777 -2.4817  0.9362
17408TIP3   OH273638   6.399   2.982  15.125 -0.2966  0.3387  0.3284
17408TIP3    H173639   6.473   3.015  15.178  1.1039 -1.3793 -0.4458
17408TIP3    H273640   6.397   2.889  15.144 -1.5197  0.1619 -0.6170
17409TIP3   OH273641   0.881   6.670  13.826  0.0857  0.2859  0.1627
17409TIP3    H173642   0.954   6.625  13.868 -0.4274 -0.6308  0.0802
17409TIP3    H273643   0.921   6.748  13.786  1.5770 -1.5619 -2.2705
17410TIP3   OH273644   5.853   3.908   3.045 -0.3196  0.1008 -0.3786
17410TIP3    H173645   5.831   3.893   3.137 -0.6255  3.3572  0.2085
17410TIP3    H273646   5.942   3.877   3.036 -0.0878  0.2005  1.1977
17411TIP3   OH273647   5.110   5.818  15.774  0.5146 -0.9515 -0.1283
17411TIP3    H173648   5.071   5.897  15.809 -0.2254 -1.4001  0.0742
17411TIP3    H273649   5.135   5.841  15.685 -1.5749 -1.0656 -0.7999
17412TIP3   OH273650   0.027   4.558   3.862 -0.6171 -0.5622  0.0919
17412TIP3    H173651  -0.054   4.609   3.856 -1.0245 -1.3405 -1.9091
17412TIP3    H273652   0.076   4.582   3.783  0.0935 -1.7218  0.1614
17413TIP3   OH273653   5.964   2.798   2.880 -0.2728 -0.5986  0.9291
17413TIP3    H173654   6.006   2.720   2.845 -0.9248 -0.4903 -0.1538
17413TIP3    H273655   5.945   2.853   2.803 -2.6673 -0.8062  1.2692
17414TIP3   OH273656   3.235   1.457   2.252 -0.3468 -0.1300 -1.0654
17414TIP3    H173657   3.204   1.488   2.167 -0.2696  1.4595 -0.5518
17414TIP3    H273658   3.182   1.505   2.315  0.4638 -0.3270 -0.2178
17415TIP3   OH273659   2.104   1.719  16.496 -0.3012 -0.2411 -0.0667
17415TIP3    H173660   2.194   1.718  16.528  0.1779  2.1096 -1.1770
17415TIP3    H273661   2.096   1.638  16.445  2.3580  0.9980 -2.7902
17416TIP3   OH273662   4.185   6.742  12.282 -0.8890 -0.1900 -0.5954
17416TIP3    H173663   4.107   6.797  12.291 -1.1610 -0.6766  0.0847
17416TIP3    H273664   4.247   6.797  12.235 -1.0106  0.8664  0.4341
17417TIP3   OH273665   2.408   1.019  15.915  0.0824  0.2570  0.1233
17417TIP3    H173666   2.472   1.027  15.845  0.3106 -2.7415 -0.1154
17417TIP3    H273667   2.329   0.986  15.872 -0.5672  0.7175  0.9276
17418TIP3   OH273668   3.689   6.209   1.692 -0.0990  0.5716 -0.5374
17418TIP3    H173669   3.662   6.249   1.610 -0.0667 -1.3414 -1.5305
17418TIP3    H273670   3.647   6.124   1.693 -0.5397  0.7482  1.7148
17419TIP3   OH273671   3.105   0.315  15.923  0.0502  0.4036  0.2868
17419TIP3    H173672   3.038   0.370  15.963  1.0179  1.5415  0.4280
17419TIP3    H273673   3.166   0.378  15.883  2.0292 -0.4675  1.7626
17420TIP3   OH273674   5.448   3.190   3.160 -0.0011  0.4649  0.5888
17420TIP3    H173675   5.520   3.135   3.129 -0.5985  0.4168 -0.7905
17420TIP3    H273676   5.419   3.238   3.083 -0.8103  1.2188  1.3375
17421TIP3   OH273677   0.678   3.671   5.035  0.1430  0.6215  0.0957
17421TIP3    H173678   0.587   3.651   5.011  0.4669 -0.2930 -0.4441
17421TIP3    H273679   0.674   3.699   5.126 -0.8035  1.5756 -0.2206
17422TIP3   OH273680   4.270   6.003   5.456 -0.8022 -0.2067 -0.3505
17422TIP3    H173681   4.189   5.973   5.415  0.1659 -0.1777 -2.4395
17422TIP3    H273682   4.313   5.923   5.487 -0.5193 -0.5050 -1.4639
17423TIP3   OH273683   1.096   4.330  16.044  0.7150  0.4376  0.7214
17423TIP3    H173684   1.113   4.385  15.967 -1.9140  0.5060  0.0755
17423TIP3    H273685   1.076   4.243  16.007 -1.4592  0.6809  1.1535
17424TIP3   OH273686   0.144   5.038  13.120  0.4257  1.0315  0.0992
17424TIP3    H173687   0.208   4.976  13.155  1.8382  1.9396 -0.7738
17424TIP3    H273688   0.064   5.020  13.168  1.1860 -0.5270  0.8339
17425TIP3   OH273689   0.149   6.511   1.913  0.2927 -0.6442  0.7781
17425TIP3    H173690   0.224   6.453   1.904  0.6322  0.0632 -1.6035
17425TIP3    H273691   0.108   6.512   1.827 -1.7927 -0.0940  1.7041
17426TIP3   OH273692   2.289   2.664   4.536 -0.3725  0.1481  0.0163
17426TIP3    H173693   2.364   2.604   4.543  0.0394  0.7600  1.0101
17426TIP3    H273694   2.297   2.702   4.449 -0.3760 -0.8875 -0.4531
17427TIP3   OH273695   4.843   6.677   5.026  0.1422 -0.1046  0.1169
17427TIP3    H173696   4.917   6.631   5.066 -1.5095 -1.7037  1.4962
17427TIP3    H273697   4.807   6.730   5.097 -0.4283  0.1577 -0.3560
17428TIP3   OH273698   5.557   1.230   1.183  0.3193 -0.3623  0.3925
17428TIP3    H173699   5.511   1.225   1.099 -1.9778 -2.8890  1.6783
17428TIP3    H273700   5.548   1.322   1.209  0.7410  0.3885 -1.8619
17429TIP3   OH273701   4.519   0.847   0.096  0.0197 -0.9727 -0.2492
17429TIP3    H173702   4.519   0.842   0.000 -1.9254 -0.7529 -0.3165
17429TIP3    H273703   4.470   0.927   0.116 -1.1831 -1.9459  0.9116
17430TIP3   OH273704   5.241   3.554   1.201  0.6333 -0.7667  0.4965
17430TIP3    H173705   5.279   3.589   1.121  0.2143 -1.5414 -0.0477
17430TIP3    H273706   5.270   3.615   1.269  2.2675 -0.9321  0.0046
17431TIP3   OH273707   2.054   1.945   4.475 -0.3165 -0.4111 -0.3348
17431TIP3    H173708   1.962   1.928   4.452  0.4651 -2.4993 -2.2110
17431TIP3    H273709   2.077   2.023   4.426 -0.7062 -0.6927 -0.9787
17432TIP3   OH273710   6.603   3.681   3.241  0.5423 -0.5700  0.6908
17432TIP3    H173711   6.687   3.637   3.243  0.9127  0.1358  2.3735
17432TIP3    H273712   6.605   3.742   3.315 -1.4090 -0.4677  0.7349
17433TIP3   OH273713   3.519   2.702   5.784  0.2855  0.2383 -0.6674
17433TIP3    H173714   3.572   2.637   5.830  1.5190  1.5057 -0.1868
17433TIP3    H273715   3.444   2.718   5.842  0.4913 -0.0431 -0.3217
17434TIP3   OH273716   0.303   6.733   0.663 -0.4713 -0.1522  0.2661
17434TIP3    H173717   0.284   6.761   0.574 -1.0323 -1.9630 -0.2328
17434TIP3    H273718   0.332   6.812   0.708 -4.1814  1.7418 -0.3444
17435TIP3   OH273719   1.841   6.085   6.145 -0.1646 -0.4993 -0.0822
17435TIP3    H173720   1.874   6.105   6.233  2.2549  0.9884 -1.2102
17435TIP3    H273721   1.772   6.021   6.159 -2.3434  2.1877  3.2015
17436TIP3   OH273722   4.060   4.443   2.608 -0.0127  0.3414  0.0785
17436TIP3    H173723   4.102   4.488   2.681  1.0370 -2.4226  1.3174
17436TIP3    H273724   3.967   4.465   2.616  0.1657  0.5638  1.9272
17437TIP3   OH273725   5.089   2.421   5.150  0.4815 -0.2394  0.1320
17437TIP3    H173726   4.999   2.451   5.139  0.7092  1.4686  2.2661
17437TIP3    H273727   5.081   2.326   5.163 -0.9997 -0.1245  0.2347
17438TIP3   OH273728   2.163   2.148   5.334 -0.1085 -0.1755 -0.2435
17438TIP3    H173729   2.121   2.196   5.263 -0.3417  0.3547  0.2394
17438TIP3    H273730   2.226   2.091   5.291 -2.6036 -2.4275 -1.1479
17439TIP3   OH273731   1.663   4.057   1.173  0.2933 -0.4666  0.2214
17439TIP3    H173732   1.592   4.102   1.218  0.2385 -0.8118  0.4817
17439TIP3    H273733   1.658   3.967   1.204  0.7049 -0.5440  0.0686
17440TIP3   OH273734   4.256   1.347   0.684  0.0907  0.2805 -0.1221
17440TIP3    H173735   4.259   1.416   0.618 -1.3219 -0.1705 -0.6776
17440TIP3    H273736   4.170   1.308   0.675  1.3957 -2.7170 -1.0200
17441TIP3   OH273737   6.601   2.830   1.899 -0.5117  0.0825  0.2493
17441TIP3    H173738   6.668   2.766   1.875 -1.9891 -0.7601 -1.9006
17441TIP3    H273739   6.651   2.909   1.921  1.2119  0.0941 -3.0618
17442TIP3   OH273740   1.952   3.111   3.895  0.9887  0.3567  0.0383
17442TIP3    H173741   1.958   3.165   3.816  2.1204  2.1271  1.2834
17442TIP3    H273742   2.036   3.066   3.900  0.2893 -1.1041 -0.6393
17443TIP3   OH273743   2.722   2.869  15.349  0.3176  0.3926  0.0608
17443TIP3    H173744   2.671   2.903  15.422  1.1682 -0.9622  1.3494
17443TIP3    H273745   2.717   2.774  15.358  0.3028  0.1890 -1.7677
17444TIP3   OH273746   3.166   4.653   0.311  0.1763  0.2302 -0.4885
17444TIP3    H173747   3.082   4.645   0.357  0.9360 -0.4062  0.8409
17444TIP3    H273748   3.168   4.744   0.280  0.0915  1.0729  1.7418
17445TIP3   OH273749   1.532   6.120  12.916  0.0142  0.2119 -0.5671
17445TIP3    H173750   1.526   6.184  12.986 -1.6057  0.8781 -1.2451
17445TIP3    H273751   1.614   6.140  12.871 -0.9988  2.6335 -1.4816
17446TIP3   OH273752   1.309   1.228  16.480  0.1565  0.0102 -0.9574
17446TIP3    H173753   1.220   1.194  16.471  0.5461 -1.2887 -0.0951
17446TIP3    H273754   1.315   1.258  16.570  0.6734 -0.1059 -0.9521
17447TIP3   OH273755   4.655   2.038  12.309 -0.0164  0.1374  0.7202
17447TIP3    H173756   4.737   2.019  12.263 -0.2839  1.8939 -0.5604
17447TIP3    H273757   4.682   2.061  12.398  1.0655  1.9140 -0.0082
17448TIP3   OH273758   0.448   4.201  16.028  0.5432  0.2899 -0.2434
17448TIP3    H173759   0.449   4.141  16.102 -0.1187 -1.2657 -1.4423
17448TIP3    H273760   0.443   4.288  16.068 -1.5144 -0.5591  1.5614
17449TIP3   OH273761   5.982   6.087   1.423  0.1317  0.9429  0.1138
17449TIP3    H173762   6.010   6.165   1.376  0.9050 -0.0584 -1.1899
17449TIP3    H273763   5.989   6.017   1.357  1.9430 -0.6734  1.9042
17450TIP3   OH273764   2.650   6.026   0.987 -0.3264  0.3687  0.7559
17450TIP3    H173765   2.711   5.954   0.970 -0.2387  0.3129  1.2867
17450TIP3    H273766   2.579   6.013   0.923  0.0698  0.2675  0.3313
17451TIP3   OH273767   6.372   0.956   0.264 -0.0706 -0.2619 -0.1136
17451TIP3    H173768   6.428   0.967   0.341 -0.5481 -1.7213  0.4969
17451TIP3    H273769   6.432   0.932   0.193  0.3877  1.2212 -0.2512
17452TIP3   OH273770   6.306   0.052  10.366  0.3819 -0.1030 -0.1738
17452TIP3    H173771   6.318   0.142  10.394  1.5558  0.1401 -1.3544
17452TIP3    H273772   6.229   0.022  10.414  0.7374  1.1008  1.2159
17453TIP3   OH273773   1.944   2.886  11.392 -0.2027  0.2420 -0.0142
17453TIP3    H173774   1.853   2.904  11.369  0.9284  1.8920 -4.0145
17453TIP3    H273775   1.987   2.971  11.394  1.5359 -0.5821  0.3833
17454TIP3   OH273776   1.973   2.990   2.696 -0.1629  0.0060  0.2974
17454TIP3    H173777   2.069   2.986   2.691 -0.1477  1.3233 -0.8410
17454TIP3    H273778   1.952   3.082   2.681 -1.6784 -0.4774 -0.7098
17455TIP3   OH273779   4.962   6.560   0.639 -0.3009 -0.6693 -0.2530
17455TIP3    H173780   4.968   6.583   0.732  0.5870 -0.4096 -0.3637
17455TIP3    H273781   4.928   6.640   0.598  3.6514  0.9503 -0.7666
17456TIP3   OH273782   3.349   4.245   0.433 -0.1527 -0.1084 -0.4128
17456TIP3    H173783   3.347   4.225   0.340  2.5751 -1.0337 -0.3458
17456TIP3    H273784   3.366   4.340   0.437 -1.6528  0.2017 -0.7976
17457TIP3   OH273785   5.380   5.588   0.794 -0.0500  0.4657 -0.5008
17457TIP3    H173786   5.377   5.630   0.708 -1.0556  2.5146  0.4643
17457TIP3    H273787   5.289   5.592   0.826  0.5989  1.4850  1.4048
17458TIP3   OH273788   1.468   2.005  15.013  0.7086  0.3737 -0.4941
17458TIP3    H173789   1.454   1.994  14.919 -0.4156 -0.0938 -0.2853
17458TIP3    H273790   1.396   1.957  15.054  0.6789  1.3048  0.5984
17459TIP3   OH273791   1.226   5.839   4.193  0.2391  0.7439 -1.1081
17459TIP3    H173792   1.157   5.825   4.258  1.4363 -1.4903 -0.2114
17459TIP3    H273793   1.195   5.792   4.115 -0.0461  1.2621 -1.3103
17460TIP3   OH273794   4.991   1.478   1.324 -0.3197  0.1142 -0.0743
17460TIP3    H173795   5.039   1.404   1.359 -0.6824 -0.2081 -0.2493
17460TIP3    H273796   4.963   1.528   1.400  0.4134  0.3849  0.0233
17461TIP3   OH273797   5.678   0.749  12.320 -0.7464  0.9302  0.7900
17461TIP3    H173798   5.593   0.772  12.283  0.3006  0.3488 -2.3174
17461TIP3    H273799   5.662   0.670  12.372 -2.0681  0.6724  0.0188
17462TIP3   OH273800   3.896   2.332   6.008 -0.2144  0.1554 -0.3191
17462TIP3    H173801   3.970   2.343   5.947 -1.4681  0.0135 -1.9415
17462TIP3    H273802   3.934   2.349   6.094  1.5537  0.8212 -1.1618
17463TIP3   OH273803   2.689   6.639   4.725 -0.2797 -0.3181 -0.4399
17463TIP3    H173804   2.733   6.577   4.667 -0.3540  0.0249 -0.8635
17463TIP3    H273805   2.752   6.710   4.737 -0.6645  0.1243 -0.9620
17464TIP3   OH273806   3.597   1.822   0.810  0.3870  0.5194  0.2311
17464TIP3    H173807   3.615   1.894   0.870 -0.7209  0.1236  1.0666
17464TIP3    H273808   3.656   1.752   0.839  0.3594  0.5693  0.4116
17465TIP3   OH273809   2.709   6.257  15.324  0.0300  0.1981  0.1821
17465TIP3    H173810   2.800   6.284  15.308 -0.2767  0.6565 -0.9046
17465TIP3    H273811   2.695   6.183  15.265 -0.9854  1.6023 -1.4192
17466TIP3   OH273812   1.220   6.127  11.356  0.2186 -0.1494 -0.0745
17466TIP3    H173813   1.148   6.111  11.295  0.3194  1.0125 -0.5322
17466TIP3    H273814   1.207   6.217  11.386 -0.4675 -1.0354  2.5308
17467TIP3   OH273815   5.404   3.891  13.782  0.2450 -0.3089 -0.4130
17467TIP3    H173816   5.494   3.886  13.749  0.2007 -0.4664 -0.5089
17467TIP3    H273817   5.391   3.808  13.828  0.8006  0.4781  1.2485
17468TIP3   OH273818   0.403   0.205   3.184 -0.7072 -0.5105  0.4034
17468TIP3    H173819   0.328   0.241   3.137 -0.0679 -1.5903 -1.5966
17468TIP3    H273820   0.404   0.112   3.159 -0.7852 -1.3793  3.2746
17469TIP3   OH273821   6.611   3.260   0.097  1.0351  0.4792 -0.3932
17469TIP3    H173822   6.559   3.281   0.174 -1.8412  0.3424 -2.1651
17469TIP3    H273823   6.682   3.325   0.097  1.0088  0.5903  2.1851
17470TIP3   OH273824   4.712   0.160   0.294 -0.7401  0.4461 -0.1376
17470TIP3    H173825   4.660   0.139   0.216 -1.8116  1.8452  0.1486
17470TIP3    H273826   4.667   0.236   0.332 -0.0445  0.0038  1.6591
17471TIP3   OH273827   0.681   2.776  13.787  0.3313  0.5671  0.4127
17471TIP3    H173828   0.687   2.715  13.713 -0.8419  0.0829  0.6990
17471TIP3    H273829   0.728   2.854  13.758  0.4616  0.1315 -0.5806
17472TIP3   OH273830   4.589   4.627  16.528  0.5356  0.4927  0.0799
17472TIP3    H173831   4.665   4.570  16.515 -0.8073 -1.5719  0.6522
17472TIP3    H273832   4.521   4.588  16.472 -0.7592  0.8505  1.3453
17473TIP3   OH273833   4.783   3.586  15.428 -0.6869  0.2258  0.1388
17473TIP3    H173834   4.792   3.527  15.504 -0.0080  0.8573  0.5633
17473TIP3    H273835   4.715   3.648  15.454 -0.7086  0.2236  0.0867
17474TIP3   OH273836   6.190   2.245  15.437 -0.5901  0.8021 -0.3852
17474TIP3    H173837   6.214   2.326  15.391 -3.3794  2.5530  0.9817
17474TIP3    H273838   6.173   2.182  15.367  1.4232  1.3855 -1.4922
17475TIP3   OH273839   3.018   1.097  12.044 -0.6760 -0.3149 -0.1736
17475TIP3    H173840   3.010   1.103  11.949 -0.0244 -0.0813 -0.2171
17475TIP3    H273841   2.928   1.100  12.076 -0.9134 -0.6534 -0.7965
17476TIP3   OH273842   5.295   3.419  15.610 -0.5570 -0.4010  0.0909
17476TIP3    H173843   5.371   3.442  15.556 -0.5538 -1.4855 -0.3885
17476TIP3    H273844   5.325   3.346  15.663  0.3302  2.2934  3.6460
17477TIP3   OH273845   2.648   6.188   1.920  0.1643 -0.4284 -0.0042
17477TIP3    H173846   2.662   6.132   1.996 -2.2229  0.5024  1.2337
17477TIP3    H273847   2.721   6.250   1.922  0.7076 -1.0751  0.9004
17478TIP3   OH273848   2.618   5.475   4.675  0.0409  0.3783  0.4903
17478TIP3    H173849   2.613   5.564   4.640  1.5954  0.7368  1.1299
17478TIP3    H273850   2.687   5.432   4.625 -0.7267 -0.5053  0.1552
17479TIP3   OH273851   0.216   5.858  13.374  0.1833 -0.1362 -0.3056
17479TIP3    H173852   0.210   5.876  13.280  1.3902 -0.3002 -0.4310
17479TIP3    H273853   0.279   5.922  13.406 -0.4146  0.0889  0.4552
17480TIP3   OH273854   3.941   3.640  14.674 -0.3390  0.5384 -0.1575
17480TIP3    H173855   3.847   3.633  14.692 -0.4033  0.6935 -0.4288
17480TIP3    H273856   3.967   3.552  14.650 -0.4448  0.5244 -0.2214
17481TIP3   OH273857   3.336   0.125  12.444  0.2440 -0.6406 -0.7231
17481TIP3    H173858   3.299   0.103  12.359  0.8180  0.3548 -1.2401
17481TIP3    H273859   3.278   0.081  12.507 -0.2416 -1.3069 -1.6053
17482TIP3   OH273860   2.872   4.993   3.306  0.5753 -0.3671 -0.2953
17482TIP3    H173861   2.879   4.914   3.360  2.1870 -1.2136 -1.6491
17482TIP3    H273862   2.950   4.991   3.251  0.1706  1.7042 -1.0098
17483TIP3   OH273863   0.981   0.621  17.084  0.3894 -0.0473 -0.0211
17483TIP3    H173864   1.018   0.542  17.124  0.5986  0.3925  0.6717
17483TIP3    H273865   1.057   0.666  17.047  0.6888  1.1182  1.8565
17484TIP3   OH273866   2.464   6.543  15.153  0.0072 -0.1743  0.1861
17484TIP3    H173867   2.370   6.554  15.169 -0.3424 -1.9092 -0.4509
17484TIP3    H273868   2.503   6.543  15.241 -0.7856 -0.8862  0.5528
17485TIP3   OH273869   4.993   4.965   5.762  0.5161 -0.3741  0.7918
17485TIP3    H173870   4.926   4.962   5.694  0.3582 -1.1677  0.9672
17485TIP3    H273871   4.965   5.034   5.821  0.4696  0.0840  0.2401
17486TIP3   OH273872   6.748   2.774  12.012  0.0437  0.2728 -0.1322
17486TIP3    H173873   6.807   2.767  12.087 -1.1663 -1.2552  0.7403
17486TIP3    H273874   6.677   2.830  12.044  0.3324  0.9771 -0.7121
17487TIP3   OH273875   3.642   4.823   5.800  0.0615 -0.0486 -0.3678
17487TIP3    H173876   3.651   4.756   5.731  0.0032 -1.0817  0.5995
17487TIP3    H273877   3.672   4.779   5.880 -0.7354  0.8311  0.4395
17488TIP3   OH273878   1.886   0.227   2.113 -0.0744 -0.4269 -0.2914
17488TIP3    H173879   1.921   0.281   2.185  0.9685 -0.7206 -0.5570
17488TIP3    H273880   1.914   0.138   2.135  1.4492 -0.3543 -1.7123
17489TIP3   OH273881   1.949   5.039  11.445  0.2526  0.3525 -0.7366
17489TIP3    H173882   1.935   5.008  11.356 -0.1684 -0.6762 -0.3238
17489TIP3    H273883   1.887   5.111  11.455  1.4873  1.6499 -1.8176
17490TIP3   OH273884   0.428   1.735  13.551 -0.4229  0.0372  0.1456
17490TIP3    H173885   0.461   1.774  13.470 -0.0108  0.5478  0.5517
17490TIP3    H273886   0.370   1.802  13.588  1.2361  0.8191  1.4749
17491TIP3   OH273887   4.681   3.420   1.607 -0.1976  0.3570  0.8998
17491TIP3    H173888   4.615   3.356   1.633 -2.0852  2.3234  1.2514
17491TIP3    H273889   4.631   3.500   1.591  1.9229  1.4567 -0.6360
17492TIP3   OH273890   3.087   6.484   5.479 -0.3245  1.1017 -0.3367
17492TIP3    H173891   3.007   6.441   5.449 -0.8208 -0.6578  3.0374
17492TIP3    H273892   3.156   6.419   5.463 -0.4782  0.4590  1.3813
17493TIP3   OH273893   1.373   5.324   6.287 -0.2164  0.1210  0.1277
17493TIP3    H173894   1.284   5.355   6.270 -0.3891 -0.4065  0.0345
17493TIP3    H273895   1.418   5.399   6.324 -1.3513 -0.2198  2.3903
17494TIP3   OH273896   4.810   4.706  14.924 -0.2944 -0.0068  0.7972
17494TIP3    H173897   4.836   4.639  14.861  1.6305  1.2561  0.1738
17494TIP3    H273898   4.858   4.684  15.004 -0.0754  0.3201  0.7563
17495TIP3   OH273899   1.517   2.962   1.536  0.3805  0.1492  0.5653
17495TIP3    H173900   1.565   3.040   1.507  1.2087 -0.4696  0.2554
17495TIP3    H273901   1.571   2.888   1.508 -2.1596 -0.7457 -2.6120
17496TIP3   OH273902   1.683   3.198  12.187  0.1435  0.3873  0.0327
17496TIP3    H173903   1.606   3.248  12.216  2.0078  3.4112  0.1841
17496TIP3    H273904   1.674   3.195  12.092 -0.6654 -0.2096  0.1182
17497TIP3   OH273905   1.526   2.759   0.772 -0.0897 -0.0628  0.5613
17497TIP3    H173906   1.528   2.803   0.857  0.1933  0.4979  0.2655
17497TIP3    H273907   1.472   2.815   0.717 -1.7023 -1.2825  0.8295
17498TIP3   OH273908   0.524   0.850   3.840 -0.1327  0.2911  0.5032
17498TIP3    H173909   0.495   0.760   3.825 -2.6870  0.8600  1.4874
17498TIP3    H273910   0.609   0.841   3.884 -0.5115 -1.6363  0.9525
17499TIP3   OH273911   3.921   2.895   2.517  0.3796  0.2477  0.4385
17499TIP3    H173912   3.857   2.961   2.541  0.6729  0.6880  0.0417
17499TIP3    H273913   3.878   2.811   2.534  0.3031  0.5306  1.7409
17500TIP3   OH273914   0.380   0.759  16.227  0.0844 -0.6038  0.1512
17500TIP3    H173915   0.294   0.736  16.191 -0.1499 -0.2034  0.4466
17500TIP3    H273916   0.384   0.855  16.219  0.6239 -0.6492 -0.1287
17501TIP3   OH273917   4.860   2.459  15.323 -0.3561  0.0360 -0.1046
17501TIP3    H173918   4.882   2.401  15.396 -0.9533 -0.8829 -0.6438
17501TIP3    H273919   4.943   2.470  15.276  0.1914  1.1659  1.0505
17502TIP3   OH273920   2.360   6.621  16.905 -0.7232  0.1085  0.2461
17502TIP3    H173921   2.383   6.540  16.950  1.4225 -0.9038 -2.3649
17502TIP3    H273922   2.301   6.594  16.834  0.0924  0.7458 -0.7148
17503TIP3   OH273923   4.134   3.454   1.626  0.0837  0.1795 -0.5520
17503TIP3    H173924   4.113   3.505   1.704 -1.3870 -0.4230 -0.5261
17503TIP3    H273925   4.136   3.363   1.656 -0.1270 -0.0254 -1.1511
17504TIP3   OH273926   3.365   2.127   1.512 -0.4011  0.3209 -0.0495
17504TIP3    H173927   3.410   2.210   1.493  1.8837 -0.6175  0.9758
17504TIP3    H273928   3.298   2.150   1.576 -2.5117  1.9992 -2.6030
17505TIP3   OH273929   5.142   6.246   1.876  0.2557  0.1863  0.1744
17505TIP3    H173930   5.208   6.301   1.918  0.0365  0.6330 -0.0649
17505TIP3    H273931   5.064   6.257   1.930  0.0154  0.6466 -0.2540
17506TIP3   OH273932   0.227   5.308   2.659  0.3428  0.4766  0.1851
17506TIP3    H173933   0.286   5.383   2.654 -0.5234  1.1218 -0.9738
17506TIP3    H273934   0.163   5.331   2.726  0.3534  0.5731  0.1619
17507TIP3   OH273935   6.527   4.343  14.617  0.0896  0.1132  0.5590
17507TIP3    H173936   6.498   4.275  14.556  0.3551 -0.6362  1.2523
17507TIP3    H273937   6.569   4.408  14.562 -0.3194 -0.1969 -0.1409
17508TIP3   OH273938   2.775   3.370  12.430  0.0982  0.5818 -0.4172
17508TIP3    H173939   2.859   3.326  12.415  0.3693  0.4130  1.3780
17508TIP3    H273940   2.745   3.394  12.342  0.7678 -1.6328 -1.3332
17509TIP3   OH273941   5.389   4.926  15.203  0.2495  0.4653 -0.4001
17509TIP3    H173942   5.361   4.896  15.290 -0.7886  1.1609 -0.4663
17509TIP3    H273943   5.307   4.950  15.160  0.4073 -2.3133 -2.5695
17510TIP3   OH273944   3.606   2.044  15.581 -0.8461  0.0029  0.0829
17510TIP3    H173945   3.650   2.064  15.664  1.9753 -0.4546 -1.1838
17510TIP3    H273946   3.633   1.954  15.562 -1.2981  0.1707 -1.4339
17511TIP3   OH273947   5.033   3.477   0.312 -0.3658 -0.1654  0.4985
17511TIP3    H173948   4.978   3.482   0.234 -0.4299  0.6327  0.5886
17511TIP3    H273949   5.106   3.421   0.286 -0.5657 -0.1919 -0.0244
17512TIP3   OH273950   6.604   2.135   2.666  0.5494  0.1056  0.0101
17512TIP3    H173951   6.686   2.096   2.636  0.2921  0.2511 -0.9072
17512TIP3    H273952   6.626   2.176   2.749  1.8242  1.5917 -1.0055
17513TIP3   OH273953   4.103   3.133   3.360  0.0881  0.2140 -0.2958
17513TIP3    H173954   4.093   3.169   3.448  2.6153 -0.6355  0.4147
17513TIP3    H273955   4.120   3.210   3.305 -2.6008  0.8785 -0.3320
17514TIP3   OH273956   3.060   5.365   5.160 -0.2796  0.1275  0.1240
17514TIP3    H173957   3.088   5.346   5.070  1.8746  0.4994  0.6498
17514TIP3    H273958   2.992   5.300   5.178 -0.9488  0.2281 -1.8506
17515TIP3   OH273959   3.354   5.561  16.002  0.1430  0.4177 -0.6922
17515TIP3    H173960   3.426   5.615  15.971 -1.0203  1.0885 -2.3609
17515TIP3    H273961   3.312   5.614  16.070  1.0302  0.1265  0.1105
17516TIP3   OH273962   0.312   3.175  13.654 -0.3701  0.5621 -0.0310
17516TIP3    H173963   0.230   3.137  13.625 -0.6204 -0.2708  1.6549
17516TIP3    H273964   0.358   3.198  13.573 -1.5935 -0.3637 -1.0230
17517TIP3   OH273965   2.372   0.552  12.644  0.0750 -0.0275 -0.0109
17517TIP3    H173966   2.335   0.606  12.714  0.5457  3.1528 -2.0544
17517TIP3    H273967   2.440   0.500  12.688  1.1724  2.7057  1.7445
17518TIP3   OH273968   5.321   1.566   4.528 -0.2120  0.4473  0.0211
17518TIP3    H173969   5.343   1.622   4.603  2.0657 -0.1923 -0.0909
17518TIP3    H273970   5.249   1.511   4.559  3.0111 -2.4501  3.2008
17519TIP3   OH273971   2.297   5.015  13.087 -0.1707  0.3009 -0.1422
17519TIP3    H173972   2.220   4.978  13.130 -0.8822  2.4785  0.6144
17519TIP3    H273973   2.327   5.083  13.148  2.6004 -0.7043 -0.2402
17520TIP3   OH273974   1.976   3.859   3.247  0.2529  0.3639  0.2758
17520TIP3    H173975   2.035   3.925   3.211  0.7514  0.4836  1.3001
17520TIP3    H273976   1.984   3.785   3.187  0.7286  0.7204 -0.1106
17521TIP3   OH273977   2.573   0.087   1.612  0.0013  0.7982  0.3956
17521TIP3    H173978   2.609   0.092   1.701  1.5401 -1.7572  0.0216
17521TIP3    H273979   2.613   0.159   1.565 -0.1264  1.6403  1.5379
17522TIP3   OH273980   2.840   3.001   4.657 -0.1253  0.6009 -0.2803
17522TIP3    H173981   2.750   3.023   4.680  0.7057  3.0836  0.8969
17522TIP3    H273982   2.858   3.051   4.578  0.6881  1.4341  0.4064
17523TIP3   OH273983   1.165   5.477   4.234  0.3622  0.4263 -0.0019
17523TIP3    H173984   1.087   5.494   4.182  0.6298  1.7486 -0.0237
17523TIP3    H273985   1.131   5.454   4.321 -0.0619  0.1881 -0.2308
17524TIP3   OH273986   5.663   4.818  13.540 -0.3582  0.0562 -0.1165
17524TIP3    H173987   5.743   4.802  13.590  0.8507  1.4303 -1.5312
17524TIP3    H273988   5.658   4.744  13.479  0.3289  0.4104 -0.6147
17525TIP3   OH273989   5.096   3.339  12.794 -0.3311  0.2825  0.0080
17525TIP3    H173990   5.167   3.283  12.762 -1.3117 -1.4915  0.7685
17525TIP3    H273991   5.066   3.296  12.875 -0.7797  2.2395  0.9463
17526TIP3   OH273992   4.709   1.621   1.047  0.2333 -0.2763  0.3646
17526TIP3    H173993   4.721   1.584   0.960  1.1247 -0.5069  0.5751
17526TIP3    H273994   4.629   1.579   1.080 -0.0440 -0.2700 -0.2881
17527TIP3   OH273995   1.994   6.201  14.030 -0.2906  0.2237  1.0254
17527TIP3    H173996   1.949   6.261  13.971 -0.2961  0.9964  1.7880
17527TIP3    H273997   2.074   6.177  13.984 -1.2002 -0.7437 -0.1149
17528TIP3   OH273998   0.217   2.010  16.469 -0.4223  0.1065 -0.4606
17528TIP3    H173999   0.129   2.047  16.459 -1.2730 -0.7422  2.6783
17528TIP3    H274000   0.214   1.927  16.422 -0.7616  0.8012 -1.7004
17529TIP3   OH274001   4.084   4.754  14.317  0.6149 -0.2404 -0.5141
17529TIP3    H174002   4.004   4.715  14.352  0.0356  1.3908  0.0325
17529TIP3    H274003   4.138   4.772  14.394  1.3218 -0.8847 -0.8424
17530TIP3   OH274004   1.541   4.597   2.177 -0.0127 -0.5928  0.1882
17530TIP3    H174005   1.631   4.628   2.165  0.3709 -1.8931 -0.5155
17530TIP3    H274006   1.530   4.530   2.109 -0.7057 -2.1468  1.7474
17531TIP3   OH274007   6.623   5.066   3.872 -0.1555  0.3162  0.2122
17531TIP3    H174008   6.660   5.002   3.933 -2.7282 -1.9798 -0.4332
17531TIP3    H274009   6.553   5.109   3.922  1.0572  2.1973  0.3939
17532TIP3   OH274010   3.705   0.744   0.572  0.3868  0.1555  0.1819
17532TIP3    H174011   3.751   0.689   0.509  1.1355  1.7182 -0.6875
17532TIP3    H274012   3.618   0.757   0.534  0.3560 -0.0584  0.1775
17533TIP3   OH274013   0.581   3.429  13.216  0.0656  0.1061 -0.2116
17533TIP3    H174014   0.586   3.379  13.298 -1.4662  0.1318 -0.0726
17533TIP3    H274015   0.574   3.520  13.244  2.4953  0.4385 -0.4611
17534TIP3   OH274016   5.727   1.499  15.458  0.2351  0.5105 -0.2362
17534TIP3    H174017   5.786   1.424  15.468 -0.0535  0.3480  0.3415
17534TIP3    H274018   5.662   1.486  15.527 -0.7597  0.4201 -1.1665
17535TIP3   OH274019   0.398   3.658  17.046 -0.3469  0.1542 -0.3035
17535TIP3    H174020   0.375   3.578  17.093  1.2679 -0.7620 -0.9746
17535TIP3    H274021   0.493   3.652  17.034 -0.1291  2.3510 -0.0633
17536TIP3   OH274022   0.969   2.990   0.766 -0.5075  0.4720 -0.3309
17536TIP3    H174023   1.007   2.930   0.830  0.4217  0.7530 -0.6155
17536TIP3    H274024   1.030   3.063   0.762 -0.5548  0.4536 -1.5429
17537TIP3   OH274025   5.559   3.373  17.252  0.4163 -0.3646  0.3826
17537TIP3    H174026   5.551   3.468  17.257  1.1496 -0.3605  1.9300
17537TIP3    H274027   5.468   3.341  17.250  0.1718  0.3641 -0.2546
17538TIP3   OH274028   5.618   0.565  16.550 -0.1160  0.3444  0.3345
17538TIP3    H174029   5.653   0.546  16.464 -0.8344  1.6859 -0.2875
17538TIP3    H274030   5.694   0.567  16.607  0.2598 -1.5948 -0.0274
17539TIP3   OH274031   6.648   1.930   1.259  0.2814 -0.3412  0.3686
17539TIP3    H174032   6.717   1.885   1.210  1.1085  0.6342  0.6129
17539TIP3    H274033   6.607   1.987   1.194  0.4797 -0.0545  0.4946
17540TIP3   OH274034   3.522   3.312  13.622 -0.0545 -0.4838 -0.1195
17540TIP3    H174035   3.431   3.283  13.630 -0.2249  0.2225  0.6310
17540TIP3    H274036   3.569   3.234  13.595 -0.8288 -0.9460 -0.1792
17541TIP3   OH274037   6.617   3.555   1.299 -0.1922 -0.2595  0.4309
17541TIP3    H174038   6.610   3.556   1.395  0.4099  0.2627  0.4768
17541TIP3    H274039   6.632   3.646   1.275  0.2406 -0.4671 -0.1088
17542TIP3   OH274040   6.010   0.278   5.234 -0.3407  0.0367 -0.0961
17542TIP3    H174041   5.970   0.364   5.244 -2.3617 -0.7193 -1.1703
17542TIP3    H274042   6.041   0.277   5.143 -2.6842 -1.2366 -0.9541
17543TIP3   OH274043   2.740   2.176  13.884  0.3907 -0.0672  0.0092
17543TIP3    H174044   2.735   2.113  13.812 -1.8152 -0.1038  0.1368
17543TIP3    H274045   2.752   2.122  13.962 -1.9013 -0.4406  0.1677
17544TIP3   OH274046   0.313   6.139   1.268 -0.0045 -0.0534 -0.3552
17544TIP3    H174047   0.272   6.192   1.199  0.6349  1.0477  0.0965
17544TIP3    H274048   0.318   6.051   1.230 -3.7784 -0.5519 -0.0372
17545TIP3   OH274049   5.620   5.313  11.656 -0.5871 -0.1408 -0.0826
17545TIP3    H174050   5.549   5.249  11.660 -0.3777 -0.4569 -1.1550
17545TIP3    H274051   5.661   5.299  11.571  0.4306  0.4020  0.2969
17546TIP3   OH274052   6.224   2.597   5.278 -0.2104 -0.1438  0.4486
17546TIP3    H174053   6.248   2.559   5.363 -1.5770 -1.2056  0.3869
17546TIP3    H274054   6.167   2.532   5.237  3.5061 -1.6348 -3.0996
17547TIP3   OH274055   4.165   5.932   5.826 -1.0783  0.0140  0.3977
17547TIP3    H174056   4.184   5.849   5.870 -2.5171 -0.3263  0.4200
17547TIP3    H274057   4.167   5.911   5.733 -1.1461  0.0223  0.3944
17548TIP3   OH274058   4.798   0.394  16.571 -0.2279  0.3041 -0.4578
17548TIP3    H174059   4.874   0.402  16.514  0.7254  0.3095  0.7732
17548TIP3    H274060   4.788   0.299  16.584 -0.4492  0.3032 -0.6157
17549TIP3   OH274061   4.896   4.661   0.235  0.0874 -0.0470 -0.6248
17549TIP3    H174062   4.883   4.747   0.275  1.0903  0.4542 -1.3456
17549TIP3    H274063   4.912   4.602   0.309  0.4968  0.5972 -0.1923
17550TIP3   OH274064   2.108   2.696   0.856 -0.4237 -0.4765  0.4190
17550TIP3    H174065   2.050   2.734   0.921  0.7338  0.5758  0.8884
17550TIP3    H274066   2.196   2.721   0.884  0.0702  1.3484 -2.3191
17551TIP3   OH274067   1.292   1.645   0.425  0.4618 -0.0688  0.7869
17551TIP3    H174068   1.373   1.622   0.379 -0.7391 -0.6189 -1.1599
17551TIP3    H274069   1.288   1.583   0.498  2.7416  1.2541  2.1497
17552TIP3   OH274070   2.124   6.331   6.015 -0.2136  0.6177  0.4131
17552TIP3    H174071   2.140   6.419   5.981 -0.3242  0.2406 -0.6390
17552TIP3    H274072   2.037   6.336   6.054 -0.0810  1.0545  0.6677
17553TIP3   OH274073   3.485   4.420   2.529  0.7548  0.1955  0.0988
17553TIP3    H174074   3.558   4.461   2.483  0.1819  0.5774 -0.4754
17553TIP3    H274075   3.439   4.492   2.571 -1.3645  0.4549 -2.4594
17554TIP3   OH274076   6.273   6.309   5.209 -0.6310 -0.6616 -0.2615
17554TIP3    H174077   6.230   6.387   5.174 -2.1027 -1.4585 -0.3296
17554TIP3    H274078   6.326   6.277   5.136 -0.6822 -0.1999 -0.5087
17555TIP3   OH274079   4.405   1.565  11.697 -0.0590  0.0799 -0.1653
17555TIP3    H174080   4.437   1.647  11.735  2.0122 -1.1369  0.8709
17555TIP3    H274081   4.322   1.589  11.655  0.2081  2.5727  0.5736
17556TIP3   OH274082   6.416   2.850  17.277 -0.5524  0.0313  0.2500
17556TIP3    H174083   6.509   2.871  17.290 -0.3681 -0.8623  0.4638
17556TIP3    H274084   6.416   2.791  17.202 -1.1306  1.3221 -0.8081
17557TIP3   OH274085   1.040   5.084  13.256 -0.4265  0.0074 -0.2108
17557TIP3    H174086   1.050   5.179  13.269  0.0041 -0.1203  0.5074
17557TIP3    H274087   0.949   5.073  13.231 -0.3486  0.6640 -0.8249
17558TIP3   OH274088   5.615   2.447  15.708  0.0022 -0.3426  0.6250
17558TIP3    H174089   5.690   2.392  15.684 -0.0987 -0.0366 -0.4596
17558TIP3    H274090   5.543   2.413  15.655  0.2517  1.6567 -1.1222
17559TIP3   OH274091   4.794   6.405   4.875 -0.2832  0.5073 -0.1217
17559TIP3    H174092   4.699   6.406   4.864 -0.3158  2.1351  0.1454
17559TIP3    H274093   4.816   6.490   4.912  1.2191 -0.0954  0.4908
17560TIP3   OH274094   6.565   3.069   3.048 -0.1597  0.0682  0.3082
17560TIP3    H174095   6.562   3.149   3.100 -0.4302 -0.3482  0.9500
17560TIP3    H274096   6.658   3.056   3.029 -0.0776  0.3292  0.5244
17561TIP3   OH274097   4.888   3.984   2.821 -0.6662  0.0678 -0.4239
17561TIP3    H174098   4.890   4.079   2.821 -0.1008  0.0660  0.3550
17561TIP3    H274099   4.830   3.961   2.894 -0.8894 -0.1887 -0.6755
17562TIP3   OH274100   1.598   2.787  11.455 -0.2094 -0.5321 -0.6789
17562TIP3    H174101   1.632   2.782  11.545  1.0875 -1.1975 -1.1711
17562TIP3    H274102   1.611   2.699  11.420  0.8181  0.1026 -2.0121
17563TIP3   OH274103   6.016   3.619   4.529  0.4912 -1.0681  0.0788
17563TIP3    H174104   5.981   3.700   4.492  1.3572 -0.5666  0.3341
17563TIP3    H274105   5.952   3.594   4.596 -0.4340 -1.2999 -0.8577
17564TIP3   OH274106   4.800   6.627   1.003 -0.0920 -0.0561  0.3059
17564TIP3    H174107   4.797   6.559   1.071 -1.1185  0.2357  0.5692
17564TIP3    H274108   4.892   6.650   0.995  0.0387 -0.1081  1.5947
17565TIP3   OH274109   2.830   1.057  13.049  0.2426 -0.6325  0.1286
17565TIP3    H174110   2.859   1.128  12.991 -1.7070 -0.5864 -0.9131
17565TIP3    H274111   2.768   1.099  13.108  1.3399 -0.9197  1.5151
17566TIP3   OH274112   1.352   3.743   2.889 -0.2525  0.2864  0.1614
17566TIP3    H174113   1.365   3.649   2.879 -1.4440  0.0375  0.8602
17566TIP3    H274114   1.347   3.776   2.799  0.9505 -0.1799 -0.0994
17567TIP3   OH274115   0.181   6.155   3.786  0.3332  0.3244  0.6026
17567TIP3    H174116   0.202   6.229   3.729  1.4782 -0.3455  0.1151
17567TIP3    H274117   0.139   6.091   3.729  1.1725 -0.2055  0.5473
17568TIP3   OH274118   4.697   3.279   3.317 -0.6007 -0.0883  0.0631
17568TIP3    H174119   4.771   3.279   3.378 -0.5028 -2.5151  0.0556
17568TIP3    H274120   4.735   3.305   3.233 -0.2274  0.7956  0.4882
17569TIP3   OH274121   1.562   5.765  16.193  0.8067  0.0944 -0.0136
17569TIP3    H174122   1.503   5.695  16.221  1.0766 -0.5627 -1.0383
17569TIP3    H274123   1.643   5.750  16.242  0.2291  0.8738  1.2358
17570TIP3   OH274124   5.531   6.686   5.138  0.3858  0.2489  0.5543
17570TIP3    H174125   5.570   6.774   5.140  2.3632 -0.5514 -0.0538
17570TIP3    H274126   5.519   6.663   5.230  0.0707  1.0650  0.7216
17571TIP3   OH274127   3.441   2.334  12.349 -0.3221  0.4635  0.1191
17571TIP3    H174128   3.530   2.302  12.335  0.3406  1.0522  2.5530
17571TIP3    H274129   3.395   2.260  12.387 -0.8600  0.2199 -0.9621
17572TIP3   OH274130   6.214   5.707  12.792  0.5533  0.9366  0.0406
17572TIP3    H174131   6.206   5.655  12.711  3.1167  0.4166  0.0201
17572TIP3    H274132   6.142   5.677  12.847 -0.5741  0.4696 -1.6156
17573TIP3   OH274133   3.780   2.729   2.206  0.0898 -0.1472  0.1043
17573TIP3    H174134   3.754   2.812   2.245  0.0410 -0.0040 -0.2332
17573TIP3    H274135   3.755   2.736   2.114 -1.6122 -1.2441  0.4509
17574TIP3   OH274136   5.756   0.994  16.987  0.3971 -0.0256  0.7754
17574TIP3    H174137   5.779   0.960  17.073 -0.4283  0.2511  1.1191
17574TIP3    H274138   5.800   1.078  16.982  1.6705 -0.7009  0.3072
17575TIP3   OH274139   6.008   6.030  11.278 -0.1943 -0.4394 -0.9097
17575TIP3    H174140   6.020   5.953  11.333  2.7197  0.7636  0.3059
17575TIP3    H274141   5.913   6.044  11.278 -0.5770 -2.4324  1.0680
17576TIP3   OH274142   2.068   3.641   5.245 -0.0138  0.1888 -0.9241
17576TIP3    H174143   2.144   3.689   5.278  0.9692 -1.9991  0.1975
17576TIP3    H274144   2.007   3.638   5.318  0.0575 -0.5282 -0.8954
17577TIP3   OH274145   6.741   0.595  10.219  0.0457  0.1526  0.8896
17577TIP3    H174146   6.798   0.666  10.247 -0.0822  0.4477  0.3979
17577TIP3    H274147   6.657   0.614  10.260 -0.2381  0.7711  0.0499
17578TIP3   OH274148   2.722   5.397   5.480 -0.1303 -0.3530  0.2578
17578TIP3    H174149   2.676   5.425   5.559 -1.8362  0.8064 -1.0721
17578TIP3    H274150   2.789   5.464   5.466 -0.2513 -0.2080  0.3682
17579TIP3   OH274151   1.186   5.138  16.073  0.1048  0.0060  0.5643
17579TIP3    H174152   1.121   5.092  16.126  0.6648 -1.6565 -0.1406
17579TIP3    H274153   1.266   5.087  16.083  0.4457  0.1457 -1.1704
17580TIP3   OH274154   5.903   1.264  17.007  0.6033 -0.3148  0.5942
17580TIP3    H174155   5.817   1.307  17.011  0.5074 -0.5567  1.1547
17580TIP3    H274156   5.956   1.309  17.072  1.1832  0.4286 -0.3733
17581TIP3   OH274157   2.735   1.404  11.763  0.4007 -0.1464 -0.1902
17581TIP3    H174158   2.711   1.497  11.768  0.7962 -0.1088  1.6576
17581TIP3    H274159   2.822   1.400  11.803 -0.1259 -1.4771  0.8699
17582TIP3   OH274160   2.904   4.039   5.446  0.6099  0.2226  0.1127
17582TIP3    H174161   2.956   3.958   5.442  1.0875  0.1324  4.1556
17582TIP3    H274162   2.970   4.109   5.445  0.2132  0.6973 -3.0105
17583TIP3   OH274163   5.647   5.621   5.494  0.4093  0.4625  0.2470
17583TIP3    H174164   5.674   5.712   5.499  2.4768 -0.0609 -0.5537
17583TIP3    H274165   5.588   5.617   5.419  0.6018  1.0795  0.0569
17584TIP3   OH274166   4.840   0.572   0.471 -0.2214  0.4402 -0.1564
17584TIP3    H174167   4.900   0.498   0.482 -1.1515 -0.5542 -1.4795
17584TIP3    H274168   4.890   0.637   0.422 -0.3460 -0.6119 -1.7541
17585TIP3   OH274169   6.684   0.543   5.383 -0.6845 -0.4152 -0.7402
17585TIP3    H174170   6.640   0.471   5.338  0.6476 -1.0146 -1.1389
17585TIP3    H274171   6.661   0.621   5.332 -1.2960 -0.7004 -0.9152
17586TIP3   OH274172   3.863   4.902  13.599 -0.3415 -0.4145 -0.2001
17586TIP3    H174173   3.824   4.919  13.685 -1.1680 -1.4246 -0.3547
17586TIP3    H274174   3.909   4.819  13.610  1.0954  0.3340 -0.2597
17587TIP3   OH274175   3.512   2.780  16.172 -0.4124  0.1531 -0.1674
17587TIP3    H174176   3.573   2.712  16.145 -0.8782  0.0583 -1.0141
17587TIP3    H274177   3.454   2.792  16.097  0.8659  2.9201 -0.8682
17588TIP3   OH274178   5.050   4.241  12.887 -0.0228 -0.3062 -0.0867
17588TIP3    H174179   5.038   4.326  12.929 -0.3037 -0.9074  1.1217
17588TIP3    H274180   5.145   4.232  12.878  0.0208  0.0374  0.0115
17589TIP3   OH274181   0.379   3.717  16.385 -0.4855 -0.4186  0.7038
17589TIP3    H174182   0.323   3.788  16.354  0.1777 -0.3913 -0.5012
17589TIP3    H274183   0.395   3.663  16.307 -0.0780 -1.2744  1.3571
17590TIP3   OH274184   3.318   6.453  15.008 -0.2126 -0.0211  0.7481
17590TIP3    H174185   3.357   6.508  14.940 -1.4360 -0.2085 -0.1327
17590TIP3    H274186   3.261   6.393  14.961  0.3014 -1.3877  1.7954
17591TIP3   OH274187   4.737   1.325   2.747 -0.4610  0.0171 -0.5189
17591TIP3    H174188   4.674   1.258   2.722 -1.8601  0.7831  0.7446
17591TIP3    H274189   4.775   1.293   2.829  2.5141 -1.4791 -2.3207
17592TIP3   OH274190   0.763   6.038   1.844 -0.2589 -0.1781  0.3292
17592TIP3    H174191   0.755   5.992   1.928 -0.0452 -0.5449  0.1546
17592TIP3    H274192   0.711   6.117   1.854  0.4327  0.1936  1.1043
17593TIP3   OH274193   4.756   6.666   1.491  0.4580 -0.1245 -0.2593
17593TIP3    H174194   4.709   6.652   1.573  0.5972  1.7014  0.1630
17593TIP3    H274195   4.722   6.598   1.433 -2.8435  1.1681 -0.0452
17594TIP3   OH274196   2.168   4.483  13.423  0.2425  0.1287 -0.4819
17594TIP3    H174197   2.240   4.425  13.397 -0.6003 -0.8211 -0.7842
17594TIP3    H274198   2.194   4.569  13.390  1.7850  0.0697  0.4577
17595TIP3   OH274199   3.434   4.968   0.443  0.1777 -0.8067  0.4658
17595TIP3    H174200   3.468   4.990   0.357 -0.6953 -0.5274  0.1746
17595TIP3    H274201   3.339   4.963   0.431 -0.1025  0.6099  1.6815
17596TIP3   OH274202   1.537   0.392   3.515 -0.1351  0.4059  0.0429
17596TIP3    H174203   1.447   0.387   3.482 -0.4825  0.6340  0.9312
17596TIP3    H274204   1.573   0.305   3.498 -0.5189  0.3111 -0.3242
17597TIP3   OH274205   2.292   3.082   4.329  0.0021  0.1763 -0.4571
17597TIP3    H174206   2.274   3.055   4.239 -0.8361  2.1135 -0.9307
17597TIP3    H274207   2.206   3.093   4.368  0.3636 -1.1398  0.7781
17598TIP3   OH274208   4.858   5.807  15.262  0.0061  0.5412  0.2721
17598TIP3    H174209   4.937   5.754  15.260  1.3092  2.3792 -1.6578
17598TIP3    H274210   4.822   5.794  15.350  1.5552 -1.5704  0.6542
17599TIP3   OH274211   1.456   0.322   3.208  0.7858 -0.3623  0.3104
17599TIP3    H174212   1.507   0.272   3.144  2.8339  0.2284  1.4028
17599TIP3    H274213   1.487   0.412   3.198 -2.4747  0.7200 -1.2691
17600TIP3   OH274214   4.936   4.693  15.186 -0.5859  0.2385 -0.4979
17600TIP3    H174215   4.884   4.735  15.255  0.2628  0.8129 -0.1925
17600TIP3    H274216   4.951   4.604  15.219  0.3564  0.7032  0.3785
17601TIP3   OH274217   3.556   0.306  14.272  0.0617  0.0683 -0.4432
17601TIP3    H174218   3.536   0.399  14.288 -0.9351 -0.5024  2.1080
17601TIP3    H274219   3.516   0.288  14.187  2.9174  2.6401 -2.5931
17602TIP3   OH274220   3.192   1.236   1.616  0.0613 -0.2648 -0.0759
17602TIP3    H174221   3.155   1.319   1.588 -1.0319 -1.1903 -1.4986
17602TIP3    H274222   3.218   1.192   1.535  1.2973 -1.0327  0.6878
17603TIP3   OH274223   5.927   6.586  14.772  0.1483 -0.4709  0.2400
17603TIP3    H174224   5.851   6.639  14.749 -0.0582  0.6564  3.1094
17603TIP3    H274225   5.982   6.587  14.694 -0.5195  2.8442 -0.3268
17604TIP3   OH274226   3.478   5.554  15.722 -0.3667  0.1162 -0.0890
17604TIP3    H174227   3.382   5.553  15.714 -0.4199 -2.3094  0.0820
17604TIP3    H274228   3.499   5.646  15.738 -2.6955  0.6615  0.3115
17605TIP3   OH274229   1.560   3.172   6.559 -0.3466 -0.7784 -0.2231
17605TIP3    H174230   1.647   3.160   6.598 -0.5644 -0.2648  0.4311
17605TIP3    H274231   1.503   3.113   6.609 -0.7920  0.5037  0.8413
17606TIP3   OH274232   0.246   3.060   2.371 -0.0171 -0.0743 -0.2510
17606TIP3    H174233   0.176   3.092   2.428 -0.3230 -0.3767 -0.4581
17606TIP3    H274234   0.276   3.138   2.324  0.3417  0.2096  0.4287
17607TIP3   OH274235   4.058   1.566   3.979 -0.2960  0.6813 -0.0097
17607TIP3    H174236   4.142   1.612   3.979 -0.7993  1.7442  2.1619
17607TIP3    H274237   4.080   1.474   3.986  0.6948  0.9277  0.2053
17608TIP3   OH274238   3.353   0.862  15.565  0.0364 -0.2258 -0.7363
17608TIP3    H174239   3.280   0.913  15.528  0.3106  0.6173 -0.1585
17608TIP3    H274240   3.409   0.928  15.605 -0.6622 -1.1352  1.9154
17609TIP3   OH274241   2.666   2.204   1.189 -0.1087 -0.7275 -0.3293
17609TIP3    H174242   2.743   2.208   1.132  0.8555 -1.6547  0.8612
17609TIP3    H274243   2.696   2.158   1.267 -1.3763  0.5681  0.9774
17610TIP3   OH274244   1.133   5.886   5.761 -0.3311  0.6473  0.5223
17610TIP3    H174245   1.112   5.966   5.809 -1.3553  0.1588  0.9236
17610TIP3    H274246   1.183   5.833   5.823  2.1330  1.7424 -0.3804
17611TIP3   OH274247   0.700   0.253   1.280  0.0698 -0.0741  0.3993
17611TIP3    H174248   0.746   0.200   1.344 -1.7836 -0.3057  1.6232
17611TIP3    H274249   0.650   0.189   1.229  1.7066  0.0805 -1.5153
17612TIP3   OH274250   4.527   2.588  16.756  0.5887 -0.3206  0.1404
17612TIP3    H174251   4.555   2.639  16.832 -0.3252 -2.5716  2.1322
17612TIP3    H274252   4.574   2.504  16.765  0.4521 -0.6503 -1.8062
17613TIP3   OH274253   6.375   0.419  11.631  0.3215  0.0368 -0.1838
17613TIP3    H174254   6.391   0.325  11.633  1.6005  0.2246 -0.3194
17613TIP3    H274255   6.393   0.448  11.721  2.0862  0.4314 -0.6160
17614TIP3   OH274256   1.604   3.890  17.016  0.4748 -0.1912 -0.0873
17614TIP3    H174257   1.604   3.960  16.950  0.2870 -0.1575 -0.0540
17614TIP3    H274258   1.676   3.912  17.074  0.5345 -0.1268 -0.1845
17615TIP3   OH274259   6.598   5.864   0.479  0.4844 -0.4731  0.8237
17615TIP3    H174260   6.643   5.860   0.394 -0.3846  0.3743  0.3047
17615TIP3    H274261   6.545   5.944   0.474  1.1328  0.0968  2.5335
17616TIP3   OH274262   4.933   5.875  16.387 -0.6536 -0.6779 -0.0971
17616TIP3    H174263   4.875   5.948  16.363 -1.5108 -1.3332 -0.0495
17616TIP3    H274264   5.007   5.883  16.327 -1.4576 -0.6550 -1.1206
17617TIP3   OH274265   0.347   6.448  12.365 -0.0261  0.0590  0.3227
17617TIP3    H174266   0.342   6.543  12.351  2.6893  0.2154 -0.1927
17617TIP3    H274267   0.310   6.410  12.286 -0.1249  0.7110  0.0459
17618TIP3   OH274268   4.000   0.667  11.007 -0.4309 -0.4417 -0.5927
17618TIP3    H174269   4.036   0.618  10.933  1.6212 -0.1903  0.1904
17618TIP3    H274270   3.988   0.756  10.973  1.4986 -0.0610 -0.3973
17619TIP3   OH274271   6.717   5.501  14.340  0.2038 -0.0717 -0.1975
17619TIP3    H174272   6.743   5.593  14.346 -0.8633  0.2094  0.3713
17619TIP3    H274273   6.716   5.470  14.431  0.3907 -0.6072 -0.3707
17620TIP3   OH274274   2.506   6.466  15.706  0.1374 -0.6113  0.2199
17620TIP3    H174275   2.576   6.519  15.745 -0.8913 -0.4537  1.9558
17620TIP3    H274276   2.546   6.381  15.691  1.4354  0.2257 -1.3389
17621TIP3   OH274277   3.630   2.071  11.654 -0.0939 -0.5447  0.0733
17621TIP3    H174278   3.615   1.977  11.667 -0.5898 -0.1453  3.0483
17621TIP3    H274279   3.603   2.111  11.737  0.8821  2.1494 -0.8192
17622TIP3   OH274280   0.844   3.643  14.154  0.1735 -0.3443 -0.6823
17622TIP3    H174281   0.931   3.605  14.171  1.0210  1.5144 -0.6256
17622TIP3    H274282   0.801   3.643  14.240  0.3055 -0.8025 -0.6129
17623TIP3   OH274283   3.877   0.625   4.666 -0.2095  0.0143  0.0212
17623TIP3    H174284   3.960   0.583   4.690 -0.9635 -1.6655 -0.1668
17623TIP3    H274285   3.890   0.717   4.687  0.8922 -0.5735  2.2206
17624TIP3   OH274286   1.137   6.757  15.008 -0.5003  0.1852  0.2324
17624TIP3    H174287   1.111   6.696  14.939  2.6319 -1.3300  0.2389
17624TIP3    H274288   1.216   6.799  14.975  0.6259  0.0164  2.5142
17625TIP3   OH274289   6.576   4.986   1.764  0.2094  0.4954  0.3164
17625TIP3    H174290   6.618   4.971   1.679  0.5714  0.6679  0.4620
17625TIP3    H274291   6.490   4.946   1.755  0.6276 -0.4132  0.2266
17626TIP3   OH274292   0.247   6.557  15.148 -0.3533  0.1937  0.5028
17626TIP3    H174293   0.337   6.577  15.174 -0.6957  0.0124  1.9177
17626TIP3    H274294   0.254   6.530  15.056  1.2074 -0.9561  0.9111
17627TIP3   OH274295   5.147   6.142  15.153  0.0456 -0.8811  0.0899
17627TIP3    H174296   5.174   6.203  15.084 -0.4471 -2.8066 -1.9130
17627TIP3    H274297   5.229   6.119  15.197  0.7074 -1.3245 -1.3289
17628TIP3   OH274298   0.408   3.333  14.365 -0.5155 -0.3136  0.4479
17628TIP3    H174299   0.470   3.329  14.438  0.3134 -2.7356 -0.2698
17628TIP3    H274300   0.333   3.281  14.394 -0.8814  0.0588  0.1728
17629TIP3   OH274301   4.499   1.939  13.411  0.0420  0.3774  0.2005
17629TIP3    H174302   4.450   2.010  13.453 -0.2652 -0.2097  0.8504
17629TIP3    H274303   4.553   1.903  13.481 -2.2761 -2.2281  0.8176
17630TIP3   OH274304   4.900   2.323   0.239 -0.4994 -0.4743  0.5960
17630TIP3    H174305   4.828   2.338   0.301 -3.2713  0.8338 -2.6121
17630TIP3    H274306   4.913   2.408   0.198  1.1275 -1.3067 -0.7123
17631TIP3   OH274307   0.918   0.431   3.448  0.0110  0.1070 -0.0116
17631TIP3    H174308   0.906   0.463   3.359 -0.1023 -0.7191 -0.3088
17631TIP3    H274309   0.900   0.506   3.504  2.2352  1.2928 -0.7341
17632TIP3   OH274310   6.257   0.878  11.613 -0.1701 -0.3672 -0.5881
17632TIP3    H174311   6.192   0.828  11.564 -0.7506 -1.3482  1.1000
17632TIP3    H274312   6.214   0.962  11.631  0.1981  0.1725 -2.0119
17633TIP3   OH274313   4.958   4.572  16.973 -0.3051  0.4200  0.1413
17633TIP3    H174314   5.010   4.653  16.974  2.3891 -1.1582 -0.8911
17633TIP3    H274315   4.884   4.593  16.916  0.7849  1.9309 -0.8200
17634TIP3   OH274316   3.966   0.119  12.479  0.1147  0.4720  0.1044
17634TIP3    H174317   3.989   0.166  12.398 -0.1070  1.5234  0.6415
17634TIP3    H274318   3.877   0.149  12.499  0.2454  0.3650  0.8422
17635TIP3   OH274319   1.464   3.215  15.635 -0.6708 -0.1460  0.0942
17635TIP3    H174320   1.452   3.206  15.540  0.3184  0.5780 -0.1059
17635TIP3    H274321   1.402   3.283  15.660 -1.2046 -0.5986  0.0450
17636TIP3   OH274322   3.439   1.698  13.064  0.2846  0.9939  0.4948
17636TIP3    H174323   3.534   1.710  13.072  0.8527 -2.6221  0.9155
17636TIP3    H274324   3.411   1.675  13.152 -1.0413  2.1378  0.3906
17637TIP3   OH274325   5.103   6.508   6.417 -0.0477  0.2183  0.2054
17637TIP3    H174326   5.155   6.493   6.496 -1.0224 -2.8290  0.3652
17637TIP3    H274327   5.015   6.478   6.439 -0.5410 -0.0017 -1.8165
17638TIP3   OH274328   4.582   1.018  11.950  0.3642 -0.3436 -0.1869
17638TIP3    H174329   4.609   1.107  11.929  0.1398 -0.2973 -0.2853
17638TIP3    H274330   4.664   0.970  11.959  0.4826 -0.3624 -1.1610
17639TIP3   OH274331   2.669   3.053  13.055  0.2204  0.4903 -0.0913
17639TIP3    H174332   2.635   3.108  12.985  0.2348  1.1478  0.4031
17639TIP3    H274333   2.699   2.974  13.011  2.6386  1.9180 -1.2060
17640TIP3   OH274334   0.181   0.710  14.554  0.1249 -0.0794 -0.0909
17640TIP3    H174335   0.181   0.760  14.472 -0.3559  0.5018  0.2440
17640TIP3    H274336   0.172   0.619  14.528 -0.5324  0.1441 -0.6767
17641TIP3   OH274337   2.811   2.532   3.231  0.0564 -0.5890  0.4600
17641TIP3    H174338   2.839   2.440   3.235  1.2250 -0.2613  0.1847
17641TIP3    H274339   2.880   2.580   3.276 -0.5119  0.1744  0.5354
17642TIP3   OH274340   3.297   3.113   1.492  0.1661  0.0197  0.0199
17642TIP3    H174341   3.383   3.072   1.503  0.0593 -0.2791 -0.2475
17642TIP3    H274342   3.309   3.175   1.421  0.4878  0.9138  0.8329
17643TIP3   OH274343   3.223   6.111   1.799 -0.0795  0.5805  0.2759
17643TIP3    H174344   3.221   6.055   1.721 -0.1407  1.3950 -0.3296
17643TIP3    H274345   3.311   6.150   1.797 -0.3381  1.1627  0.2069
17644TIP3   OH274346   2.136   5.310  10.811 -0.3282 -0.7149  0.5093
17644TIP3    H174347   2.097   5.237  10.761 -1.7410  0.1617  0.2779
17644TIP3    H274348   2.118   5.387  10.758  1.5047 -0.2050  0.5587
17645TIP3   OH274349   2.366   0.131   6.271  0.4015  0.2283  1.0288
17645TIP3    H174350   2.440   0.080   6.302  0.6311 -0.6916 -0.8723
17645TIP3    H274351   2.376   0.133   6.176 -0.1602  3.0070  0.9442
17646TIP3   OH274352   2.742   4.547  15.320  0.2923 -0.1642  0.4230
17646TIP3    H174353   2.695   4.630  15.314 -0.3911 -0.4561  1.5470
17646TIP3    H274354   2.810   4.563  15.385  0.8783 -0.1594 -0.1818
17647TIP3   OH274355   1.481   0.908   2.592 -0.2659  0.7877 -0.4529
17647TIP3    H174356   1.401   0.930   2.640  0.7726  1.5721  0.9859
17647TIP3    H274357   1.454   0.905   2.501 -2.7227 -2.3791  0.1704
17648TIP3   OH274358   1.833   3.951  15.737 -0.2671 -0.7537 -0.0893
17648TIP3    H174359   1.773   3.988  15.672 -1.9207  0.4656  1.9764
17648TIP3    H274360   1.776   3.927  15.811  1.4546 -2.4903  0.7732
17649TIP3   OH274361   5.249   0.782  16.097  0.3024  0.4939  0.5824
17649TIP3    H174362   5.179   0.815  16.152  0.8811  1.5936  0.7030
17649TIP3    H274363   5.250   0.688  16.112 -1.0516  0.4721  0.6645
17650TIP3   OH274364   2.008   0.314   6.078 -0.4183  0.0708  1.2323
17650TIP3    H174365   2.065   0.310   6.155  0.2643  4.6653  1.2472
17650TIP3    H274366   1.925   0.346   6.112 -0.6738  0.4461  0.2813
17651TIP3   OH274367   4.015   0.458  17.251 -0.6957 -0.7475  0.4580
17651TIP3    H174368   3.923   0.440  17.229 -0.6700 -0.7155  0.3246
17651TIP3    H274369   4.045   0.517  17.182 -1.0111  0.4502  1.3029
17652TIP3   OH274370   5.607   2.311  13.914 -0.4103  0.0110 -0.1424
17652TIP3    H174371   5.518   2.346  13.926 -1.0402 -1.4475 -0.3043
17652TIP3    H274372   5.635   2.286  14.002 -0.7075 -0.7409 -0.2512
17653TIP3   OH274373   0.119   1.572  17.162 -0.1288  0.2604 -0.4445
17653TIP3    H174374   0.051   1.521  17.119 -0.3263  0.6369 -0.5796
17653TIP3    H274375   0.073   1.646  17.202  0.0947  0.0872  0.1428
17654TIP3   OH274376   4.116   3.177   5.917  0.1292 -0.2969 -0.3704
17654TIP3    H174377   4.067   3.105   5.956 -0.5109  1.0634  1.4695
17654TIP3    H274378   4.195   3.135   5.883 -0.0783 -1.8442  0.8940
17655TIP3   OH274379   5.174   3.413  11.570  0.2477  0.2885 -0.3785
17655TIP3    H174380   5.212   3.477  11.510 -0.1529 -1.2701 -2.3999
17655TIP3    H274381   5.080   3.419  11.554  0.2273 -0.9795 -0.8198
17656TIP3   OH274382   1.413   5.046  14.881  0.1499 -0.5739  0.2531
17656TIP3    H174383   1.494   5.088  14.852  0.7110 -1.8119 -0.0047
17656TIP3    H274384   1.416   5.054  14.977 -1.0461  2.2818  0.1687
17657TIP3   OH274385   3.361   3.699  14.563  0.0911  0.0685 -0.9926
17657TIP3    H174386   3.433   3.711  14.624 -0.5643  1.1833 -0.3950
17657TIP3    H274387   3.284   3.686  14.618 -0.3517  0.0741 -1.5928
17658TIP3   OH274388   5.279   5.197   2.160 -0.7534 -0.5315  0.3207
17658TIP3    H174389   5.193   5.159   2.142 -0.7187 -0.0674 -0.9501
17658TIP3    H274390   5.313   5.221   2.073 -0.1511  1.0224  0.9553
17659TIP3   OH274391   4.799   4.446  13.896  0.5696 -0.7156 -0.2222
17659TIP3    H174392   4.726   4.397  13.856 -0.1822  0.0303  0.1938
17659TIP3    H274393   4.877   4.395  13.875 -0.0693 -1.5054 -0.7331
17660TIP3   OH274394   1.094   5.174  16.446  0.2446  0.4288 -0.3544
17660TIP3    H174395   1.074   5.264  16.419 -0.9207  1.2821  2.8919
17660TIP3    H274396   1.013   5.125  16.429  0.3107  0.3839 -0.5472
17661TIP3   OH274397   1.060   6.211   0.351  0.0098 -0.1782 -0.3868
17661TIP3    H174398   1.115   6.261   0.412 -2.8452 -0.6950  2.9204
17661TIP3    H274399   1.016   6.278   0.299  1.1528  0.3722 -0.6765
17662TIP3   OH274400   0.583   2.333   0.522 -0.5592  0.0209  0.7106
17662TIP3    H174401   0.522   2.334   0.448 -0.8989  1.3993  0.9817
17662TIP3    H274402   0.534   2.375   0.593  0.3719  0.2785  1.2093
17663TIP3   OH274403   4.871   3.463  14.045 -0.2597 -0.6243 -0.0481
17663TIP3    H174404   4.861   3.482  14.138 -0.4050 -0.0150 -0.1800
17663TIP3    H274405   4.856   3.547  14.002  0.9415 -0.6455 -0.5507
17664TIP3   OH274406   1.938   0.285  11.230 -0.5052 -0.1340 -0.3665
17664TIP3    H174407   2.034   0.283  11.226 -0.4819  1.0572 -0.8114
17664TIP3    H274408   1.913   0.347  11.162 -1.5715  0.0754  0.2052
17665TIP3   OH274409   1.430   1.865   3.740 -0.7285  0.0174  0.1973
17665TIP3    H174410   1.376   1.787   3.740 -2.6130  1.2151 -1.8319
17665TIP3    H274411   1.380   1.929   3.689  2.7259  1.1359 -2.1453
17666TIP3   OH274412   1.408   1.803   4.386  0.4820  0.2577  0.1730
17666TIP3    H174413   1.473   1.772   4.323 -2.0364 -1.7946 -1.6087
17666TIP3    H274414   1.400   1.732   4.450  0.5101  0.8282  0.8225
17667TIP3   OH274415   3.408   2.888  13.296  0.0790 -0.0055  0.4992
17667TIP3    H174416   3.352   2.965  13.288  2.1251  1.4801 -0.3526
17667TIP3    H274417   3.480   2.904  13.235  1.1333 -2.1099  1.0880
17668TIP3   OH274418   6.173   6.370  11.636  0.4282  0.0113  0.3204
17668TIP3    H174419   6.080   6.356  11.615  0.9070 -2.5167 -0.5512
17668TIP3    H274420   6.173   6.404  11.725 -1.3395 -1.0291  0.7702
17669TIP3   OH274421   1.525   0.191   3.817  0.1201  0.1784 -0.8426
17669TIP3    H174422   1.506   0.097   3.826  0.0513  0.2650  0.0182
17669TIP3    H274423   1.479   0.231   3.891  0.1816  0.8905 -1.1845
17670TIP3   OH274424   2.799   6.457   3.805  0.3216 -0.2160 -0.5090
17670TIP3    H174425   2.826   6.432   3.893 -1.5280  1.1137  0.4912
17670TIP3    H274426   2.868   6.516   3.775  0.3254  0.3613  0.5849
17671TIP3   OH274427   0.356   1.488   4.556  0.3346 -0.2326 -0.1065
17671TIP3    H174428   0.396   1.481   4.643  0.3902  0.2307 -0.0902
17671TIP3    H274429   0.429   1.508   4.498 -0.0265  2.2075  0.1533
17672TIP3   OH274430   1.648   4.513  16.576  0.2675  0.3546 -0.0568
17672TIP3    H174431   1.590   4.448  16.616  0.4477 -0.1475 -0.5765
17672TIP3    H274432   1.616   4.520  16.486 -0.5222  1.9248  0.3244
17673TIP3   OH274433   2.134   5.821   3.887 -0.1738 -0.1863 -0.1744
17673TIP3    H174434   2.192   5.804   3.961  1.0630  0.7672 -0.8822
17673TIP3    H274435   2.051   5.847   3.927  0.4428  0.2196  0.8813
17674TIP3   OH274436   6.457   1.820   0.128 -0.2481 -0.2798  0.6766
17674TIP3    H174437   6.476   1.758   0.198  0.7162 -0.7103  0.0554
17674TIP3    H274438   6.449   1.905   0.172 -0.5287 -0.6733  1.4038
17675TIP3   OH274439   5.009   2.756  11.630  0.0061 -0.0476 -0.2862
17675TIP3    H174440   4.965   2.830  11.589 -0.9417 -1.0481 -1.1541
17675TIP3    H274441   5.072   2.795  11.691  0.4738  1.4832 -1.6788
17676TIP3   OH274442   1.528   3.404  13.243  0.2061  0.6153 -0.7014
17676TIP3    H174443   1.565   3.375  13.326 -1.4923  0.8395  0.1746
17676TIP3    H274444   1.443   3.441  13.266 -1.5236 -1.7186 -2.8022
17677TIP3   OH274445   1.977   3.428  14.759 -0.2595 -0.0345  0.1890
17677TIP3    H174446   2.070   3.437  14.741 -0.4888  1.8937 -0.2249
17677TIP3    H274447   1.935   3.444  14.674 -0.9989  0.0393  0.5632
17678TIP3   OH274448   6.394   3.187   0.638 -0.5303 -0.0295  0.2627
17678TIP3    H174449   6.459   3.224   0.699 -0.2421  0.5423 -0.3765
17678TIP3    H274450   6.446   3.134   0.578 -0.4351  1.4848 -1.0709
17679TIP3   OH274451   5.992   0.073   2.743  0.1210 -0.1414 -0.4198
17679TIP3    H174452   5.983  -0.001   2.804 -3.0653  1.1148  0.8867
17679TIP3    H274453   5.923   0.059   2.678  0.4250  0.9471 -0.9942
17680TIP3   OH274454   2.323   2.985   1.518  0.0925  0.0000 -0.3281
17680TIP3    H174455   2.287   3.072   1.531 -0.8282 -0.3275 -0.5849
17680TIP3    H274456   2.394   2.978   1.582 -0.8135  0.3890  0.7494
17681TIP3   OH274457   2.816   0.212  16.988  0.4105  0.4650  0.8255
17681TIP3    H174458   2.897   0.224  16.940  1.1537  0.3389  1.9929
17681TIP3    H274459   2.748   0.246  16.931  1.4331  1.8353  0.3831
17682TIP3   OH274460   4.883   5.267  11.252 -0.3278  0.6914 -0.1912
17682TIP3    H174461   4.790   5.287  11.262 -1.2595 -3.1697  0.7982
17682TIP3    H274462   4.887   5.211  11.174  1.0644  0.3297  0.1087
17683TIP3   OH274463   4.880   1.151   2.924 -0.5086  0.7337  0.1232
17683TIP3    H174464   4.938   1.186   2.992 -0.4165 -0.7879  0.8746
17683TIP3    H274465   4.938   1.099   2.868 -0.5107  2.2870 -1.3962
17684TIP3   OH274466   1.476   4.506  11.535  0.1070 -0.0398  0.6885
17684TIP3    H174467   1.463   4.432  11.594 -0.8657  0.6595  1.3759
17684TIP3    H274468   1.390   4.521  11.495  0.7603 -0.5641 -1.0191
17685TIP3   OH274469   0.955   3.872   1.507 -0.3566  0.0375  0.3494
17685TIP3    H174470   0.919   3.859   1.595  1.0638 -0.2009  0.9243
17685TIP3    H274471   1.023   3.805   1.500 -0.2729  0.2356 -0.8371
17686TIP3   OH274472   1.918   5.921   2.300  0.0659  0.0935 -0.3562
17686TIP3    H174473   1.934   5.900   2.392 -0.5709  0.0791 -0.2490
17686TIP3    H274474   1.894   6.014   2.300 -1.2306 -0.2202 -0.3456
17687TIP3   OH274475   3.632   4.816  11.160  0.4410 -0.2750 -0.2317
17687TIP3    H174476   3.673   4.743  11.207  0.0606 -0.5820 -0.3736
17687TIP3    H274477   3.589   4.867  11.229 -0.6398 -1.0617 -0.2905
17688TIP3   OH274478   4.457   5.742  15.055  0.4761  0.6948 -0.5691
17688TIP3    H174479   4.468   5.649  15.039 -0.7142  0.3317  0.5069
17688TIP3    H274480   4.499   5.785  14.981 -1.6298 -0.7548 -2.7359
17689TIP3   OH274481   5.752   1.146   0.511 -0.7049  0.6003 -0.0045
17689TIP3    H174482   5.754   1.064   0.560 -0.9105 -0.8194 -2.2191
17689TIP3    H274483   5.844   1.168   0.497 -0.6495  0.6488  0.4109
17690TIP3   OH274484   2.937   3.424  11.569  0.1329 -0.2090 -0.6824
17690TIP3    H174485   3.030   3.442  11.558  0.5379 -0.8975  1.1664
17690TIP3    H274486   2.932   3.330  11.588 -0.8943 -0.1279 -0.4517
17691TIP3   OH274487   6.205   4.861  16.292 -0.4192  0.3963 -0.0948
17691TIP3    H174488   6.289   4.853  16.337 -0.9884 -0.6648  0.8574
17691TIP3    H274489   6.225   4.902  16.208  1.4162 -2.1029 -0.9731
17692TIP3   OH274490   3.092   2.946  11.753 -0.1463 -0.0749 -0.1940
17692TIP3    H174491   3.040   2.891  11.813 -2.3144  1.3118 -0.6578
17692TIP3    H274492   3.090   3.033  11.794  2.6110 -0.0913  0.1678
17693TIP3   OH274493   0.795   5.252   2.401 -0.5598 -0.3021 -0.3260
17693TIP3    H174494   0.795   5.315   2.329 -0.2473  1.7883  1.3881
17693TIP3    H274495   0.868   5.194   2.383  2.0992  2.6216  0.1857
17694TIP3   OH274496   1.449   6.152  15.720  0.5595  0.6578  0.0334
17694TIP3    H174497   1.539   6.135  15.747  0.2178 -0.7859  0.3585
17694TIP3    H274498   1.433   6.092  15.648 -0.2697  0.5893  0.2539
17695TIP3   OH274499   4.146   3.664  17.266 -0.1323 -0.0676  0.8281
17695TIP3    H174500   4.194   3.698  17.191 -0.9138 -0.1153  0.2910
17695TIP3    H274501   4.136   3.739  17.325 -0.7220  0.3322  0.2397
17696TIP3   OH274502   6.612   5.594  15.577 -0.6321  0.2529 -0.1800
17696TIP3    H174503   6.546   5.647  15.531 -1.4645 -0.0279  0.6582
17696TIP3    H274504   6.651   5.541  15.508 -1.5188  0.1947 -0.6625
17697TIP3   OH274505   4.222   5.127  12.684  0.7130  0.2585  0.9153
17697TIP3    H174506   4.276   5.104  12.759  0.4203 -1.6629  0.5775
17697TIP3    H274507   4.242   5.219  12.668  3.3103 -0.1648  1.2717
17698TIP3   OH274508   3.317   4.562   5.671  0.0603  0.1132 -0.5190
17698TIP3    H174509   3.371   4.515   5.608 -1.6526 -0.1251 -1.8818
17698TIP3    H274510   3.360   4.547   5.755  0.5035 -2.5594 -1.1219
17699TIP3   OH274511   2.259   1.817  16.727  0.6884 -0.0135  0.4726
17699TIP3    H174512   2.284   1.872  16.801  3.2876  1.4918 -1.3439
17699TIP3    H274513   2.341   1.782  16.694 -0.4086 -0.8994 -1.5124
17700TIP3   OH274514   3.211   6.395  16.506  0.0415  0.1867  0.3200
17700TIP3    H174515   3.153   6.376  16.432 -0.5813 -0.1081  0.8801
17700TIP3    H274516   3.195   6.487  16.526 -0.4144  0.0426  0.6260
17701TIP3   OH274517   3.621   0.297   0.706  0.0970  0.8098  0.9834
17701TIP3    H174518   3.704   0.253   0.724 -0.7305 -1.1455  0.2588
17701TIP3    H274519   3.622   0.374   0.763  1.5755 -0.2005  2.4038
17702TIP3   OH274520   1.997   3.696   4.827 -0.6958 -0.0430 -0.3697
17702TIP3    H174521   1.921   3.668   4.776 -0.9135  0.1168 -0.1339
17702TIP3    H274522   2.028   3.616   4.870 -0.0082 -0.3523 -1.3981
17703TIP3   OH274523   4.064   3.003  14.440 -0.1563 -0.6539 -0.1171
17703TIP3    H174524   4.153   2.996  14.406 -0.1758  0.2777 -0.3809
17703TIP3    H274525   4.017   2.930  14.398  0.5595 -1.3868  0.3246
17704TIP3   OH274526   0.359   4.357   5.329 -0.2528  0.4960  0.1109
17704TIP3    H174527   0.446   4.362   5.367 -0.1928  0.4163 -0.0140
17704TIP3    H274528   0.317   4.439   5.353  0.2987  1.1001 -0.9088
17705TIP3   OH274529   4.776   0.205  15.511  0.1534 -0.6604 -0.2511
17705TIP3    H174530   4.794   0.298  15.496  0.0157 -0.7149 -0.7821
17705TIP3    H274531   4.687   0.192  15.478  0.5799 -1.2106 -1.2420
17706TIP3   OH274532   5.732   2.381   4.703  0.0302  0.4618 -0.0904
17706TIP3    H174533   5.755   2.397   4.612 -1.6803 -0.9068 -0.8267
17706TIP3    H274534   5.774   2.297   4.724  0.6089  0.8770  0.4923
17707TIP3   OH274535   1.869   3.689  15.312  0.0524  0.0275 -0.1172
17707TIP3    H174536   1.931   3.760  15.330  1.3899 -0.9191 -0.7751
17707TIP3    H274537   1.861   3.688  15.217  1.4994 -1.8059 -0.2903
17708TIP3   OH274538   0.077   0.645   0.217 -0.4552 -0.0673 -0.0709
17708TIP3    H174539   0.029   0.689   0.147 -0.4712  0.9295  0.5432
17708TIP3    H274540   0.013   0.634   0.287 -0.0569  0.3779  0.3770
17709TIP3   OH274541   3.189   3.982  14.385  0.2857  0.1652 -0.6723
17709TIP3    H174542   3.284   3.970  14.383  0.3939  0.8630  0.2502
17709TIP3    H274543   3.173   4.059  14.331  0.5487  1.8171  1.4795
17710TIP3   OH274544   0.908   4.879  13.093  0.0412 -0.4532  0.2867
17710TIP3    H174545   0.842   4.933  13.049 -0.2610 -0.7369  0.3856
17710TIP3    H274546   0.983   4.881  13.034 -0.1907 -0.4381 -0.0169
17711TIP3   OH274547   4.575   1.007   2.407 -0.3993 -0.8367  0.1173
17711TIP3    H174548   4.655   1.051   2.380 -1.2685 -0.2235 -1.6763
17711TIP3    H274549   4.561   1.035   2.497  0.2366  0.8668 -0.2745
17712TIP3   OH274550   6.668   2.316   1.621  0.2931 -0.4853  0.5158
17712TIP3    H174551   6.732   2.264   1.572  0.4930 -0.0876  0.3522
17712TIP3    H274552   6.605   2.344   1.556  1.1313  0.9256  0.2838
17713TIP3   OH274553   0.791   3.354  14.340 -0.0813 -0.1203 -0.1573
17713TIP3    H174554   0.840   3.342  14.421 -1.2647 -0.2836  0.5615
17713TIP3    H274555   0.757   3.443  14.346  2.0303  0.8795 -1.7518
17714TIP3   OH274556   5.795   6.559   3.029  0.0205 -0.1924 -0.2427
17714TIP3    H174557   5.723   6.596   3.081 -0.6133  0.4955 -1.5424
17714TIP3    H274558   5.847   6.508   3.092 -1.2064 -0.1329  0.8718
17715TIP3   OH274559   6.607   0.083  15.772  0.6873 -0.0885 -0.4589
17715TIP3    H174560   6.695   0.117  15.756  1.3346 -0.3857  2.0209
17715TIP3    H274561   6.587   0.030  15.695  2.3045  0.7100 -1.4709
17716TIP3   OH274562   0.144   2.042  15.879 -1.2493 -0.3536 -0.1464
17716TIP3    H174563   0.138   1.962  15.827 -0.1159 -0.2247 -0.4993
17716TIP3    H274564   0.136   2.013  15.970  0.6659 -1.1007 -0.1590
17717TIP3   OH274565   3.200   6.728   5.413 -0.2625 -0.5551 -0.1472
17717TIP3    H174566   3.209   6.781   5.492 -0.3578 -0.3723 -0.2616
17717TIP3    H274567   3.176   6.641   5.446  0.5795 -0.7167  0.0896
17718TIP3   OH274568   2.584   5.141  14.728  1.1980 -0.5453 -0.0344
17718TIP3    H174569   2.675   5.161  14.705  1.4727  0.6153  1.7776
17718TIP3    H274570   2.532   5.189  14.663  1.8594 -1.4382 -1.2530
17719TIP3   OH274571   0.101   4.438   1.638 -0.2052 -0.3215 -0.0431
17719TIP3    H174572   0.122   4.515   1.585  1.4040 -0.3317  0.5426
17719TIP3    H274573   0.007   4.423   1.622 -0.5661  1.7732 -0.1317
17720TIP3   OH274574   3.993   6.755   0.567 -0.0684  0.4831  0.2157
17720TIP3    H174575   4.083   6.784   0.586  0.5629 -0.4874 -1.1188
17720TIP3    H274576   3.993   6.662   0.588 -1.7856  1.0918  3.4821
17721TIP3   OH274577   4.471   4.887  16.856 -0.1858 -0.2253 -0.2970
17721TIP3    H174578   4.389   4.931  16.834 -1.2452 -0.5276  2.6226
17721TIP3    H274579   4.462   4.799  16.819 -1.7876 -0.6713  1.0413
17722TIP3   OH274580   5.665   4.221   0.243 -0.3914  0.3416  0.0912
17722TIP3    H174581   5.636   4.221   0.151 -0.1386  0.6920  0.0090
17722TIP3    H274582   5.651   4.312   0.272 -3.2879 -0.3644  1.2997
17723TIP3   OH274583   0.933   5.029   3.053  0.1111  0.2183  0.8783
17723TIP3    H174584   0.857   5.010   2.997 -1.4230  1.9930  2.2231
17723TIP3    H274585   0.946   4.948   3.103 -1.5084  0.1631  1.2703
17724TIP3   OH274586   1.147   4.512  16.484 -0.2132 -0.3446  0.1146
17724TIP3    H174587   1.238   4.521  16.456 -0.3306 -2.0658 -0.9130
17724TIP3    H274588   1.100   4.485  16.406 -1.2685 -1.4021  1.0789
17725TIP3   OH274589   0.232   0.544   1.894  0.5581  0.1039 -0.2259
17725TIP3    H174590   0.208   0.597   1.818 -0.5559  0.5321  0.3904
17725TIP3    H274591   0.210   0.599   1.969 -0.4356 -1.1174  0.4319
17726TIP3   OH274592   4.951   5.006  15.933 -0.2471 -0.3695  0.6569
17726TIP3    H174593   4.967   5.018  16.027 -0.7121 -1.4457  0.8859
17726TIP3    H274594   5.037   4.987  15.896  0.1236  1.1952  0.6627
17727TIP3   OH274595   1.617   5.411   1.010  0.8422  0.3770  0.0727
17727TIP3    H174596   1.560   5.343   1.045  0.0572  0.6171 -0.7014
17727TIP3    H274597   1.653   5.372   0.930  2.6969 -0.2086  1.1181
17728TIP3   OH274598   3.659   0.985   5.074 -0.2517  0.7504 -0.5591
17728TIP3    H174599   3.656   0.910   5.014 -0.1930  0.1653  0.1496
17728TIP3    H274600   3.715   1.049   5.031  0.4746 -0.0013 -0.7582
17729TIP3   OH274601   3.947   5.107   1.946  0.3408 -0.3661  0.1548
17729TIP3    H174602   3.919   5.098   2.037 -0.7142  1.3374  0.0447
17729TIP3    H274603   3.866   5.119   1.897  0.9666 -0.2294 -0.8736
17730TIP3   OH274604   1.618   0.807   3.009 -0.8952  0.8383  0.5520
17730TIP3    H174605   1.669   0.830   3.087  1.2711 -1.9333  0.1125
17730TIP3    H274606   1.674   0.832   2.935 -1.4420  0.3495 -0.0423
17731TIP3   OH274607   3.692   5.777   4.547  0.0146 -0.0218 -0.0060
17731TIP3    H174608   3.644   5.857   4.570  1.4630  0.1837  2.5689
17731TIP3    H274609   3.711   5.787   4.454 -0.1659  2.4546  0.1716
17732TIP3   OH274610   0.628   5.576  12.556  0.5023 -0.5500 -0.3007
17732TIP3    H174611   0.671   5.518  12.494  0.3998 -1.1255  0.1510
17732TIP3    H274612   0.656   5.544  12.642 -0.4747 -0.6788 -0.0118
17733TIP3   OH274613   1.415   5.249   5.557  0.0519 -0.2729 -0.2393
17733TIP3    H174614   1.499   5.234   5.600  0.5458 -2.4921 -1.8372
17733TIP3    H274615   1.370   5.165   5.560 -1.1184  0.2686 -1.4859
17734TIP3   OH274616   2.961   2.475   1.999  0.0892 -0.0920 -0.1690
17734TIP3    H174617   3.012   2.402   1.964 -0.1353 -0.1471 -0.3831
17734TIP3    H274618   2.924   2.442   2.081 -2.0594 -1.0860 -1.4609
17735TIP3   OH274619   2.554   6.275  10.879  0.1901  0.0810 -0.2754
17735TIP3    H174620   2.603   6.266  10.960  1.1066  1.2997 -0.6694
17735TIP3    H274621   2.463   6.258  10.904  0.7352 -2.2052  0.4630
17736TIP3   OH274622   0.734   0.560   0.756  0.2176 -0.1363  0.9509
17736TIP3    H174623   0.737   0.613   0.836  1.7877 -2.2006  2.3408
17736TIP3    H274624   0.782   0.480   0.778  2.1184 -0.1388 -2.5345
17737TIP3   OH274625   5.888   2.172   6.328 -0.1260 -0.1753  0.4048
17737TIP3    H174626   5.982   2.173   6.307 -0.7025  0.4877 -2.7763
17737TIP3    H274627   5.853   2.099   6.276 -1.6787  1.1575 -0.5155
17738TIP3   OH274628   5.668   3.031  11.510 -0.1049  0.2592 -0.1375
17738TIP3    H174629   5.635   3.057  11.596 -1.1303  1.3774 -0.8275
17738TIP3    H274630   5.603   2.971  11.476  0.5473 -0.5695  0.0548
17739TIP3   OH274631   4.468   2.589  16.154  0.1523 -0.4593  0.1188
17739TIP3    H174632   4.473   2.615  16.246  1.0770 -1.6860  0.4474
17739TIP3    H274633   4.500   2.665  16.105 -0.0490  0.0894  0.8304
17740TIP3   OH274634   0.713   2.525  16.941  0.1376 -0.4474 -0.1552
17740TIP3    H174635   0.684   2.483  16.861  1.0746 -3.1730  0.8313
17740TIP3    H274636   0.640   2.515  17.002  0.7922 -1.8692  0.4537
17741TIP3   OH274637   1.511   4.510   3.856  0.0553  0.2576 -0.0597
17741TIP3    H174638   1.588   4.565   3.842  2.1355 -1.8038  2.3395
17741TIP3    H274639   1.494   4.471   3.770  1.1298  1.4131 -0.8383
17742TIP3   OH274640   3.014   3.952  15.577 -0.3861  0.1701 -0.3076
17742TIP3    H174641   2.950   3.950  15.648 -1.8702 -0.4102 -1.6132
17742TIP3    H274642   3.082   3.891  15.604 -1.7996 -1.4022 -0.1526
17743TIP3   OH274643   1.600   4.021   4.760 -0.4398 -0.1301  0.0961
17743TIP3    H174644   1.568   3.939   4.796 -1.1513  0.4618  0.8507
17743TIP3    H274645   1.563   4.025   4.672 -0.5130 -0.5560  0.1080
17744TIP3   OH274646   2.116   2.409  13.261 -0.3992  0.2078 -0.1348
17744TIP3    H174647   2.202   2.403  13.303 -1.6923  0.0900  2.7100
17744TIP3    H274648   2.058   2.358  13.317 -2.4181  0.5569 -1.7926
17745TIP3   OH274649   6.499   1.466  15.861  0.3835  0.4433  0.0441
17745TIP3    H174650   6.462   1.465  15.949 -0.9503  2.6418 -0.4278
17745TIP3    H274651   6.588   1.500  15.873  0.1729  0.8327  0.5348
17746TIP3   OH274652   3.403   6.434  15.683  0.1679 -0.4086 -0.0451
17746TIP3    H174653   3.432   6.360  15.736 -0.1875 -0.4589  0.0840
17746TIP3    H274654   3.354   6.489  15.744  1.2475  0.4331  0.0861
17747TIP3   OH274655   3.187   3.167  14.078 -0.2519  0.0887  0.0855
17747TIP3    H174656   3.173   3.260  14.098 -1.8523 -0.0784 -0.1498
17747TIP3    H274657   3.231   3.167  13.993  0.1280  0.6234  0.2760
17748TIP3   OH274658   2.331   0.745   5.121  0.1681  0.3098  0.4002
17748TIP3    H174659   2.245   0.719   5.154 -0.6198 -0.6441 -2.1549
17748TIP3    H274660   2.312   0.805   5.049  1.5823 -0.6596 -0.8341
17749TIP3   OH274661   4.505   4.400  15.357 -0.0636 -0.5414 -0.0984
17749TIP3    H174662   4.459   4.466  15.305  1.4726 -1.2688 -2.5837
17749TIP3    H274663   4.495   4.429  15.447 -0.1421  2.6526 -1.0154
17750TIP3   OH274664   5.301   3.722  12.770 -0.3058 -0.2738  0.0689
17750TIP3    H174665   5.351   3.784  12.823 -1.8483 -0.9208  2.4361
17750TIP3    H274666   5.217   3.766  12.755  0.5281  0.4438 -3.1011
17751TIP3   OH274667   3.082   0.817   5.221  0.5480 -0.5860 -0.2131
17751TIP3    H174668   3.142   0.810   5.146  2.3035  2.2714  0.7547
17751TIP3    H274669   2.999   0.844   5.182  1.2125  0.0498 -1.2588
17752TIP3   OH274670   2.033   2.140   0.890 -0.0574  0.1738 -0.0217
17752TIP3    H174671   1.980   2.209   0.931  0.6474  0.5628  0.2528
17752TIP3    H274672   2.092   2.111   0.960  0.8202  0.4984 -0.6076
17753TIP3   OH274673   4.395   1.836   2.427  0.5465 -0.0578 -0.2122
17753TIP3    H174674   4.459   1.907   2.417 -0.4958  0.6070 -2.9901
17753TIP3    H274675   4.318   1.877   2.465 -0.2201  0.5031 -2.2382
17754TIP3   OH274676   1.447   5.998   1.543  0.1326 -0.8350  0.3659
17754TIP3    H174677   1.473   5.908   1.566  2.5565 -0.5093 -0.8289
17754TIP3    H274678   1.413   5.991   1.454 -1.1795 -0.7602  0.8319
17755TIP3   OH274679   0.727   0.163   5.939 -1.2591 -0.6270  0.1545
17755TIP3    H174680   0.731   0.258   5.924  0.3157 -0.4607  1.3725
17755TIP3    H274681   0.807   0.129   5.898 -1.9439 -1.4739 -0.5070
17756TIP3   OH274682   0.325   2.470  12.203 -0.2183  0.6864 -0.1649
17756TIP3    H174683   0.231   2.469  12.222 -0.1171 -0.9731  0.3672
17756TIP3    H274684   0.362   2.399  12.256  1.4700  1.7916  0.2359
17757TIP3   OH274685   1.366   0.113   3.564  0.1550  0.8530 -0.3281
17757TIP3    H174686   1.340   0.174   3.495 -1.0506  2.0002  1.0588
17757TIP3    H274687   1.401   0.169   3.633  0.5866 -0.1876  0.3146
17758TIP3   OH274688   4.656   4.557  11.754  0.3839  0.0031  0.3266
17758TIP3    H174689   4.654   4.561  11.850 -0.7471  0.9507  0.2868
17758TIP3    H274690   4.736   4.509  11.734 -0.2751 -1.8544  1.7888
17759TIP3   OH274691   4.991   3.216   4.368  0.2745  0.5508 -0.6286
17759TIP3    H174692   4.919   3.254   4.317  0.8422  2.0001 -0.4143
17759TIP3    H274693   5.062   3.204   4.305  0.4549  0.8809 -0.4935
17760TIP3   OH274694   4.499   4.345   1.226 -0.1752 -0.3387 -0.7228
17760TIP3    H174695   4.583   4.390   1.214  0.8857 -1.4757  1.7259
17760TIP3    H274696   4.436   4.415   1.241  0.6570  0.4729 -0.9101
17761TIP3   OH274697   3.233   4.056  16.855 -0.2092  0.9716  0.0557
17761TIP3    H174698   3.198   3.976  16.817  1.6723 -0.8708  1.9401
17761TIP3    H274699   3.166   4.123  16.837 -3.0618 -1.5418  0.5371
17762TIP3   OH274700   5.146   0.990  16.495 -0.0558  0.3049 -0.5801
17762TIP3    H174701   5.236   0.964  16.475 -0.6879 -2.0033 -0.6748
17762TIP3    H274702   5.123   1.050  16.424  0.7622 -0.6313 -1.6735
17763TIP3   OH274703   6.429   0.211   5.078  0.2903 -0.1352 -0.3197
17763TIP3    H174704   6.451   0.252   5.162  1.5387 -0.2082 -0.5813
17763TIP3    H274705   6.445   0.117   5.093  0.8730 -0.1082 -0.7272
17764TIP3   OH274706   4.451   3.283   2.138 -0.0903 -0.0187  0.3488
17764TIP3    H174707   4.500   3.231   2.201  1.4857  1.6507  0.5907
17764TIP3    H274708   4.453   3.231   2.057  0.7826 -0.6761  0.7711
17765TIP3   OH274709   2.264   3.911  14.720  0.3839  0.0243  0.1553
17765TIP3    H174710   2.287   4.002  14.738 -1.2589  0.9394 -1.9054
17765TIP3    H274711   2.215   3.883  14.798 -2.6390  2.3230 -0.7147
17766TIP3   OH274712   1.897   5.480  12.594 -0.1081 -0.2550 -0.1714
17766TIP3    H174713   1.926   5.539  12.524 -0.8357 -0.4654 -0.6628
17766TIP3    H274714   1.842   5.535  12.651 -0.5814 -0.3899 -0.4911
17767TIP3   OH274715   3.797   2.723   0.651  0.2384  0.1628  0.2412
17767TIP3    H174716   3.836   2.763   0.573 -0.5566  1.8533  0.6611
17767TIP3    H274717   3.813   2.787   0.720 -1.7646  0.1305  0.7900
17768TIP3   OH274718   3.730   1.296  15.830 -0.0083  0.5713 -0.2170
17768TIP3    H174719   3.753   1.256  15.746  0.4687  0.3366  0.0172
17768TIP3    H274720   3.759   1.387  15.821  1.3128  0.2131  0.1692
17769TIP3   OH274721   6.378   2.734  11.497 -0.2083 -0.6544 -0.0549
17769TIP3    H174722   6.304   2.771  11.449  0.0723  0.1410  0.1102
17769TIP3    H274723   6.450   2.734  11.434  0.6162  1.9415  0.7920
17770TIP3   OH274724   4.674   0.593  15.300 -0.1602  0.5441  0.6622
17770TIP3    H174725   4.746   0.647  15.335 -0.0146 -0.8164  2.6224
17770TIP3    H274726   4.647   0.538  15.373  0.2564 -2.6613 -1.3745
17771TIP3   OH274727   5.293   4.731  10.428  0.8477  1.0921  0.0437
17771TIP3    H174728   5.216   4.787  10.421 -0.9017 -1.1257  0.1671
17771TIP3    H274729   5.333   4.755  10.511 -1.5036  0.3402  1.5246
17772TIP3   OH274730   1.737   0.875   4.116 -0.1459  0.4004  0.2876
17772TIP3    H174731   1.827   0.846   4.127 -0.6011 -0.9961  0.5854
17772TIP3    H274732   1.741   0.944   4.050  0.8515 -1.4263 -1.6877
17773TIP3   OH274733   3.861   3.919  12.403 -0.4249  0.4219  0.3568
17773TIP3    H174734   3.903   3.948  12.484  0.3823 -0.5523  0.3174
17773TIP3    H274735   3.768   3.941  12.415 -0.0136  2.1448  0.6724
17774TIP3   OH274736   0.279   3.253  16.624  0.2375 -0.2597 -0.0092
17774TIP3    H174737   0.301   3.299  16.705 -1.4343  1.4509 -0.4539
17774TIP3    H274738   0.183   3.249  16.624  0.0907  1.1159 -2.5399
17775TIP3   OH274739   1.505   0.322  13.538 -0.6614  0.3768 -0.2969
17775TIP3    H174740   1.591   0.358  13.515  0.0877 -0.9781  0.2587
17775TIP3    H274741   1.488   0.356  13.626 -1.2745  1.6047 -0.8592
17776TIP3   OH274742   0.531   2.325   4.276 -0.1504  0.4432 -0.2923
17776TIP3    H174743   0.447   2.289   4.249 -0.2739  0.8990 -0.5304
17776TIP3    H274744   0.559   2.379   4.202 -0.4236  1.5945  0.4125
17777TIP3   OH274745   3.515   3.760  14.831 -0.7731  0.2596  0.3712
17777TIP3    H174746   3.568   3.840  14.841  0.5929 -0.5516 -0.0237
17777TIP3    H274747   3.453   3.763  14.903  0.0306  1.1114  1.0564
17778TIP3   OH274748   5.410   1.608  11.675  0.1019 -0.5127  0.3375
17778TIP3    H174749   5.343   1.623  11.742  1.2858 -0.8440  1.6391
17778TIP3    H274750   5.375   1.536  11.622 -1.4957  0.7017 -0.3177
17779TIP3   OH274751   1.514   2.022   4.522 -0.3975 -0.2048 -0.1287
17779TIP3    H174752   1.505   2.094   4.459  0.0678  0.5606  0.6436
17779TIP3    H274753   1.458   1.952   4.488 -1.1068  0.6372 -0.7365
17780TIP3   OH274754   5.408   0.389  16.458  0.5252  0.4549  0.1439
17780TIP3    H174755   5.350   0.372  16.532 -1.6285  2.0539 -1.0825
17780TIP3    H274756   5.481   0.439  16.496 -0.8390  1.7813  1.1149
17781TIP3   OH274757   2.879   4.629  15.904 -0.0996  0.1185 -0.9030
17781TIP3    H174758   2.802   4.572  15.912 -0.9704  1.2757 -0.7039
17781TIP3    H274759   2.863   4.680  15.824 -0.1745  1.2449 -0.2011
17782TIP3   OH274760   1.876   0.791  15.644 -0.4382  0.2995  0.0446
17782TIP3    H174761   1.847   0.701  15.631 -0.3274  0.3731 -0.7440
17782TIP3    H274762   1.913   0.817  15.560  1.0256  0.5345  0.7305
17783TIP3   OH274763   1.083   5.851   0.646  0.2640  0.2703 -0.3723
17783TIP3    H174764   1.047   5.764   0.665  0.3497 -0.1196 -1.8375
17783TIP3    H274765   1.168   5.851   0.690 -0.8829  0.7169  2.0283
17784TIP3   OH274766   2.693   1.875   0.534  0.3897  0.0877 -0.4277
17784TIP3    H174767   2.598   1.880   0.542  0.1373 -0.9855 -2.3968
17784TIP3    H274768   2.718   1.801   0.589  0.3687  1.4909  1.6050
17785TIP3   OH274769   4.959   1.609   4.362 -0.3201 -0.3404 -0.1412
17785TIP3    H174770   4.996   1.693   4.388  1.0524 -0.9689  0.0397
17785TIP3    H274771   4.914   1.577   4.441 -3.6976  1.6061 -1.0772
17786TIP3   OH274772   6.430   2.108  11.920  0.0320 -0.2386 -0.0241
17786TIP3    H174773   6.355   2.121  11.978  0.3712  1.5756  0.0606
17786TIP3    H274774   6.392   2.069  11.841 -0.6513 -1.3510  0.8238
17787TIP3   OH274775   2.908   0.938   3.663 -0.0205  0.2844 -0.3427
17787TIP3    H174776   3.002   0.957   3.669  0.1298 -0.3619 -0.5760
17787TIP3    H274777   2.871   0.977   3.743  0.3668  0.9634 -0.4845
17788TIP3   OH274778   6.101   2.859  16.564 -0.2018 -0.1296 -0.4569
17788TIP3    H174779   6.033   2.827  16.504 -0.4288  0.0516 -0.2981
17788TIP3    H274780   6.129   2.781  16.612  1.0211 -0.5571 -1.8207
17789TIP3   OH274781   6.475   5.568  15.149 -0.3993 -0.4599 -0.1847
17789TIP3    H174782   6.481   5.626  15.225 -0.7218 -0.1145 -0.4252
17789TIP3    H274783   6.566   5.557  15.121 -0.4084  0.6839 -0.7061
17790TIP3   OH274784   5.560   4.597  11.489  0.1466 -0.2048  0.4829
17790TIP3    H174785   5.485   4.645  11.454  0.6366 -1.4009 -2.4968
17790TIP3    H274786   5.524   4.512  11.514  0.4096 -0.6884 -0.7118
17791TIP3   OH274787   0.190   3.863   4.235  0.1576 -0.3732  0.0812
17791TIP3    H174788   0.265   3.807   4.214  0.4530  0.5681 -1.6334
17791TIP3    H274789   0.140   3.867   4.153 -0.7412  0.5358  0.6479
17792TIP3   OH274790   3.406   1.560   5.521  0.4146 -0.0370  0.4420
17792TIP3    H174791   3.369   1.645   5.546 -0.7144  0.5969 -2.9097
17792TIP3    H274792   3.330   1.501   5.517  0.5188 -0.1099 -1.2108
17793TIP3   OH274793   2.841   3.522  13.381 -0.4808 -0.1782 -0.3184
17793TIP3    H174794   2.799   3.499  13.298 -0.7619  0.8386 -0.4622
17793TIP3    H274795   2.925   3.559  13.357  1.2600 -3.4802  0.0094
17794TIP3   OH274796   1.180   5.031   4.094  0.3585  0.1633 -0.3981
17794TIP3    H174797   1.232   4.951   4.091  0.2033  0.0651 -0.4674
17794TIP3    H274798   1.245   5.102   4.098  0.5256  0.1112 -1.7811
17795TIP3   OH274799   5.922   4.593  14.833  0.1322 -0.3710  0.5061
17795TIP3    H174800   5.915   4.688  14.840 -0.4893 -0.3752 -0.0161
17795TIP3    H274801   5.846   4.566  14.781  1.8041 -0.8421 -1.8977
17796TIP3   OH274802   2.821   3.031   2.947  0.2374 -0.1263  0.6157
17796TIP3    H174803   2.835   3.114   2.993 -1.8435  0.1743  0.8220
17796TIP3    H274804   2.843   3.051   2.856 -2.4522  1.4675  0.1775
17797TIP3   OH274805   4.532   3.587   0.698 -0.4383  0.0366  0.1994
17797TIP3    H174806   4.555   3.679   0.706  0.0339 -0.2352  4.6328
17797TIP3    H274807   4.439   3.583   0.721 -0.4451 -0.6132  0.0732
17798TIP3   OH274808   6.371   2.746   3.251 -0.0937 -0.2257  0.0600
17798TIP3    H174809   6.282   2.714   3.271 -0.4154  0.7771  0.2723
17798TIP3    H274810   6.373   2.752   3.156  0.0151 -0.9860  0.0068
17799TIP3   OH274811   4.087   6.765   3.272 -0.0927 -0.7825  0.3385
17799TIP3    H174812   4.108   6.828   3.204 -0.0790  0.2744  1.2975
17799TIP3    H274813   3.995   6.745   3.260 -0.3141  0.0859  0.5535
17800TIP3   OH274814   4.348   1.338   2.308 -0.2378  0.0745 -0.3347
17800TIP3    H174815   4.304   1.263   2.269 -0.7975 -0.3355  1.0219
17800TIP3    H274816   4.320   1.337   2.400  0.8269  1.1370  0.0250
17801TIP3   OH274817   0.369   1.485   1.944  0.7160  0.3384 -0.3793
17801TIP3    H174818   0.455   1.468   1.907  1.6629  1.3710  1.2077
17801TIP3    H274819   0.384   1.490   2.038 -1.1795  0.0372 -0.0226
17802TIP3   OH274820   3.474   3.816   4.149 -0.6131  0.3266 -0.2115
17802TIP3    H174821   3.495   3.755   4.219 -0.5459 -0.9572 -1.3240
17802TIP3    H274822   3.557   3.830   4.104 -0.3244  2.3301  0.8226
17803TIP3   OH274823   0.210   2.648   5.361 -0.3354 -0.1073 -0.1029
17803TIP3    H174824   0.151   2.576   5.385  0.5609 -1.3562 -1.4814
17803TIP3    H274825   0.154   2.725   5.363 -1.1326 -0.6585  2.2730
17804TIP3   OH274826   4.022   2.078   5.374  0.1974 -1.0536  0.2178
17804TIP3    H174827   4.009   2.126   5.293 -0.4395  0.1291  0.9893
17804TIP3    H274828   4.011   2.143   5.443  2.8971 -1.5042  1.2414
17805TIP3   OH274829   1.554   3.044  12.640 -0.0360 -0.3758 -0.2211
17805TIP3    H174830   1.594   3.071  12.557 -0.0484 -1.0525 -0.4544
17805TIP3    H274831   1.600   3.096  12.706 -0.2610  0.4228 -0.6689
17806TIP3   OH274832   1.738   3.009   4.582 -0.5971 -0.7201 -0.3924
17806TIP3    H174833   1.662   2.952   4.596  0.2453 -1.4896  1.2992
17806TIP3    H274834   1.813   2.958   4.613  0.7415 -0.1971 -2.4792
17807TIP3   OH274835   3.156   0.249   1.861 -0.5673 -0.0202 -0.2579
17807TIP3    H174836   3.123   0.160   1.848 -2.2736  0.6135 -0.5237
17807TIP3    H274837   3.250   0.243   1.845 -0.6423 -1.7851 -0.1671
17808TIP3   OH274838   3.429   0.024   3.578  0.0409 -0.3962  0.5673
17808TIP3    H174839   3.418   0.105   3.628 -0.6649 -0.1676  0.0643
17808TIP3    H274840   3.470  -0.036   3.639  1.2969  0.5725  0.7133
17809TIP3   OH274841   5.755   5.237  14.615 -0.4618 -0.5677 -0.3855
17809TIP3    H174842   5.740   5.250  14.709 -2.0318 -0.0205 -0.6767
17809TIP3    H274843   5.794   5.320  14.586  2.0813 -1.5127  0.1350
17810TIP3   OH274844   0.176   4.283   3.702 -0.2883 -0.0340 -0.3607
17810TIP3    H174845   0.259   4.301   3.745 -0.0201  0.1954 -0.9587
17810TIP3    H274846   0.155   4.193   3.727  0.9626 -0.6858 -1.4966
17811TIP3   OH274847   3.973   5.135  14.932 -0.7485 -0.3588 -0.3066
17811TIP3    H174848   3.908   5.205  14.919 -1.2133 -0.8058 -0.3986
17811TIP3    H274849   3.958   5.075  14.860 -0.0529 -0.3363 -0.4749
17812TIP3   OH274850   0.735   0.797   4.264  0.0678 -0.3285  0.1291
17812TIP3    H174851   0.810   0.775   4.210 -0.4590 -2.0296  0.0341
17812TIP3    H274852   0.673   0.726   4.249 -1.2793  0.6747  0.7433
17813TIP3   OH274853   3.931   2.570  11.119 -0.7132  0.3209  0.0536
17813TIP3    H174854   4.009   2.620  11.093  0.7550 -2.0459 -0.4239
17813TIP3    H274855   3.895   2.619  11.192 -0.2454  2.8355 -1.2885
17814TIP3   OH274856   1.164   6.284  12.586  0.0555 -0.6084  0.4017
17814TIP3    H174857   1.085   6.251  12.544  0.4564  0.1568 -1.0292
17814TIP3    H274858   1.153   6.263  12.678 -1.2302 -1.6501  0.0368
17815TIP3   OH274859   3.005   3.087  15.258 -0.4373 -0.2444  0.1376
17815TIP3    H174860   3.031   3.072  15.349  0.2843 -1.3072 -0.2235
17815TIP3    H274861   3.024   3.004  15.213 -1.7944 -0.1090 -0.7686
17816TIP3   OH274862   4.628   0.252   3.274  0.1838 -0.2951 -0.1247
17816TIP3    H174863   4.707   0.199   3.271  1.6590  1.7799  0.0271
17816TIP3    H274864   4.565   0.204   3.220  1.5878 -1.8828 -0.4369
17817TIP3   OH274865   1.104   0.612   2.902 -0.3386 -0.3957 -0.5932
17817TIP3    H174866   1.162   0.687   2.916  0.5476 -1.1610  0.0393
17817TIP3    H274867   1.163   0.540   2.878 -0.9654 -1.2926  0.4321
17818TIP3   OH274868   4.851   5.534   5.048 -0.0593  0.4104 -0.3793
17818TIP3    H174869   4.899   5.464   5.092  0.2818  1.9162  1.7869
17818TIP3    H274870   4.918   5.596   5.021 -0.5166  0.8712 -0.4579
17819TIP3   OH274871   3.877   2.077  13.319 -0.2744 -0.6640  0.2008
17819TIP3    H174872   3.841   2.165  13.331 -1.6530 -0.9898 -1.2260
17819TIP3    H274873   3.893   2.046  13.408 -0.8060  0.5969  0.7686
17820TIP3   OH274874   4.744   5.710   0.564 -0.6116  0.0936  0.5086
17820TIP3    H174875   4.746   5.802   0.540  0.3837  0.0188  0.2850
17820TIP3    H274876   4.807   5.668   0.506 -0.8085 -0.6753  0.8379
17821TIP3   OH274877   0.381   3.575   5.657  0.0346  0.6382  0.1389
17821TIP3    H174878   0.415   3.602   5.742  3.5093  3.4508 -1.8340
17821TIP3    H274879   0.318   3.643   5.633  0.0119  0.5523 -0.0502
17822TIP3   OH274880   4.382   2.849  13.005 -0.4281 -0.1789 -0.1152
17822TIP3    H174881   4.303   2.813  12.964 -1.0727 -0.5924  1.4247
17822TIP3    H274882   4.454   2.806  12.958 -1.1093 -0.0617 -1.3084
17823TIP3   OH274883   5.989   2.014   5.526  0.7860 -0.5760  0.4800
17823TIP3    H174884   6.000   2.071   5.450 -0.7305 -0.0660  0.6098
17823TIP3    H274885   6.071   2.023   5.575  0.8733  0.9305  0.1119
17824TIP3   OH274886   3.932   5.584  12.568 -0.8256 -0.0427  0.0963
17824TIP3    H174887   3.892   5.508  12.611  0.3388 -1.2286 -0.8177
17824TIP3    H274888   3.911   5.573  12.475  0.5965 -0.0695 -0.2438
17825TIP3   OH274889   1.841   3.105  16.013  0.1446  0.2438 -0.1589
17825TIP3    H174890   1.901   3.064  16.074  1.2416 -0.2694 -1.5198
17825TIP3    H274891   1.876   3.194  16.001 -1.3048  1.1219  1.5435
17826TIP3   OH274892   5.199   5.448  15.043 -0.3919 -0.7907 -0.3013
17826TIP3    H174893   5.224   5.361  15.011 -1.1235 -1.3906  0.7013
17826TIP3    H274894   5.117   5.468  14.999 -1.7901 -1.9368  1.6086
17827TIP3   OH274895   2.402   4.959  11.528  0.7732 -0.7885  0.2302
17827TIP3    H174896   2.473   4.900  11.504  0.2475 -1.1441 -0.5037
17827TIP3    H274897   2.324   4.904  11.530  0.3632 -0.2300  0.0743
17828TIP3   OH274898   2.300   6.271  12.124  0.8753  0.3486 -0.0073
17828TIP3    H174899   2.207   6.255  12.138  0.7195 -0.1673 -1.5232
17828TIP3    H274900   2.308   6.296  12.032  2.2461  0.2580  0.0556
17829TIP3   OH274901   6.019   4.036   2.644 -0.2888  0.0607  0.6133
17829TIP3    H174902   6.014   4.088   2.564 -0.6978 -0.6560  0.1639
17829TIP3    H274903   6.096   3.980   2.631 -0.5358 -0.2767  0.5731
17830TIP3   OH274904   6.081   5.720   3.835 -0.1644 -0.0612  0.1799
17830TIP3    H174905   6.173   5.713   3.861 -0.5042  0.9638  1.8406
17830TIP3    H274906   6.077   5.677   3.750  2.4142  2.2361 -1.2887
17831TIP3   OH274907   6.312   0.133  13.702  0.3003 -0.5489 -0.6502
17831TIP3    H174908   6.384   0.109  13.761  0.5595  1.5731 -0.0146
17831TIP3    H274909   6.241   0.072  13.725  0.7864 -0.5451  1.0530
17832TIP3   OH274910   5.445   0.257  13.846 -0.1019 -0.7380  0.2900
17832TIP3    H174911   5.350   0.262  13.857 -0.1227  0.8144 -0.2428
17832TIP3    H274912   5.479   0.324  13.905  0.5491 -0.2896 -0.5749
17833TIP3   OH274913   2.547   4.568   3.498 -0.4518  0.2816 -0.2552
17833TIP3    H174914   2.600   4.643   3.525  2.1989  0.4999 -4.8573
17833TIP3    H274915   2.588   4.493   3.541 -1.8621  1.0993  2.7882
17834TIP3   OH274916   4.817   1.443   4.184  0.1123 -0.1461  0.8971
17834TIP3    H174917   4.862   1.474   4.262  0.1609 -0.5336  1.0242
17834TIP3    H274918   4.858   1.491   4.112 -0.5604  0.9102  1.1836
17835TIP3   OH274919   5.011   0.846   0.432 -0.3620 -0.0016 -0.2279
17835TIP3    H174920   4.981   0.836   0.342 -0.0421  0.1038 -0.3463
17835TIP3    H274921   5.027   0.940   0.442 -0.4564 -0.0035 -0.0413
17836TIP3   OH274922   2.523   6.627  13.613  0.2099 -0.4007 -0.4020
17836TIP3    H174923   2.471   6.548  13.625  0.5511 -0.7871 -1.3432
17836TIP3    H274924   2.481   6.671  13.539 -0.3657  0.6410  0.5146
17837TIP3   OH274925   2.812   1.852  11.330  0.1993 -0.7776  0.1614
17837TIP3    H174926   2.902   1.834  11.303  0.3747 -0.7923  0.7464
17837TIP3    H274927   2.800   1.946  11.311  0.5297 -0.6393  0.6204
17838TIP3   OH274928   4.731   3.386  11.004  0.4240  0.3075  0.2685
17838TIP3    H174929   4.729   3.465  11.058 -2.2857  0.0891  0.6387
17838TIP3    H274930   4.689   3.413  10.922 -0.1203 -0.6273  0.2345
17839TIP3   OH274931   3.630   1.716  15.588  0.3032 -0.3636 -0.0275
17839TIP3    H174932   3.623   1.622  15.573  0.3977 -0.3829  0.0508
17839TIP3    H274933   3.543   1.750  15.564  0.4787 -0.3799 -0.6926
17840TIP3   OH274934   3.439   3.728   3.740  0.0167 -0.2243  0.2120
17840TIP3    H174935   3.474   3.715   3.651 -0.8641  0.2151 -0.2153
17840TIP3    H274936   3.488   3.667   3.794  1.2805  0.2142 -0.4030
17841TIP3   OH274937   4.299   3.015  17.006  0.4967 -0.4117 -0.3293
17841TIP3    H174938   4.282   2.922  16.990  0.4552 -0.8074  1.6779
17841TIP3    H274939   4.227   3.043  17.063  1.5608  0.3086  0.7231
17842TIP3   OH274940   3.316   5.312  13.589 -0.1097 -0.0575  0.7003
17842TIP3    H174941   3.385   5.249  13.608  0.6203  0.6367  0.3717
17842TIP3    H274942   3.329   5.383  13.652 -1.0118 -0.2826  1.1613
17843TIP3   OH274943   6.387   5.808   2.907 -0.4717 -0.2979  0.4078
17843TIP3    H174944   6.313   5.842   2.857 -0.3202 -0.4307  0.0863
17843TIP3    H274945   6.368   5.831   2.998 -0.7698 -0.0861  0.2924
17844TIP3   OH274946   4.283   1.371  14.857  0.3701 -0.1039  0.4776
17844TIP3    H174947   4.216   1.437  14.844  0.6662  0.3674  1.3170
17844TIP3    H274948   4.300   1.371  14.951 -0.3294 -2.0788  0.6461
17845TIP3   OH274949   4.214   4.908  10.843 -0.2164  0.6836  0.2610
17845TIP3    H174950   4.136   4.915  10.898 -0.3739  0.5617  0.0561
17845TIP3    H274951   4.185   4.939  10.757  0.5296  2.7237  0.6926
17846TIP3   OH274952   0.347   0.012   0.266  0.1170  0.1530  0.1562
17846TIP3    H174953   0.304   0.068   0.330  0.8559  1.3190 -0.3421
17846TIP3    H274954   0.329  -0.077   0.296 -1.2090  0.6467  0.8714
17847TIP3   OH274955   0.292   0.194   4.518 -0.1313 -0.0320  0.0567
17847TIP3    H174956   0.209   0.147   4.511 -0.8032  1.2560 -1.4195
17847TIP3    H274957   0.359   0.125   4.511 -1.0719 -0.8555 -1.6118
17848TIP3   OH274958   0.910   0.347  12.365  0.0491 -0.1088  0.2928
17848TIP3    H174959   0.835   0.351  12.307  0.4291 -3.2943 -0.6179
17848TIP3    H274960   0.878   0.382  12.448 -1.5265  1.2680 -0.8112
17849TIP3   OH274961   4.001   4.624   5.895  0.1008 -0.1095 -0.0606
17849TIP3    H174962   4.062   4.592   5.961 -1.1278 -0.4831  0.9440
17849TIP3    H274963   3.922   4.646   5.944 -0.7311 -0.0683 -1.3642
17850TIP3   OH274964   2.823   3.375  14.096  0.6540  0.4553  0.5683
17850TIP3    H174965   2.844   3.311  14.028 -0.9889  0.6211 -0.1590
17850TIP3    H274966   2.810   3.323  14.175 -0.1399 -0.0886  0.1046
17851TIP3   OH274967   5.138   4.662  14.652  0.1975  0.3916 -0.7618
17851TIP3    H174968   5.217   4.619  14.620 -0.1548 -0.5442 -0.4203
17851TIP3    H274969   5.169   4.734  14.707  0.8486 -1.0704  0.8507
17852TIP3   OH274970   6.393   2.060  10.684 -0.4430  0.0943  0.4525
17852TIP3    H174971   6.325   1.994  10.696  0.7815 -1.5288 -0.9296
17852TIP3    H274972   6.347   2.136  10.648 -1.6149 -0.7642  0.0688
17853TIP3   OH274973   4.053   0.199   5.501 -0.2356 -0.2008 -0.8084
17853TIP3    H174974   4.068   0.104   5.503  0.4975 -0.1049  2.2889
17853TIP3    H274975   3.963   0.210   5.530 -0.0024  0.0927 -0.1912
17854TIP3   OH274976   6.704   4.092  10.670 -0.3534  1.0227 -0.0333
17854TIP3    H174977   6.668   4.007  10.695  0.7966  1.7291  5.2287
17854TIP3    H274978   6.628   4.150  10.666 -0.8016  0.4348 -0.1802
17855TIP3   OH274979   4.027   6.588   4.904  0.7041 -0.1372 -0.2532
17855TIP3    H174980   4.089   6.642   4.954 -0.3790  0.7320  0.1842
17855TIP3    H274981   4.083   6.532   4.850  1.8747  0.8959 -0.1662
17856TIP3   OH274982   4.848   3.513  16.053  0.3340 -0.7605 -0.1543
17856TIP3    H174983   4.760   3.544  16.033  0.7814  1.0262  0.4085
17856TIP3    H274984   4.873   3.460  15.978 -1.5799 -2.1874  0.1341
17857TIP3   OH274985   2.494   5.814  13.779 -0.3713  0.2198  0.7922
17857TIP3    H174986   2.562   5.836  13.715 -1.5140 -0.7699 -0.8427
17857TIP3    H274987   2.484   5.894  13.831 -0.5264  1.6946 -1.3347
17858TIP3   OH274988   3.933   2.845   4.092 -0.3973 -0.0092  0.5763
17858TIP3    H174989   3.850   2.800   4.111  0.1244 -0.1483  2.7546
17858TIP3    H274990   3.915   2.937   4.107  0.2914 -0.2115  3.1769
17859TIP3   OH274991   5.631   4.723  14.175  0.2566 -0.1516 -0.1095
17859TIP3    H174992   5.615   4.629  14.170 -0.9758  0.0338 -0.0786
17859TIP3    H274993   5.550   4.759  14.211 -0.1894  1.1493 -2.2175
17860TIP3   OH274994   3.250   4.056   5.580  0.4547 -0.1851  0.1218
17860TIP3    H174995   3.310   4.096   5.643 -0.1457  0.9167  0.0145
17860TIP3    H274996   3.291   3.973   5.558  1.9530  0.5403  0.0488
17861TIP3   OH274997   1.833   0.629  11.690 -0.4974 -0.1270 -0.4086
17861TIP3    H174998   1.859   0.687  11.618  0.1038  1.3412  0.9124
17861TIP3    H274999   1.740   0.612  11.675 -1.1457  2.6004  0.0335
17862TIP3   OH275000   4.632   2.137   4.887  0.0821 -0.4400 -1.1910
17862TIP3    H175001   4.680   2.219   4.894  0.3984 -0.4061 -3.2843
17862TIP3    H275002   4.696   2.075   4.852 -0.1427 -1.6398  0.3740
17863TIP3   OH275003   0.015   6.206  15.863 -0.5903 -0.0062 -0.4039
17863TIP3    H175004  -0.013   6.297  15.858  0.4798  0.3285 -0.4912
17863TIP3    H275005   0.042   6.195  15.954  2.2812  0.7070 -1.0859
17864TIP3   OH275006   2.590   5.548   1.151  0.0758  0.1064 -0.6045
17864TIP3    H175007   2.577   5.467   1.200  1.6031 -0.4308 -1.0585
17864TIP3    H275008   2.674   5.582   1.181  0.8356  0.0058 -2.4589
17865TIP3   OH275009   1.479   5.146   6.468 -0.3376 -0.0638  0.5621
17865TIP3    H175010   1.422   5.216   6.435 -2.8779 -1.2060  2.2545
17865TIP3    H275011   1.487   5.085   6.395 -0.8063  0.3890  0.1218
17866TIP3   OH275012   5.069   0.201   1.100  0.0344  0.4483  0.1031
17866TIP3    H175013   5.080   0.106   1.099  1.1270  0.5585  0.3004
17866TIP3    H275014   5.121   0.232   1.027  0.1402  0.9363  0.3808
17867TIP3   OH275015   5.755   3.369   5.516  0.8239  0.1205 -0.4990
17867TIP3    H175016   5.807   3.448   5.501  0.2556  0.7636  0.7376
17867TIP3    H275017   5.689   3.396   5.581 -0.2441 -1.0045 -1.0762
17868TIP3   OH275018   6.339   3.743  16.893 -0.3309 -0.2982 -0.8375
17868TIP3    H175019   6.388   3.681  16.947 -1.4588 -0.3095  0.2336
17868TIP3    H275020   6.257   3.698  16.873 -1.2676  0.8793  0.1524
17869TIP3   OH275021   2.762   3.622   6.100 -0.3669  0.2106 -0.1118
17869TIP3    H175022   2.668   3.634   6.113 -0.1943  0.7906  0.6471
17869TIP3    H275023   2.776   3.649   6.009 -1.2255 -1.7344 -0.8648
17870TIP3   OH275024   6.224   3.746   0.975 -0.4011 -1.0448 -0.3290
17870TIP3    H175025   6.215   3.664   0.927 -0.0416 -0.9495 -0.5617
17870TIP3    H275026   6.263   3.807   0.912  1.9456 -1.4460  0.6167
17871TIP3   OH275027   4.937   2.251   6.280  0.4462  0.0598  0.1739
17871TIP3    H175028   4.870   2.270   6.347 -2.6616  1.5939 -2.9849
17871TIP3    H275029   4.992   2.330   6.279 -2.8148  2.6543 -2.3407
17872TIP3   OH275030   6.419   4.928   3.380 -0.4934  0.3719  0.4279
17872TIP3    H175031   6.465   4.852   3.415 -3.0593 -2.0659 -1.0855
17872TIP3    H275032   6.339   4.935   3.432 -0.6671  1.5794  0.0488
17873TIP3   OH275033   3.724   3.605  16.961 -0.6038 -0.0357 -1.2355
17873TIP3    H175034   3.788   3.567  16.901  0.1451 -1.1621  0.1854
17873TIP3    H275035   3.668   3.531  16.986 -1.6612  0.6638 -1.4582
17874TIP3   OH275036   5.055   2.912  17.141  0.5963  0.5664  0.0049
17874TIP3    H175037   5.036   2.945  17.229 -2.4831 -0.5592 -0.1005
17874TIP3    H275038   5.039   2.986  17.083 -1.7059  0.2407  0.1304
17875TIP3   OH275039   6.505   0.868  12.606  0.0729 -0.0599  0.1442
17875TIP3    H175040   6.594   0.893  12.581 -0.1286 -0.2747 -0.8088
17875TIP3    H275041   6.497   0.896  12.697  0.6971  1.0956 -0.1402
17876TIP3   OH275042   1.706   3.689  14.192  0.3848 -0.1724  0.7564
17876TIP3    H175043   1.769   3.639  14.140  0.6778 -0.3045  1.2258
17876TIP3    H275044   1.696   3.772  14.145 -0.6390 -0.9257 -0.4110
17877TIP3   OH275045   0.569   3.581  16.655  0.0431 -0.7194  0.0298
17877TIP3    H175046   0.505   3.619  16.594  0.5098  1.3020  0.7426
17877TIP3    H275047   0.521   3.572  16.737  0.0201 -1.4210 -0.0573
17878TIP3   OH275048   0.056   4.035  15.852 -0.0587 -0.5187 -0.1042
17878TIP3    H175049   0.009   4.084  15.919 -0.1227 -0.7614  0.0286
17878TIP3    H275050   0.034   4.079  15.770 -0.7196 -0.7843 -0.0712
17879TIP3   OH275051   4.342   0.912   1.879 -0.3129 -0.3459  0.7116
17879TIP3    H175052   4.266   0.944   1.832 -0.3530 -0.7373  0.5067
17879TIP3    H275053   4.413   0.972   1.854 -0.5963  0.1430  1.0677
17880TIP3   OH275054   1.331   3.995  15.735  0.2581 -0.7228  0.6059
17880TIP3    H175055   1.236   3.990  15.722 -0.0460  1.3489  1.6927
17880TIP3    H275056   1.343   3.981  15.828  0.6995  1.6964  0.9871
17881TIP3   OH275057   1.633   3.856  11.223  0.2243 -0.0112 -0.0042
17881TIP3    H175058   1.542   3.881  11.211  0.3633 -0.4772 -2.5587
17881TIP3    H275059   1.631   3.761  11.233  0.4895 -0.2353 -1.7236
17882TIP3   OH275060   4.711   1.168   5.721 -0.4913  0.0159  0.3389
17882TIP3    H175061   4.725   1.263   5.722 -1.0852  0.1082  0.9008
17882TIP3    H275062   4.617   1.158   5.702 -0.5536 -0.4340  0.8411
17883TIP3   OH275063   4.204   2.593  11.287 -0.3238 -0.3439 -1.0163
17883TIP3    H175064   4.243   2.512  11.255  1.3869  0.4181 -0.9500
17883TIP3    H275065   4.184   2.643  11.208 -0.2675 -0.3276 -1.0199
17884TIP3   OH275066   1.084   6.358   1.851 -0.0424  0.1722 -0.0469
17884TIP3    H175067   1.011   6.420   1.856  1.0000  1.4326  0.1201
17884TIP3    H275068   1.159   6.411   1.823  1.4787 -0.4253  2.5239
17885TIP3   OH275069   6.705   1.185   5.708  0.1543  0.1457  0.2318
17885TIP3    H175070   6.703   1.264   5.761  1.2914 -0.0903  0.6506
17885TIP3    H275071   6.735   1.116   5.767  1.1100 -0.1974 -0.6249
17886TIP3   OH275072   1.986   1.682  13.759 -0.0450  0.1678  0.0982
17886TIP3    H175073   2.000   1.596  13.799 -0.8458  0.6914  1.5930
17886TIP3    H275074   1.925   1.726  13.818  0.0908  1.6549 -0.8174
17887TIP3   OH275075   3.891   5.513  13.108  0.0540 -0.0186 -0.5511
17887TIP3    H175076   3.826   5.457  13.066 -0.8538  0.6279 -0.0490
17887TIP3    H275077   3.840   5.567  13.168  0.9504  1.1262 -0.7984
17888TIP3   OH275078   2.922   5.312   5.703 -0.6705 -0.6542  0.5890
17888TIP3    H175079   2.956   5.342   5.618 -0.0912  0.1731  1.1020
17888TIP3    H275080   2.897   5.221   5.688  2.8139 -1.7026  0.4492
17889TIP3   OH275081   4.986   2.796  14.432  0.5245 -0.1122  0.7684
17889TIP3    H175082   4.980   2.702  14.453 -0.7951  0.3337  2.6631
17889TIP3    H275083   4.922   2.810  14.362 -0.8049 -0.3122  1.8926
17890TIP3   OH275084   3.426   2.987   2.707  0.3931 -0.1290 -0.3978
17890TIP3    H175085   3.520   2.978   2.722  0.3284  0.6987  0.6914
17890TIP3    H275086   3.415   2.972   2.613  1.3244 -2.2937 -0.2178
17891TIP3   OH275087   1.509   6.226   0.809 -0.6985 -0.5079  0.8590
17891TIP3    H175088   1.584   6.194   0.759 -1.3300  0.9734 -1.1894
17891TIP3    H275089   1.546   6.258   0.891  1.1046  0.9619 -0.4434
17892TIP3   OH275090   1.247   4.782  12.291  0.3539  0.3250 -0.1034
17892TIP3    H175091   1.338   4.810  12.282  0.3860  0.6106  0.9050
17892TIP3    H275092   1.225   4.802  12.383 -1.3110  2.0920 -0.7974
17893TIP3   OH275093   6.643   4.574  15.458  0.1647  0.0491  0.2549
17893TIP3    H175094   6.681   4.580  15.545  1.3287  0.7573 -0.2786
17893TIP3    H275095   6.548   4.577  15.473  0.3576  1.9708  1.3813
17894TIP3   OH275096   4.444   2.397   4.241  0.5356  0.0487  0.4347
17894TIP3    H175097   4.371   2.336   4.248  0.6404 -0.3622 -1.3894
17894TIP3    H275098   4.419   2.457   4.172  1.8075  0.0239 -0.0899
17895TIP3   OH275099   3.257   4.299  13.822  0.0508  0.1643  0.1041
17895TIP3    H175100   3.239   4.374  13.879  0.3125  0.9394 -0.8087
17895TIP3    H275101   3.171   4.272  13.790  0.0558  0.8679 -0.5329
17896TIP3   OH275102   2.929   4.590  11.168  0.1906 -0.0371 -0.9175
17896TIP3    H175103   2.870   4.621  11.099 -0.7653 -0.0993 -0.1495
17896TIP3    H275104   2.980   4.520  11.126 -0.7902 -0.4853 -1.4032
17897TIP3   OH275105   1.135   0.086   2.756 -0.4358  0.3776 -0.0481
17897TIP3    H175106   1.119   0.157   2.694  0.1713 -0.3424 -1.0472
17897TIP3    H275107   1.229   0.084   2.768 -0.4630 -0.1332  0.1254
17898TIP3   OH275108   0.666   4.331  13.127  0.1359 -0.1859  0.0921
17898TIP3    H175109   0.745   4.311  13.176 -0.4733 -0.8730  0.8138
17898TIP3    H275110   0.643   4.420  13.154  1.3211  0.5148 -1.0596
17899TIP3   OH275111   4.540   4.078  10.680  0.6097  0.2909 -0.0050
17899TIP3    H175112   4.507   4.017  10.613  0.5313 -0.3127  0.5672
17899TIP3    H275113   4.635   4.065  10.679  0.5591 -0.1495  0.3951
17900TIP3   OH275114   0.937   4.453  16.281 -0.3872 -0.1839 -0.5389
17900TIP3    H175115   0.967   4.362  16.289 -1.3789 -0.5320 -0.5818
17900TIP3    H275116   0.907   4.460  16.190  4.1941  1.6527 -2.1710
17901TIP3   OH275117   6.424   6.507   1.693 -0.4053 -0.0199  0.4589
17901TIP3    H175118   6.378   6.483   1.774 -0.6532  1.4742  0.7893
17901TIP3    H275119   6.355   6.514   1.627 -0.3752  0.0474  0.4334
17902TIP3   OH275120   1.117   0.021  12.033  0.1917 -0.1068 -0.1393
17902TIP3    H175121   1.045   0.048  12.091 -1.7419 -0.4789 -2.2543
17902TIP3    H275122   1.162   0.103  12.013 -0.5653  0.3633  0.0262
17903TIP3   OH275123   1.246   6.490   0.463 -0.6728 -0.1223 -0.2427
17903TIP3    H175124   1.297   6.419   0.424 -0.6153 -0.1021 -0.2050
17903TIP3    H275125   1.258   6.478   0.558  0.1048  0.4864 -0.2504
17904TIP3   OH275126   5.487   0.670  14.835  0.3455 -0.1200  0.1059
17904TIP3    H175127   5.452   0.752  14.869  0.6318 -0.4385  1.2148
17904TIP3    H275128   5.432   0.602  14.875  1.1498 -0.5409  0.5258
17905TIP3   OH275129   6.283   4.263  12.239  0.3232  0.6485 -0.7484
17905TIP3    H175130   6.275   4.327  12.169 -0.3912  1.7555  0.3178
17905TIP3    H275131   6.328   4.309  12.309 -1.8192  0.6038  0.7349
17906TIP3   OH275132   4.248   5.391   5.097 -0.1489 -0.4542  0.3668
17906TIP3    H175133   4.184   5.342   5.150 -1.9917  0.7459 -0.6662
17906TIP3    H275134   4.331   5.375   5.141 -1.6648  1.3410  4.3509
17907TIP3   OH275135   1.568   2.194  12.496  0.1757  0.2160 -0.1280
17907TIP3    H175136   1.592   2.115  12.446 -1.3194 -1.9438  2.3119
17907TIP3    H275137   1.501   2.236  12.443  0.2028 -0.7622 -0.9846
17908TIP3   OH275138   1.232   4.988  14.411 -0.1401 -0.3747  0.4070
17908TIP3    H175139   1.164   4.965  14.475 -0.7658  1.1926  0.3314
17908TIP3    H275140   1.299   4.921  14.424 -0.4119 -0.3176  2.4643
17909TIP3   OH275141   2.409   1.588   3.615  0.2388  0.0369  0.2107
17909TIP3    H175142   2.356   1.614   3.690 -0.7616 -0.7626 -0.1804
17909TIP3    H275143   2.498   1.614   3.637 -0.2733  1.1951  1.0061
17910TIP3   OH275144   2.198   0.740   2.785  0.5107 -0.0819 -0.3371
17910TIP3    H175145   2.127   0.774   2.840  0.3406  0.5522 -0.9348
17910TIP3    H275146   2.243   0.677   2.841 -0.0402  0.0902  0.3195
17911TIP3   OH275147   5.370   3.133  15.573 -0.4644 -0.3871  0.0078
17911TIP3    H175148   5.445   3.177  15.533 -1.1763  1.7507  0.8435
17911TIP3    H275149   5.405   3.049  15.603  1.1989 -0.0969 -0.9556
17912TIP3   OH275150   1.464   6.584  14.730  0.1869 -0.1705  0.0313
17912TIP3    H175151   1.448   6.538  14.647  1.6913 -0.1114 -0.3225
17912TIP3    H275152   1.445   6.520  14.798  1.1043 -0.9673 -0.4336
17913TIP3   OH275153   2.847   1.487   5.622 -0.2184 -0.0702 -0.1681
17913TIP3    H175154   2.756   1.516   5.634 -0.8106 -2.1353  0.6588
17913TIP3    H275155   2.868   1.440   5.702  2.1619  1.6377  0.3372
17914TIP3   OH275156   1.677   2.231  10.831 -0.6134 -0.2391 -0.1864
17914TIP3    H175157   1.769   2.241  10.853 -0.7561 -1.2114  0.9325
17914TIP3    H275158   1.677   2.198  10.741  0.2260 -1.9877  0.4141
17915TIP3   OH275159   0.299   2.274  13.327 -0.5642 -0.4701 -0.2072
17915TIP3    H175160   0.284   2.207  13.394 -0.4065 -1.5530 -1.2290
17915TIP3    H275161   0.376   2.243  13.280 -0.4017  0.5174 -0.6115
17916TIP3   OH275162   3.128   2.810  15.684 -0.0189 -0.2811  0.4826
17916TIP3    H175163   3.033   2.802  15.692 -0.2158  0.0314 -1.0643
17916TIP3    H275164   3.160   2.720  15.681 -0.4926 -0.4247 -0.8836
17917TIP3   OH275165   1.749   3.265  14.326  0.3287 -0.3016 -0.4610
17917TIP3    H175166   1.810   3.287  14.256 -0.6114 -0.1034 -1.2391
17917TIP3    H275167   1.713   3.179  14.301 -0.0781 -0.1903 -0.2705
17918TIP3   OH275168   0.564   6.666  12.240  0.3501  0.1274  0.3007
17918TIP3    H175169   0.522   6.671  12.327  0.4692  1.2580  0.3133
17918TIP3    H275170   0.525   6.739  12.192 -0.2254 -0.9123 -0.8409
17919TIP3   OH275171   0.421   3.772  15.878  0.1407 -0.2176 -0.5067
17919TIP3    H175172   0.330   3.764  15.850 -0.6145  1.1238  1.3769
17919TIP3    H275173   0.462   3.826  15.810 -0.2233 -1.5230 -1.8039
17920TIP3   OH275174   4.105   1.826  13.963  0.2899  0.1190  0.6843
17920TIP3    H175175   4.153   1.752  14.000  1.2376  0.7142  0.6718
17920TIP3    H275176   4.103   1.891  14.033 -0.4325  0.1350  0.6531
17921TIP3   OH275177   4.595   5.593  14.855 -0.7100 -0.0803  0.2377
17921TIP3    H175178   4.559   5.504  14.859  0.0748 -0.4050  0.4397
17921TIP3    H275179   4.662   5.594  14.924 -0.4274  0.5319 -0.0402
17922TIP3   OH275180   5.630   2.636  11.504  0.0810  0.2627  0.2296
17922TIP3    H175181   5.579   2.716  11.491 -0.3257  0.1332  0.9927
17922TIP3    H275182   5.568   2.573  11.541  0.4799 -0.3049 -0.0460
17923TIP3   OH275183   6.106   6.618   3.872  0.2742 -0.2812  0.5619
17923TIP3    H175184   6.184   6.651   3.915 -1.6196  3.5242  1.5627
17923TIP3    H275185   6.039   6.619   3.940 -1.6406  1.0761 -1.1804
17924TIP3   OH275186   4.352   0.848  15.665  0.4424 -0.1197  0.1976
17924TIP3    H175187   4.428   0.799  15.632  0.6020 -0.3603  0.9049
17924TIP3    H275188   4.326   0.904  15.592  1.9006  0.6758  0.2587
17925TIP3   OH275189   2.690   3.093  11.504 -0.1899 -0.0000 -0.5215
17925TIP3    H175190   2.783   3.114  11.495  0.0312 -0.1039  1.1918
17925TIP3    H275191   2.688   3.016  11.562 -1.3367 -0.1885 -0.7741
17926TIP3   OH275192   1.473   5.520  11.124 -0.4826 -0.1316 -0.6524
17926TIP3    H175193   1.442   5.547  11.038 -3.4816  1.2196  0.6950
17926TIP3    H275194   1.498   5.602  11.168  0.5290 -0.7416 -0.0461
17927TIP3   OH275195   5.234   0.959   1.862  0.5462 -0.1297 -0.3564
17927TIP3    H175196   5.249   0.888   1.799  0.9740 -1.3578  1.0571
17927TIP3    H275197   5.227   0.914   1.947 -2.4808  1.2023  0.2316
17928TIP3   OH275198   6.254   1.238   3.757  0.2216  0.3336  0.3754
17928TIP3    H175199   6.339   1.270   3.728 -0.0003  0.6196  0.0238
17928TIP3    H275200   6.270   1.150   3.788  0.4971  0.0623 -0.5085
17929TIP3   OH275201   5.984   4.146  11.024  0.4796  0.8689 -0.3340
17929TIP3    H175202   5.952   4.057  11.039  3.3458 -0.2288 -0.1598
17929TIP3    H275203   5.929   4.180  10.954 -0.6348 -1.0503 -0.4556
17930TIP3   OH275204   3.803   6.421   5.590 -0.1051  0.3379  0.0375
17930TIP3    H175205   3.772   6.332   5.608 -0.9908  0.3265 -1.3415
17930TIP3    H275206   3.895   6.420   5.616 -0.8637 -0.0117  3.0832
17931TIP3   OH275207   1.131   4.496   3.801 -0.0592 -0.3533  0.0357
17931TIP3    H175208   1.098   4.514   3.889  0.0410  0.5347 -0.0995
17931TIP3    H275209   1.117   4.577   3.753 -0.7022 -1.0174 -0.9620
17932TIP3   OH275210   1.430   6.493   4.899  0.3381 -0.1685 -0.2124
17932TIP3    H175211   1.519   6.518   4.873  1.1176 -1.8920  0.6832
17932TIP3    H275212   1.402   6.431   4.832 -0.4106  0.7541 -0.7711
17933TIP3   OH275213   5.586   2.845   5.225  0.3859 -0.0306 -0.3420
17933TIP3    H175214   5.525   2.916   5.206  0.1414  0.1575  1.0269
17933TIP3    H275215   5.607   2.808   5.140 -2.8959 -1.1414 -0.8332
17934TIP3   OH275216   3.420   1.484  12.647  0.5901 -0.5081 -0.0071
17934TIP3    H175217   3.499   1.474  12.700  0.4357 -0.0266  0.3136
17934TIP3    H275218   3.442   1.550  12.582 -0.2590  1.3437  1.4927
17935TIP3   OH275219   5.643   3.277  12.586 -0.4165 -0.4635  0.3211
17935TIP3    H175220   5.559   3.320  12.576 -0.5248 -0.9054 -0.9311
17935TIP3    H275221   5.706   3.348  12.599 -0.7788 -0.0189 -0.3228
17936TIP3   OH275222   1.145   3.607   3.028  0.1250  0.3124  0.0425
17936TIP3    H175223   1.207   3.677   3.007  0.7963  0.4657  2.2833
17936TIP3    H275224   1.066   3.631   2.980  0.4002  2.5401  0.5660
17937TIP3   OH275225   1.037   4.033  14.268 -0.1943  0.2898  0.4292
17937TIP3    H175226   1.005   4.116  14.234 -1.5246  0.1735  1.3342
17937TIP3    H275227   1.016   4.035  14.361  0.4070 -0.7595  0.6068
17938TIP3   OH275228   6.095   0.775   3.854 -0.0331 -0.2826  0.0460
17938TIP3    H175229   6.008   0.791   3.891  0.2440 -0.7105  0.9300
17938TIP3    H275230   6.138   0.719   3.919  1.2040  0.6229  0.0520
17939TIP3   OH275231   5.924   2.005   2.278  0.7654 -0.5496  0.1834
17939TIP3    H175232   6.005   2.019   2.229  1.6898  0.7144  1.9624
17939TIP3    H275233   5.952   1.963   2.359 -0.7749 -2.9527 -0.4141
17940TIP3   OH275234   0.603   0.018  15.370 -0.0245  0.0966  0.0201
17940TIP3    H175235   0.695   0.043  15.371 -0.0122  0.1786 -1.1871
17940TIP3    H275236   0.599  -0.063  15.420  0.5201  0.6345  0.9589
17941TIP3   OH275237   4.930   6.179  14.392  0.2287  0.2767  0.1936
17941TIP3    H175238   4.972   6.096  14.365  0.5909  0.7275 -0.6698
17941TIP3    H275239   4.945   6.183  14.486 -1.3669 -1.5136  0.5704
17942TIP3   OH275240   3.175   6.691   5.142 -0.1831  0.0667  0.5018
17942TIP3    H175241   3.116   6.617   5.161 -0.8617  0.7592  1.1965
17942TIP3    H275242   3.191   6.731   5.227 -0.1241  0.9422  0.0908
17943TIP3   OH275243   1.567   3.692  15.755  0.3476 -0.1961  0.2092
17943TIP3    H175244   1.517   3.661  15.831  0.9960 -2.2367 -0.1461
17943TIP3    H275245   1.659   3.676  15.779  0.5338 -1.2794 -1.1768
17944TIP3   OH275246   5.203   5.414  11.793  0.6420  0.5829  0.3013
17944TIP3    H175247   5.294   5.390  11.810  1.3476  1.3048 -2.1173
17944TIP3    H275248   5.208   5.481  11.724 -1.7790 -0.3132 -0.8427
17945TIP3   OH275249   5.606   1.526   4.721 -0.2121  0.2422  0.7443
17945TIP3    H175250   5.676   1.465   4.742  0.2715  1.0424  1.5451
17945TIP3    H275251   5.540   1.473   4.676  1.5404 -0.2739 -1.4401
17946TIP3   OH275252   3.537   1.845   3.819 -0.2031  0.1786 -0.2225
17946TIP3    H175253   3.463   1.791   3.791  0.9311 -1.4936 -0.1054
17946TIP3    H275254   3.615   1.793   3.797  0.8676  0.7787  1.9192
17947TIP3   OH275255   2.296   1.874   3.500  0.2357 -0.4266 -0.7915
17947TIP3    H175256   2.208   1.853   3.529  1.0792 -1.1228  1.4448
17947TIP3    H275257   2.331   1.932   3.567  1.9876 -1.3881 -0.8128
17948TIP3   OH275258   4.063   3.121  13.867 -0.7833  0.1811  0.5641
17948TIP3    H175259   4.132   3.130  13.802 -0.5217 -3.0169  0.2338
17948TIP3    H275260   3.997   3.186  13.842 -0.0521  0.0114 -2.0334
17949TIP3   OH275261   4.210   6.135   4.080  0.4258 -0.4056  0.4884
17949TIP3    H175262   4.172   6.187   4.009 -0.6160  0.5333  1.6843
17949TIP3    H275263   4.136   6.117   4.138  0.9460 -2.4435  0.6089
17950TIP3   OH275264   4.997   4.690   5.435 -0.4269  0.0207  0.4290
17950TIP3    H175265   5.089   4.670   5.454  0.0952  2.1845  0.3503
17950TIP3    H275266   4.990   4.678   5.340 -0.8929 -2.4380  0.6864
17951TIP3   OH275267   4.703   1.052  13.649 -0.0712  0.4166 -0.3269
17951TIP3    H175268   4.680   1.140  13.620 -0.3357  0.2492 -0.6263
17951TIP3    H275269   4.623   1.017  13.687 -0.0571  0.1756 -0.5207
17952TIP3   OH275270   3.630   1.657   4.104 -0.4260  0.4867 -0.5490
17952TIP3    H175271   3.560   1.671   4.168 -1.5525  0.1614 -1.6500
17952TIP3    H275272   3.586   1.612   4.031  0.8210  0.7599 -1.5024
17953TIP3   OH275273   0.601   0.202  15.036 -0.1092 -0.2137 -0.2381
17953TIP3    H175274   0.667   0.247  15.089  0.3228  0.3119 -1.1930
17953TIP3    H275275   0.523   0.256  15.045  0.2568  0.4603 -0.9502
17954TIP3   OH275276   1.099   5.967   3.559 -0.3481  1.2523  0.0454
17954TIP3    H175277   1.019   5.939   3.516 -0.0981  0.3379  0.1595
17954TIP3    H275278   1.127   6.044   3.509 -1.4751  1.8018  0.2270
17955TIP3   OH275279   2.793   0.229  16.518 -0.3639 -0.4754 -0.3654
17955TIP3    H175280   2.698   0.239  16.505 -0.3368 -1.7680 -1.8502
17955TIP3    H275281   2.832   0.276  16.445  0.1141 -0.6755 -0.2413
17956TIP3   OH275282   5.707   2.816   0.051  0.2275 -0.7215 -0.5715
17956TIP3    H175283   5.757   2.770  -0.016  2.1697  1.0488 -0.4285
17956TIP3    H275284   5.678   2.747   0.111  1.6175 -1.9309 -1.2332
17957TIP3   OH275285   0.558   3.431   1.849 -1.0901  0.4811  0.5624
17957TIP3    H175286   0.607   3.475   1.780 -2.4327  0.8362 -0.1960
17957TIP3    H275287   0.500   3.371   1.802 -0.3469 -1.0202  1.5123
17958TIP3   OH275288   0.374   5.355  10.514  0.0304  0.1964  0.0629
17958TIP3    H175289   0.338   5.294  10.579  2.4413 -0.7558  0.6023
17958TIP3    H275290   0.467   5.332  10.509  0.2523  1.3879 -2.4978
17959TIP3   OH275291   6.383   5.823  10.671  0.0720 -0.0086 -0.5558
17959TIP3    H175292   6.313   5.766  10.703  0.6233 -0.1223  0.4709
17959TIP3    H275293   6.339   5.885  10.612 -1.2200  1.1702  1.5483
17960TIP3   OH275294   3.127   0.245  14.445 -0.2829  0.6533  0.0978
17960TIP3    H175295   3.084   0.161  14.459 -1.8696  1.5330  0.7692
17960TIP3    H275296   3.117   0.291  14.528  0.0591  1.7263 -0.4346
17961TIP3   OH275297   3.079   2.804  12.113 -0.1074  0.1561  0.1174
17961TIP3    H175298   3.120   2.813  12.199 -0.6017  0.4287  0.3291
17961TIP3    H275299   3.152   2.784  12.054  0.1414 -0.6807  0.6993
17962TIP3   OH275300   6.739   4.658  16.294  0.1450 -0.6619 -0.2729
17962TIP3    H175301   6.699   4.604  16.226  0.0895 -0.4978 -0.3702
17962TIP3    H275302   6.681   4.649  16.370 -0.0724 -0.4265 -0.4128
17963TIP3   OH275303   0.415   0.074  17.158  0.5121 -0.3295 -0.0197
17963TIP3    H175304   0.431   0.021  17.236 -2.8540 -2.7887 -0.7769
17963TIP3    H275305   0.324   0.103  17.167  0.8601  1.5463 -1.8320
17964TIP3   OH275306   0.931   3.899  16.746 -0.3745  0.1875 -0.1792
17964TIP3    H175307   0.861   3.957  16.718 -0.6942 -0.5575 -0.9837
17964TIP3    H275308   0.925   3.824  16.686  1.9130  0.6810 -1.1249
17965TIP3   OH275309   4.776   0.252  14.370  0.7786 -0.0110  0.1208
17965TIP3    H175310   4.866   0.281  14.354  0.5532  1.1163  0.7733
17965TIP3    H275311   4.743   0.226  14.284  2.1231 -1.6635  0.0575
17966TIP3   OH275312   4.724   2.457   3.182 -0.3143 -0.3684  0.0030
17966TIP3    H175313   4.663   2.435   3.111  0.6116  0.3160 -1.0492
17966TIP3    H275314   4.681   2.528   3.230 -0.2930  0.2272 -0.8333
17967TIP3   OH275315   4.428   4.939  11.811  0.4955 -0.0654 -0.0555
17967TIP3    H175316   4.521   4.950  11.790  0.0791  1.6467 -1.2354
17967TIP3    H275317   4.389   4.910  11.728 -0.0256 -0.8078  0.4422
17968TIP3   OH275318   3.442   3.980  11.034  0.1894  0.0765 -0.5644
17968TIP3    H175319   3.496   3.933  11.097  0.8314  0.4299 -0.8346
17968TIP3    H275320   3.446   3.927  10.954  0.7039  0.4445 -0.7906
17969TIP3   OH275321   0.596   4.119  15.364  0.1023 -0.3222  0.5086
17969TIP3    H175322   0.552   4.201  15.341  0.8745 -0.0082  0.1242
17969TIP3    H275323   0.572   4.105  15.456  1.0705  1.0691  1.0185
17970TIP3   OH275324   2.196   3.817   4.681 -0.1272  0.0689  0.7970
17970TIP3    H175325   2.187   3.906   4.717 -0.1278  0.8849 -1.1409
17970TIP3    H275326   2.120   3.770   4.715 -1.7732  1.6614 -0.5276
17971TIP3   OH275327   2.670   5.328  15.615  0.3233  0.0845  0.7098
17971TIP3    H175328   2.643   5.413  15.580 -1.7587 -0.7773  0.0669
17971TIP3    H275329   2.708   5.348  15.700 -0.3874  1.6378  0.6964
17972TIP3   OH275330   5.889   3.656   3.691 -0.8258 -0.2115  0.2239
17972TIP3    H175331   5.977   3.641   3.725 -0.3104 -0.0687 -1.0071
17972TIP3    H275332   5.833   3.652   3.769  0.3002  0.1259  1.0825
17973TIP3   OH275333   2.656   3.144   4.188  0.0181  0.7084 -0.0357
17973TIP3    H175334   2.740   3.188   4.187  0.3105  0.1588 -0.5053
17973TIP3    H275335   2.677   3.051   4.174 -0.6531  0.5474 -0.0444
17974TIP3   OH275336   3.857   3.345  17.098  0.3068  0.0996 -0.1467
17974TIP3    H175337   3.847   3.436  17.123 -1.6401 -0.0200 -0.3448
17974TIP3    H275338   3.803   3.335  17.020  1.0084 -1.0784 -0.5090
17975TIP3   OH275339   2.809   4.265   0.702  0.2450 -1.1593 -0.3458
17975TIP3    H175340   2.806   4.293   0.611 -1.3171  1.9569  0.5502
17975TIP3    H275341   2.760   4.183   0.703 -0.4452 -0.8218 -2.1637
17976TIP3   OH275342   0.718   4.434   1.065  0.4317 -0.4012 -0.0205
17976TIP3    H175343   0.730   4.483   0.984 -0.4042 -0.1000  0.0269
17976TIP3    H275344   0.771   4.480   1.130  0.8876 -0.4847 -0.3333
17977TIP3   OH275345   5.512   6.675  15.128 -0.4159  0.2473  0.3203
17977TIP3    H175346   5.578   6.607  15.117  0.0832  0.7437  0.1668
17977TIP3    H275347   5.494   6.705  15.038 -1.0447 -0.0628  0.3370
17978TIP3   OH275348   4.018   6.533  16.469  0.2456  0.3041  0.0880
17978TIP3    H175349   3.965   6.469  16.422  2.0598 -0.2895 -1.2793
17978TIP3    H275350   4.024   6.499  16.558 -2.3161  0.8522  0.5532
17979TIP3   OH275351   2.164   6.387   1.950  0.0171 -0.9577  0.3456
17979TIP3    H175352   2.205   6.310   1.989  0.7945 -0.6826  0.0941
17979TIP3    H275353   2.102   6.418   2.017 -0.5514 -1.9834  0.3127
17980TIP3   OH275354   2.468   2.697   6.226  0.0631 -0.0667  0.4638
17980TIP3    H175355   2.449   2.785   6.193  1.1697  0.2407  0.5964
17980TIP3    H275356   2.489   2.710   6.319 -1.3715 -0.7037  0.9128
17981TIP3   OH275357   1.905   2.642   2.919  0.4149 -0.2451 -0.2390
17981TIP3    H175358   1.832   2.688   2.878  1.6914  1.8462 -0.2862
17981TIP3    H275359   1.942   2.588   2.849  0.2041  0.3028 -0.7773
17982TIP3   OH275360   0.277   1.483   5.217  0.5912  0.0041  0.2032
17982TIP3    H175361   0.333   1.434   5.277  0.5435  0.1452  0.3643
17982TIP3    H275362   0.296   1.575   5.236 -1.7237  0.1537  2.2461
17983TIP3   OH275363   4.809   6.299   0.654  0.5523 -0.2716  0.4368
17983TIP3    H175364   4.744   6.358   0.615 -0.7015 -2.4126 -0.9461
17983TIP3    H275365   4.893   6.339   0.634 -0.2559  1.0699 -0.4289
17984TIP3   OH275366   5.892   6.264  15.113 -0.7470 -0.3866 -0.3925
17984TIP3    H175367   5.942   6.185  15.094 -1.8758 -1.5164  1.0999
17984TIP3    H275368   5.816   6.259  15.054 -0.5344 -0.1206 -0.6906
17985TIP3   OH275369   3.962   0.059  13.312  0.2535 -0.0170  0.1344
17985TIP3    H175370   3.926  -0.018  13.356 -1.7471 -0.1843 -1.6402
17985TIP3    H275371   4.053   0.035  13.292  0.4514 -0.8653  1.8962
17986TIP3   OH275372   6.335   3.305  13.772 -0.1844 -0.0917  0.3603
17986TIP3    H175373   6.407   3.361  13.742 -0.9820 -0.8348 -3.5409
17986TIP3    H275374   6.377   3.223  13.797  0.4668 -0.0781 -0.6375
17987TIP3   OH275375   1.906   2.680   6.651 -0.0863  0.0209  0.3852
17987TIP3    H175376   1.959   2.623   6.595  1.6842 -0.0848  2.0513
17987TIP3    H275377   1.941   2.768   6.635  2.7349 -0.3481  3.5294
17988TIP3   OH275378   6.422   2.211   4.137  0.0458  0.1506 -0.2296
17988TIP3    H175379   6.421   2.217   4.233 -1.3843  1.7048 -0.3086
17988TIP3    H275380   6.468   2.129   4.120  0.7977  0.0872  1.7672
17989TIP3   OH275381   5.834   1.584   2.256 -0.1459  0.2970  0.0239
17989TIP3    H175382   5.756   1.560   2.308 -1.0140  0.3360 -1.2175
17989TIP3    H275383   5.849   1.508   2.200  2.0974 -0.6459  1.7565
17990TIP3   OH275384   0.847   1.302   4.870  0.2822 -0.2570 -0.0042
17990TIP3    H175385   0.847   1.207   4.859  1.5164 -0.3828  0.7881
17990TIP3    H275386   0.852   1.337   4.781  2.7956 -1.0363 -0.2623
17991TIP3   OH275387   6.767   5.523   0.177  0.0305 -0.3310 -0.3526
17991TIP3    H175388   6.746   5.443   0.130  1.8254 -1.1292  0.1227
17991TIP3    H275389   6.814   5.493   0.255  3.0635  1.2559 -1.4456
17992TIP3   OH275390   5.201   1.488   4.295 -0.4010  0.2667  0.2899
17992TIP3    H175391   5.115   1.529   4.306  0.1551  1.3074  0.9206
17992TIP3    H275392   5.236   1.482   4.384  0.0235 -0.5174  0.0771
17993TIP3   OH275393   2.189   4.010  12.295  0.4716 -0.1454  0.5290
17993TIP3    H175394   2.114   3.979  12.244  0.7767 -0.1475  0.0757
17993TIP3    H275395   2.151   4.043  12.376 -0.1326  0.9308 -0.1818
17994TIP3   OH275396   3.668   0.892   1.377 -0.1704 -0.3978  0.6582
17994TIP3    H175397   3.644   0.840   1.454 -0.7918 -0.4015  0.4718
17994TIP3    H275398   3.642   0.981   1.399  1.3834 -0.0515  1.1875
17995TIP3   OH275399   5.422   6.013  15.178 -0.2051  0.0962 -0.0775
17995TIP3    H175400   5.440   5.939  15.236 -0.5152  0.3274  0.3185
17995TIP3    H275401   5.462   6.088  15.222 -2.3688  0.6898  1.0141
17996TIP3   OH275402   0.217   4.382   1.904  0.2322 -0.2636  0.7472
17996TIP3    H175403   0.123   4.367   1.897  0.3218 -0.6563  0.2957
17996TIP3    H275404   0.228   4.476   1.888  0.0893 -0.5369 -1.2834
17997TIP3   OH275405   0.666   6.153  16.554  0.3181 -0.1603  0.2142
17997TIP3    H175406   0.670   6.101  16.473  1.7801  1.3552 -0.7565
17997TIP3    H275407   0.600   6.220  16.536  1.2571  0.7132 -0.1097
17998TIP3   OH275408   0.719   5.520   3.686 -0.1390  0.2294 -0.6966
17998TIP3    H175409   0.769   5.574   3.626 -0.3751  1.8635  0.5054
17998TIP3    H275410   0.776   5.445   3.704  0.8676  0.8543 -1.1859
17999TIP3   OH275411   1.750   1.351  12.334 -0.3137  0.8291 -0.3974
17999TIP3    H175412   1.738   1.347  12.239  2.0454  2.1427 -0.8164
17999TIP3    H275413   1.818   1.287  12.353 -2.3887 -1.1772  0.8383
18000TIP3   OH275414   6.335   1.758   2.122 -0.6497 -0.1317  0.2395
18000TIP3    H175415   6.273   1.733   2.190  0.2808 -1.9890  0.4559
18000TIP3    H275416   6.395   1.819   2.165 -0.6260 -0.5686  0.8343
18001TIP3   OH275417   3.200   2.504  10.450 -0.0916  0.6756 -0.1433
18001TIP3    H175418   3.164   2.416  10.444 -1.6302  1.2101  0.7278
18001TIP3    H275419   3.278   2.494  10.504 -0.9990  0.0301  1.0862
18002TIP3   OH275420   6.149   0.832   0.196  0.2952  0.2079 -0.4309
18002TIP3    H175421   6.111   0.819   0.283 -1.3696 -0.1187 -1.1779
18002TIP3    H275422   6.224   0.890   0.211  0.8788 -0.9306  1.3994
18003TIP3   OH275423   6.136   6.717   2.254  0.3454 -0.1695  0.4584
18003TIP3    H175424   6.094   6.757   2.178 -1.0844  0.5808  1.5939
18003TIP3    H275425   6.225   6.753   2.254 -0.0413  0.8171 -0.1156
18004TIP3   OH275426   1.291   4.255   3.774  0.6762 -0.0948  0.4399
18004TIP3    H175427   1.236   4.328   3.800 -1.5756 -0.8919 -1.6331
18004TIP3    H275428   1.315   4.274   3.683 -0.8024 -2.3095 -0.5035
18005TIP3   OH275429   5.296   5.256   2.443  0.2382 -0.2790  0.6465
18005TIP3    H175430   5.336   5.172   2.468  1.8572  0.1213 -0.4763
18005TIP3    H275431   5.256   5.238   2.357 -0.6980 -0.2620  1.0647
18006TIP3   OH275432   4.814   3.316   3.081  0.2357  0.1527 -0.2362
18006TIP3    H175433   4.909   3.312   3.085  0.3092  1.6620  0.2744
18006TIP3    H275434   4.795   3.404   3.047 -0.9750  0.1707  0.4250
18007TIP3   OH275435   3.816   3.466   2.646  0.3868  0.2099 -0.0502
18007TIP3    H175436   3.778   3.527   2.708  1.6239  0.0752  0.8829
18007TIP3    H275437   3.911   3.472   2.661  0.5684 -4.6683  2.8199
18008TIP3   OH275438   6.727   1.740   3.251  0.0952  0.1272  0.0636
18008TIP3    H175439   6.642   1.764   3.286  0.8770  0.2315  2.0451
18008TIP3    H275440   6.736   1.791   3.171 -0.1986  2.9821  1.7096
18009TIP3   OH275441   5.572   3.994  13.422 -0.0147  0.4655  0.3143
18009TIP3    H175442   5.515   4.064  13.454 -0.3553 -0.1060  0.9959
18009TIP3    H275443   5.659   4.019  13.452  0.1727  1.5179 -1.0269
18010TIP3   OH275444   0.511   2.327   1.231 -0.2260 -0.2244 -0.3634
18010TIP3    H175445   0.594   2.315   1.185  0.0494  0.8392 -0.1632
18010TIP3    H275446   0.502   2.248   1.285  1.6549  0.5259  1.1591
18011TIP3   OH275447   2.549   3.315  11.575  0.5749 -0.2079  0.4263
18011TIP3    H175448   2.565   3.362  11.493 -1.5339 -1.4384 -0.7829
18011TIP3    H275449   2.608   3.240  11.571 -0.5962 -1.1168 -0.7867
18012TIP3   OH275450   3.725   4.985  16.018 -0.5151  0.1360 -0.2607
18012TIP3    H175451   3.671   4.927  16.072  0.5980 -1.0389 -0.3892
18012TIP3    H275452   3.669   5.006  15.943 -1.2480 -0.0285  0.2275
18013TIP3   OH275453   2.724   2.334   0.520  0.6336  0.5995  0.2941
18013TIP3    H175454   2.769   2.301   0.597  1.5173  1.3077  0.1026
18013TIP3    H275455   2.775   2.411   0.494 -0.5379  1.2706 -0.0864
18014TIP3   OH275456   1.107   5.319   1.474 -0.7340 -0.3720 -0.0618
18014TIP3    H175457   1.192   5.343   1.438  0.0920 -1.4003  1.1369
18014TIP3    H275458   1.044   5.346   1.406  0.5604  0.0338 -1.1426
18015TIP3   OH275459   1.557   5.546   1.810  0.0376 -0.0227 -0.2056
18015TIP3    H175460   1.514   5.629   1.792  0.4739  0.2730  0.1045
18015TIP3    H275461   1.632   5.544   1.750  0.0163 -0.2056 -0.2284
18016TIP3   OH275462   4.624   1.303   4.446 -0.1769  0.0826 -0.0893
18016TIP3    H175463   4.618   1.210   4.425  0.0622 -0.0581  0.4697
18016TIP3    H275464   4.537   1.326   4.478 -0.1739  0.0002 -0.0217
18017TIP3   OH275465   3.215   0.322  11.963 -0.3518  0.1425  0.2341
18017TIP3    H175466   3.136   0.375  11.951  0.2656  0.7699 -1.2968
18017TIP3    H275467   3.262   0.367  12.033 -0.0938  1.3425 -0.6778
18018TIP3   OH275468   1.220   0.431  13.718  0.0652  0.3385 -0.3777
18018TIP3    H175469   1.217   0.513  13.669 -1.5115 -0.0439 -0.9853
18018TIP3    H275470   1.211   0.457  13.810 -0.7046  0.8224 -0.5888
18019TIP3   OH275471   6.393   6.563  11.504  0.1467  0.3400 -0.2393
18019TIP3    H175472   6.326   6.522  11.448  1.8774 -2.1348 -0.6510
18019TIP3    H275473   6.344   6.593  11.581 -1.5197 -1.1110 -0.6441
18020TIP3   OH275474   3.308   1.245  11.664 -0.3205  0.4258 -0.3966
18020TIP3    H175475   3.308   1.182  11.737 -2.4986  0.0466 -0.6600
18020TIP3    H275476   3.359   1.202  11.595  0.0599 -0.0859  0.1930
18021TIP3   OH275477   2.297   5.566   5.531 -0.3699 -0.3699  1.0505
18021TIP3    H175478   2.247   5.564   5.612 -1.4102  1.4588  0.5006
18021TIP3    H275479   2.246   5.622   5.472  2.0216  1.1564  0.2801
18022TIP3   OH275480   4.105   6.690   5.485  0.2392  0.1137  0.0244
18022TIP3    H175481   4.027   6.691   5.541  0.3306  0.0258  0.1531
18022TIP3    H275482   4.072   6.665   5.398  0.4348 -2.2960  0.5678
18023TIP3   OH275483   5.397   1.323   4.691 -0.0039 -0.4564 -0.4692
18023TIP3    H175484   5.396   1.240   4.643 -0.6919 -0.6852 -0.0807
18023TIP3    H275485   5.319   1.370   4.660 -0.1342 -0.3586 -0.0150
18024TIP3   OH275486   2.354   5.872  12.292 -0.2702 -0.4740  0.1189
18024TIP3    H175487   2.402   5.853  12.373 -0.5147 -1.6634 -0.0023
18024TIP3    H275488   2.420   5.911  12.234  0.0244 -0.0867  0.7034
18025TIP3   OH275489   6.387   4.041   4.897  0.3510  0.5777 -0.1660
18025TIP3    H175490   6.429   3.979   4.957  2.6554  0.3082 -1.9301
18025TIP3    H275491   6.376   4.121   4.949  0.7565 -0.1466  1.0690
18026TIP3   OH275492   6.424   2.638  12.658  0.2136  0.4262 -0.4870
18026TIP3    H175493   6.461   2.672  12.576  0.3972  0.3467 -0.4368
18026TIP3    H275494   6.388   2.715  12.702  1.1893  0.6667 -0.0740
18027TIP3   OH275495   3.990   6.617  17.229 -0.6871 -0.6496 -0.1368
18027TIP3    H175496   3.989   6.523  17.251  1.4058 -1.4597 -2.8955
18027TIP3    H275497   3.942   6.622  17.146  1.1083  0.2884 -1.1798
18028TIP3   OH275498   5.292   5.133  14.165 -0.3086  0.1191  0.0655
18028TIP3    H175499   5.288   5.115  14.071  0.4699 -2.3675  0.4366
18028TIP3    H275500   5.385   5.146  14.183  0.1688 -3.6363  1.0691
18029TIP3   OH275501   2.195   5.418  13.080  0.3894  0.2383  0.1271
18029TIP3    H175502   2.110   5.402  13.040  0.5461 -1.3867  0.3687
18029TIP3    H275503   2.192   5.370  13.163  0.9877  1.4635  0.8942
18030TIP3   OH275504   0.649   0.668  16.283  1.1713 -0.0375  0.5075
18030TIP3    H175505   0.694   0.743  16.323  0.9582  0.4987 -0.2258
18030TIP3    H275506   0.557   0.694  16.280  1.4276  0.9521 -2.3571
18031TIP3   OH275507   6.561   2.553  14.209  0.4155 -0.4681 -0.0617
18031TIP3    H175508   6.592   2.463  14.221 -0.2532 -0.7923 -0.6388
18031TIP3    H275509   6.607   2.604  14.275  1.3370 -1.1163 -0.1913
18032TIP3   OH275510   6.694   3.664  11.817 -0.0177 -0.0848  0.0739
18032TIP3    H175511   6.708   3.651  11.723  0.6389  1.1399 -0.0145
18032TIP3    H275512   6.768   3.619  11.858 -0.1784 -0.4206  0.0043
18033TIP3   OH275513   2.190   5.301  16.245 -0.2659  0.2228  0.1446
18033TIP3    H175514   2.114   5.263  16.202 -0.9670  0.3602  1.2279
18033TIP3    H275515   2.263   5.284  16.185 -1.1247  0.0049 -0.8568
18034TIP3   OH275516   3.758   4.834  12.752  0.0909  0.1790  0.8004
18034TIP3    H175517   3.841   4.881  12.765  0.2724  0.1336 -0.1399
18034TIP3    H275518   3.783   4.742  12.757  0.1339  0.1630  0.3492
18035TIP3   OH275519   4.306   1.474  13.250  0.1780  0.1846  0.3146
18035TIP3    H175520   4.227   1.461  13.304 -0.2697 -0.1441 -0.4102
18035TIP3    H275521   4.374   1.498  13.313 -0.5428  0.6556  0.9318
18036TIP3   OH275522   5.787   5.182   0.517  0.0632  0.4795 -0.5731
18036TIP3    H175523   5.800   5.090   0.492  0.3689  0.4039 -0.1426
18036TIP3    H275524   5.808   5.231   0.437 -1.7652  0.0994 -1.3462
18037TIP3   OH275525   0.101   5.251  14.300 -0.4218 -0.0418  0.8247
18037TIP3    H175526   0.135   5.339  14.282 -0.6144  0.0909  1.0918
18037TIP3    H275527   0.045   5.263  14.377 -0.6125 -0.3625  0.7373
18038TIP3   OH275528   3.025   0.004   0.721  0.3133  0.6041 -0.0758
18038TIP3    H175529   2.984   0.014   0.635  1.3612 -2.0679 -0.9848
18038TIP3    H275530   2.995  -0.082   0.752  1.9466  0.4081  1.0642
18039TIP3   OH275531   4.447   5.038   3.564  0.1193 -0.4743  0.7968
18039TIP3    H175532   4.488   5.102   3.623  2.5488  1.2104 -2.3789
18039TIP3    H275533   4.382   5.089   3.515  1.3666 -0.5419 -1.0560
18040TIP3   OH275534   2.100   4.655   3.377  0.6151  0.3796  0.0429
18040TIP3    H175535   2.079   4.600   3.301  0.2479  1.3478 -0.5780
18040TIP3    H275536   2.091   4.745   3.345 -0.9086  0.8368  1.5881
18041TIP3   OH275537   3.428   5.633   2.477  0.3459  0.1189 -0.2096
18041TIP3    H175538   3.348   5.670   2.513 -0.1593 -0.4062 -0.7868
18041TIP3    H275539   3.432   5.665   2.387  0.0209 -1.0273 -0.6446
18042TIP3   OH275540   2.373   4.313  14.569  0.7126 -0.3583 -0.6136
18042TIP3    H175541   2.301   4.372  14.587 -0.0386 -1.3223 -0.3828
18042TIP3    H275542   2.337   4.249  14.508  1.3078 -0.9595 -0.3460
18043TIP3   OH275543   2.697   5.934  14.221  0.5750 -0.1706 -0.3144
18043TIP3    H175544   2.720   5.858  14.167 -1.5169 -1.2611  0.2140
18043TIP3    H275545   2.601   5.931  14.226  0.4783  2.2398  0.1409
18044TIP3   OH275546   0.973   3.737  15.545 -0.2304 -0.5339  0.4968
18044TIP3    H175547   1.010   3.651  15.525 -0.5481 -0.5664  0.0173
18044TIP3    H275548   1.032   3.775  15.610  0.6690 -0.5626 -0.2765
18045TIP3   OH275549   3.258   4.881  12.103  0.0362 -0.2950 -0.6008
18045TIP3    H175550   3.204   4.905  12.179 -0.6490 -1.9461 -0.5140
18045TIP3    H275551   3.194   4.863  12.034  0.5219 -1.2809 -0.8062
18046TIP3   OH275552   4.055   1.777  12.809  0.4300  0.0299 -0.1094
18046TIP3    H175553   4.124   1.812  12.752  1.5625 -0.3106  1.0002
18046TIP3    H275554   4.102   1.736  12.882 -0.9494  0.2863  0.9881
18047TIP3   OH275555   1.110   5.309   2.293  0.2913  0.0304 -0.3461
18047TIP3    H175556   1.055   5.337   2.219  0.8384  1.9084 -0.0900
18047TIP3    H275557   1.084   5.218   2.309  0.1902 -0.4790 -2.8804
18048TIP3   OH275558   0.721   6.488  15.149  0.2112 -0.4731 -0.0035
18048TIP3    H175559   0.814   6.465  15.140 -0.2417 -2.4312 -0.2488
18048TIP3    H275560   0.675   6.406  15.130 -1.5395  0.2576  0.8840
18049TIP3   OH275561   2.130   1.289   4.832  0.4007 -0.4293 -0.1924
18049TIP3    H175562   2.179   1.322   4.907 -0.8462 -0.9089  0.8637
18049TIP3    H275563   2.118   1.365   4.775  0.9472  0.0383  0.3124
18050TIP3   OH275564   6.377   5.627  13.434 -0.3486 -0.0595 -0.3607
18050TIP3    H175565   6.297   5.639  13.384 -0.1295  0.2590 -0.6407
18050TIP3    H275566   6.436   5.695  13.402 -0.9968  1.7404  1.9666
18051TIP3   OH275567   6.567   2.556  16.537 -0.1457  0.4534  0.4252
18051TIP3    H175568   6.557   2.622  16.469 -1.2576  1.3269  1.3916
18051TIP3    H275569   6.636   2.591  16.594 -1.1447  1.1126  1.2679
18052TIP3   OH275570   3.074   3.793   5.290  0.2876  0.0644 -0.2940
18052TIP3    H175571   3.070   3.740   5.210  1.5169  0.7459 -0.8296
18052TIP3    H275572   3.094   3.730   5.359  0.1459 -0.3978 -0.6651
18053TIP3   OH275573   6.317   0.701  13.348  0.0019 -0.2719 -0.0273
18053TIP3    H175574   6.302   0.789  13.382  2.8143 -0.7589  3.0266
18053TIP3    H275575   6.250   0.647  13.391 -0.7633  0.1075 -0.7149
18054TIP3   OH275576   6.412   3.155   2.115  0.6084 -0.0399 -0.2458
18054TIP3    H175577   6.501   3.188   2.109  0.6816 -0.2254 -0.1990
18054TIP3    H275578   6.421   3.059   2.112  0.5564 -0.1362  1.4752
18055TIP3   OH275579   0.591   4.239  14.016  0.0851 -0.1400 -0.5432
18055TIP3    H175580   0.514   4.248  14.073 -0.0103  0.0533 -0.7002
18055TIP3    H275581   0.564   4.175  13.950  1.0740 -2.3549  1.1000
18056TIP3   OH275582   2.124   1.469   4.615  0.3101 -0.0681 -0.5416
18056TIP3    H175583   2.131   1.403   4.546  1.2449  0.1765 -0.6935
18056TIP3    H275584   2.128   1.552   4.569  0.7787  0.0964 -0.2085
18057TIP3   OH275585   2.979   3.696  12.174  0.3675 -0.0102  0.3292
18057TIP3    H175586   2.957   3.716  12.265 -0.4659 -1.6446  0.5235
18057TIP3    H275587   2.903   3.648  12.142  0.1704  1.4674 -1.5941
18058TIP3   OH275588   2.105   6.268   1.693  0.5629 -0.2649 -0.2406
18058TIP3    H175589   2.112   6.256   1.788  0.6444 -1.1621 -0.3464
18058TIP3    H275590   2.190   6.304   1.667  0.5973 -0.1672  0.0068
18059TIP3   OH275591   0.319   0.713   4.987 -0.2633 -0.1563 -0.7411
18059TIP3    H175592   0.290   0.702   4.897  1.4736 -0.2921 -1.3107
18059TIP3    H275593   0.261   0.656   5.038 -0.4566 -1.0497 -1.9183
18060TIP3   OH275594   3.537   4.886  14.666  0.1693 -0.4964 -0.6460
18060TIP3    H175595   3.475   4.957  14.653  1.1131  0.5671  0.4091
18060TIP3    H275596   3.486   4.806  14.653 -1.4056  0.3442  0.1418
18061TIP3   OH275597   5.190   2.030  14.887 -0.2949  0.0911  0.0107
18061TIP3    H175598   5.225   1.945  14.860  0.6394  0.1474  0.9879
18061TIP3    H275599   5.106   2.010  14.927  0.3351 -0.4897  1.0723
18062TIP3   OH275600   0.250   2.016  13.145  0.4607  0.2898  0.0838
18062TIP3    H175601   0.267   2.055  13.059 -0.1626  2.7454  0.9945
18062TIP3    H275602   0.155   2.021  13.154  0.5621  0.4785  1.0901
18063TIP3   OH275603   5.412   4.947   1.311  0.1425 -0.2904  0.0682
18063TIP3    H175604   5.356   5.012   1.353  0.7437  0.2298  0.0758
18063TIP3    H275605   5.497   4.990   1.302  0.8386 -1.4215  0.9809
18064TIP3   OH275606   5.262   4.110   3.527 -0.8894 -0.1518 -0.8229
18064TIP3    H175607   5.256   4.050   3.453  3.0728 -2.6719  0.5432
18064TIP3    H275608   5.330   4.173   3.502 -0.6640 -0.0343  0.0379
18065TIP3   OH275609   0.934   6.727  17.250  0.3523  0.2261 -0.0385
18065TIP3    H175610   0.932   6.817  17.283 -0.4829 -0.8070  3.0465
18065TIP3    H275611   1.024   6.698  17.264  0.1776  0.0231  0.6901
18066TIP3   OH275612   0.720   4.478  11.382 -0.1178 -0.1063 -0.0917
18066TIP3    H175613   0.653   4.546  11.387  0.8075  0.8531 -0.4322
18066TIP3    H275614   0.721   4.452  11.289 -0.1509 -0.2573 -0.0499
18067TIP3   OH275615   5.649   0.634   0.121 -0.0308 -0.3305  0.3549
18067TIP3    H175616   5.561   0.671   0.123  0.3635  0.7624 -0.8953
18067TIP3    H275617   5.706   0.707   0.144  0.7592 -0.0561 -2.1402
18068TIP3   OH275618   4.612   0.457   0.929  0.2962  0.2668 -0.1511
18068TIP3    H175619   4.699   0.486   0.955  0.4594  1.2224 -1.6183
18068TIP3    H275620   4.595   0.504   0.847 -2.1887  1.2287  0.8175
18069TIP3   OH275621   5.387   4.818   3.001 -0.6414  0.1166  0.2698
18069TIP3    H175622   5.399   4.845   3.092  0.9887  1.1066 -0.2049
18069TIP3    H275623   5.454   4.866   2.952  0.5605 -2.6453 -1.0500
18070TIP3   OH275624   0.630   6.267  11.058  0.0058  0.3229  0.5026
18070TIP3    H175625   0.659   6.202  11.122 -0.2385  1.5598  1.9481
18070TIP3    H275626   0.708   6.321  11.042 -0.4156  1.1834  1.2682
18071TIP3   OH275627   1.491   6.159  13.650  0.0592  0.3386 -0.5326
18071TIP3    H175628   1.509   6.071  13.681 -1.0075  1.0066  2.2989
18071TIP3    H275629   1.569   6.183  13.600  0.9455 -1.7068 -0.2500
18072TIP3   OH275630   1.520   4.143  16.868 -0.9889  0.7255 -0.3729
18072TIP3    H175631   1.493   4.223  16.823 -0.2053  1.6173  0.6841
18072TIP3    H275632   1.612   4.132  16.845 -1.2766 -0.2968 -1.0956
18073TIP3   OH275633   5.866   1.478  11.818  0.2819  0.2911 -0.4248
18073TIP3    H175634   5.836   1.555  11.866  2.8258  0.6297  0.8233
18073TIP3    H275635   5.789   1.423  11.809 -1.0408  1.8197  0.9740
18074TIP3   OH275636   2.810   0.368   0.047 -0.1594  0.3255 -0.1268
18074TIP3    H175637   2.796   0.348   0.139  0.1072  1.6188  0.2111
18074TIP3    H275638   2.780   0.458   0.036  1.2334  0.7345 -0.9356
18075TIP3   OH275639   0.268   4.673   5.113  0.4271 -0.2733  0.3463
18075TIP3    H175640   0.345   4.694   5.167  1.9264 -1.7421 -1.1024
18075TIP3    H275641   0.284   4.583   5.083 -3.3549 -1.8641  2.4261
18076TIP3   OH275642   4.848   2.976   3.132  0.2768  0.1553  0.0112
18076TIP3    H175643   4.928   2.924   3.137  0.3371  0.0187 -1.7255
18076TIP3    H275644   4.857   3.041   3.202  2.4747  0.8967 -0.8802
18077TIP3   OH275645   3.470   5.699  14.088  0.2449  0.4174 -0.7841
18077TIP3    H175646   3.538   5.691  14.021  0.8350 -0.7062 -0.0993
18077TIP3    H275647   3.515   5.737  14.163  0.8953 -2.7644  0.5973
18078TIP3   OH275648   3.636   6.558  17.103 -0.3868  0.1344  0.5358
18078TIP3    H175649   3.556   6.586  17.149  0.3032 -0.3824  2.1031
18078TIP3    H275650   3.635   6.608  17.022 -2.3423  0.0995  0.4737
18079TIP3   OH275651   0.446   2.629  13.772  0.5503 -0.0393 -0.1956
18079TIP3    H175652   0.392   2.652  13.847 -0.4497 -0.2030 -0.8469
18079TIP3    H275653   0.512   2.698  13.768 -1.8182  2.3315 -1.5708
18080TIP3   OH275654   6.082   6.013  12.272 -0.0988 -0.0592  0.4824
18080TIP3    H175655   6.048   5.996  12.360 -0.0818 -1.1824  0.2979
18080TIP3    H275656   6.132   5.934  12.251 -1.7080 -0.6768 -1.2891
18081TIP3   OH275657   3.431   1.212  15.717  0.6625 -0.1057  0.1627
18081TIP3    H175658   3.505   1.151  15.723  0.2878 -0.4532  1.4110
18081TIP3    H275659   3.395   1.216  15.805 -0.1761  0.8729 -0.1999
18082TIP3   OH275660   5.654   4.634  12.818  0.4212 -0.3130  0.2838
18082TIP3    H175661   5.643   4.705  12.881 -0.7497  0.8704 -1.2053
18082TIP3    H275662   5.687   4.676  12.739  2.2370 -1.8208  0.1513
18083TIP3   OH275663   2.159   0.967   0.471 -0.0477  0.1046  1.0506
18083TIP3    H175664   2.198   0.900   0.527  0.7316  0.5299  1.0335
18083TIP3    H275665   2.087   0.923   0.426  1.1857 -1.0480  0.1532
18084TIP3   OH275666   6.481   6.588  13.737  0.0508 -0.1309  0.3798
18084TIP3    H175667   6.461   6.615  13.647 -0.5466  1.6770  1.0160
18084TIP3    H275668   6.396   6.563  13.774  0.5138 -2.5653 -0.0236
18085TIP3   OH275669   0.271   5.513   0.688 -0.0212  0.2575  1.0842
18085TIP3    H175670   0.213   5.439   0.708 -0.8621  0.6005  0.0542
18085TIP3    H275671   0.293   5.551   0.773  2.0042 -2.2958  1.8030
18086TIP3   OH275672   4.021   2.060   1.971  0.5190  0.6377 -0.4317
18086TIP3    H175673   4.002   2.008   2.049  1.3349 -1.2038 -1.4080
18086TIP3    H275674   3.937   2.099   1.947  0.0047  0.2402  0.6428
18087TIP3   OH275675   6.269   3.637  15.353 -0.6240 -0.0665 -0.4440
18087TIP3    H175676   6.260   3.542  15.364 -0.5105 -0.5571 -3.7218
18087TIP3    H275677   6.179   3.669  15.346 -0.6813  0.1865  1.1310
18088TIP3   OH275678   5.107   1.679  14.347  0.3064  0.0385  0.3412
18088TIP3    H175679   5.088   1.585  14.339  1.6200 -0.1806 -0.3509
18088TIP3    H275680   5.102   1.696  14.441  0.7468 -0.8914  0.5451
18089TIP3   OH275681   2.588   2.978   3.906  0.6045 -0.0814  0.4021
18089TIP3    H175682   2.588   2.906   3.843 -0.4799  1.6128 -1.6662
18089TIP3    H275683   2.596   2.935   3.991 -0.0285 -2.6348 -0.7235
18090TIP3   OH275684   2.472   0.810  14.390  0.0831 -0.2193 -0.2113
18090TIP3    H175685   2.396   0.771  14.433 -0.0380  0.3949  0.1420
18090TIP3    H275686   2.507   0.872  14.454  0.6524 -0.2137 -0.5212
18091TIP3   OH275687   5.835   6.219   2.479  0.0039  0.3676  0.2828
18091TIP3    H175688   5.878   6.162   2.544  1.9388 -1.9238 -2.7098
18091TIP3    H275689   5.750   6.239   2.517  1.0650 -0.6722  3.5529
18092TIP3   OH275690   5.467   5.690   5.038 -0.1562 -0.2784  0.3012
18092TIP3    H175691   5.481   5.684   5.132 -1.4956  0.0902  0.5543
18092TIP3    H275692   5.378   5.656   5.025 -0.0278 -0.2257 -0.8078
18093TIP3   OH275693   3.675   4.653  10.591  0.1384  0.4722 -0.0192
18093TIP3    H175694   3.698   4.687  10.678  0.0875  4.3552 -1.3306
18093TIP3    H275695   3.758   4.651  10.544 -0.3069  2.2751 -0.9803
18094TIP3   OH275696   1.056   5.570  17.064  0.3399  0.1171 -0.4647
18094TIP3    H175697   1.009   5.533  17.138  0.9076 -0.7074 -0.5103
18094TIP3    H275698   1.140   5.598  17.101  0.1402  0.8433 -0.5491
18095TIP3   OH275699   3.180   0.820  14.801 -0.2956 -0.1895 -0.0917
18095TIP3    H175700   3.158   0.911  14.777  1.5034  0.2633 -0.1370
18095TIP3    H275701   3.149   0.811  14.891 -0.3357  0.5324 -0.0231
18096TIP3   OH275702   6.226   4.017   3.497  0.1391 -0.2640 -0.7057
18096TIP3    H175703   6.166   3.964   3.444 -0.3666 -0.4705  0.0547
18096TIP3    H275704   6.313   3.987   3.473 -0.1512 -2.8825  1.1191
18097TIP3   OH275705   6.434   2.192  13.713  0.0951 -0.7323 -0.4351
18097TIP3    H175706   6.421   2.098  13.730  0.1369 -0.8510 -1.0196
18097TIP3    H275707   6.503   2.194  13.646 -0.2084 -0.3017 -0.7366
18098TIP3   OH275708   1.529   6.754  11.587 -0.2320  0.2022 -0.2437
18098TIP3    H175709   1.453   6.767  11.645  0.2071  1.9932 -0.0155
18098TIP3    H275710   1.494   6.701  11.514 -1.4809  0.2603  0.2766
18099TIP3   OH275711   4.586   6.069   2.323  0.0565  0.7838 -0.3075
18099TIP3    H175712   4.540   6.041   2.403  0.4088  3.2567  0.8510
18099TIP3    H275713   4.518   6.070   2.256 -1.8074  4.3516  1.3513
18100TIP3   OH275714   0.783   6.645   1.447  0.6801 -0.3158  0.1435
18100TIP3    H175715   0.714   6.669   1.385  0.8444  0.1440  0.1366
18100TIP3    H275716   0.832   6.726   1.462  1.6840 -0.7906 -0.4367
18101TIP3   OH275717   3.087   6.006  16.482  0.7924 -0.0934  0.2166
18101TIP3    H175718   3.065   5.920  16.443  0.2425  0.0648  0.1620
18101TIP3    H275719   3.013   6.025  16.540  0.3513  0.8522 -0.6144
18102TIP3   OH275720   0.231   3.690  13.481 -0.5323  0.2336  0.7479
18102TIP3    H175721   0.249   3.766  13.537  1.1754 -1.1738  2.2449
18102TIP3    H275722   0.297   3.697  13.412  0.8579 -0.7727  1.8999
18103TIP3   OH275723   5.707   0.042   4.834 -0.3790 -0.6412 -0.4722
18103TIP3    H175724   5.630   0.094   4.859  0.3250 -0.0416  0.5267
18103TIP3    H275725   5.748   0.093   4.764 -0.6116 -0.7175 -0.6679
18104TIP3   OH275726   4.964   0.275   5.860  0.2069 -0.0668 -0.8387
18104TIP3    H175727   5.027   0.234   5.919 -0.2932 -1.1665 -1.0412
18104TIP3    H275728   4.949   0.362   5.897 -1.3839 -1.2875  1.6751
18105TIP3   OH275729   5.987   4.395   5.383  0.3253 -0.2385  0.4933
18105TIP3    H175730   5.982   4.351   5.468 -2.2409  0.9740  1.0892
18105TIP3    H275731   5.911   4.362   5.335  0.8625  0.2584 -0.7434
18106TIP3   OH275732   5.702   3.975   4.604  0.6123 -0.0749 -0.0312
18106TIP3    H175733   5.650   3.912   4.554  0.2034  0.1845  0.0542
18106TIP3    H275734   5.727   3.928   4.683 -0.4206  0.1144  0.4370
18107TIP3   OH275735   4.610   3.083  13.494  0.0287  0.0413 -0.1152
18107TIP3    H175736   4.654   3.050  13.416 -0.2454 -0.6944  0.0251
18107TIP3    H275737   4.627   3.177  13.494  1.9838 -0.2681  0.1741
18108TIP3   OH275738   5.508   4.262  11.467  0.1309 -1.0578 -0.1697
18108TIP3    H175739   5.478   4.209  11.540 -0.1367 -0.4467  0.1737
18108TIP3    H275740   5.482   4.213  11.389  0.9190 -1.9917  0.1329
18109TIP3   OH275741   5.739   4.512  16.347  0.2265  0.2239 -0.5820
18109TIP3    H175742   5.702   4.440  16.398  1.4991 -1.6558 -2.1870
18109TIP3    H275743   5.828   4.522  16.380  0.0223  1.1972 -0.2788
18110TIP3   OH275744   4.466   3.056   1.184 -0.3831 -0.7503  0.1639
18110TIP3    H175745   4.413   3.022   1.255  1.0832 -1.0478  1.1690
18110TIP3    H275746   4.528   2.985   1.164  0.5954  0.1040  0.0555
18111TIP3   OH275747   4.406   2.465  11.164  0.1468  0.2436  0.5549
18111TIP3    H175748   4.449   2.440  11.246 -0.8715 -0.4027  0.9121
18111TIP3    H275749   4.458   2.539  11.131  1.1314 -0.0974  1.2866
18112TIP3   OH275750   0.588   2.175  15.721 -0.2273 -0.0824 -0.3887
18112TIP3    H175751   0.648   2.211  15.787  0.3862 -0.8025 -0.5335
18112TIP3    H275752   0.525   2.245  15.704  0.3474  0.5512  0.0545
18113TIP3   OH275753   0.888   4.165  16.850 -0.0228 -0.0906 -0.8560
18113TIP3    H175754   0.795   4.156  16.868  0.3972 -0.5270  1.4618
18113TIP3    H275755   0.921   4.220  16.921  1.3790  0.6739 -2.0359
18114TIP3   OH275756   3.966   3.993  15.780  0.2083  0.7681 -0.0603
18114TIP3    H175757   3.943   3.917  15.833  1.5082 -1.4016 -2.3861
18114TIP3    H275758   3.925   3.976  15.695  3.0603  0.9955 -1.6291
18115TIP3   OH275759   0.236   1.054   4.662  0.1093 -0.4843 -0.0371
18115TIP3    H175760   0.245   1.125   4.598  1.5287 -0.7354 -0.1508
18115TIP3    H275761   0.216   1.098   4.744 -1.5243 -0.1418 -0.5902
18116TIP3   OH275762   5.797   6.274  14.843  0.1193 -0.5716 -0.2310
18116TIP3    H175763   5.773   6.182  14.839  1.0524 -0.9379  1.6953
18116TIP3    H275764   5.777   6.308  14.755 -1.4058 -2.2849 -0.6007
18117TIP3   OH275765   1.655   2.539  11.348 -0.7985 -0.0953 -0.0208
18117TIP3    H175766   1.607   2.461  11.318 -0.8012  0.0369 -0.3620
18117TIP3    H275767   1.739   2.534  11.303 -0.4142 -0.4166  0.7046
18118TIP3   OH275768   3.923   2.338   2.168 -0.4954  0.2466  0.4905
18118TIP3    H175769   3.831   2.352   2.147 -0.4371 -0.3923 -0.2493
18118TIP3    H275770   3.923   2.262   2.226 -0.4605  0.4828  0.8030
18119TIP3   OH275771   3.514   4.650  15.037  0.2172  0.1586  0.7976
18119TIP3    H175772   3.514   4.637  14.942  0.7592  2.1854  0.4612
18119TIP3    H275773   3.427   4.622  15.065  0.1629 -0.7685 -0.2472
18120TIP3   OH275774   1.776   0.770   1.717  0.1262  0.2401 -0.1217
18120TIP3    H175775   1.794   0.686   1.761  1.5114  0.3772 -0.3680
18120TIP3    H275776   1.816   0.835   1.775 -0.6106  0.7067 -0.1280
18121TIP3   OH275777   1.290   6.152  14.529 -0.4277  0.2146 -0.3583
18121TIP3    H175778   1.253   6.085  14.588 -1.0928  1.2635  0.4537
18121TIP3    H275779   1.345   6.103  14.469 -0.4439 -1.0052  0.5849
18122TIP3   OH275780   5.286   6.738  14.094 -0.3425 -0.1719 -0.5783
18122TIP3    H175781   5.230   6.772  14.164  0.4640 -1.5970  0.8294
18122TIP3    H275782   5.367   6.789  14.100  0.6764 -1.8573  1.2120
18123TIP3   OH275783   1.476   5.412  14.272  0.2785  0.3133 -0.1629
18123TIP3    H175784   1.560   5.452  14.296  1.1231 -1.1954 -0.5164
18123TIP3    H275785   1.418   5.433  14.346  1.0373  1.1275  0.2200
18124TIP3   OH275786   4.478   3.074  15.466  0.3523  0.0588 -0.0300
18124TIP3    H175787   4.451   3.144  15.525 -0.3010 -0.3928  0.2168
18124TIP3    H275788   4.422   3.084  15.389  0.9239  0.3936 -0.4161
18125TIP3   OH275789   6.189   0.541  15.832 -0.0246 -0.5959 -0.4329
18125TIP3    H175790   6.248   0.526  15.906 -0.0788 -0.0144 -0.2686
18125TIP3    H275791   6.234   0.501  15.758  0.5740 -0.1716 -0.3043
18126TIP3   OH275792   1.171   5.029   2.137  0.4761 -0.0502  0.0860
18126TIP3    H175793   1.107   5.077   2.084  1.2319  1.0925  0.1941
18126TIP3    H275794   1.131   5.023   2.224 -1.0936 -2.5452 -0.6755
18127TIP3   OH275795   3.921   5.139  16.276  0.4463  0.0416  0.0564
18127TIP3    H175796   3.841   5.177  16.239  0.2802  1.5336  1.7791
18127TIP3    H275797   3.902   5.045  16.281 -1.0418  0.3053 -0.0095
18128TIP3   OH275798   1.799   2.006  16.026 -0.5253  0.6119  0.5198
18128TIP3    H175799   1.820   2.076  16.088 -0.1797  0.4703  0.5610
18128TIP3    H275800   1.883   1.965  16.006 -0.8944 -0.8824  1.7992
18129TIP3   OH275801   2.121   2.174   5.880  0.6129 -0.2255  0.2082
18129TIP3    H175802   2.211   2.176   5.847  0.4236  3.3883 -0.4779
18129TIP3    H275803   2.067   2.160   5.803  0.4967 -0.5408  0.3431
18130TIP3   OH275804   1.888   6.114   5.379  0.1285 -0.0317 -0.1280
18130TIP3    H175805   1.898   6.054   5.305  0.3614 -0.6272  0.3739
18130TIP3    H275806   1.970   6.107   5.427 -0.4430 -0.5295  0.8134
18131TIP3   OH275807   4.520   1.990  15.770 -0.1687  0.1925 -0.4567
18131TIP3    H175808   4.539   1.965  15.680 -1.4729  0.9186 -0.9552
18131TIP3    H275809   4.437   2.037  15.765 -1.0251 -1.0325  1.3252
18132TIP3   OH275810   5.170   6.757  14.899  0.4334 -0.4160  0.4501
18132TIP3    H175811   5.104   6.700  14.858  1.5342 -2.7314  1.7370
18132TIP3    H275812   5.126   6.791  14.977 -0.3892  0.9990 -0.5678
18133TIP3   OH275813   3.228   0.679  13.379  0.4277 -0.2675  0.5531
18133TIP3    H175814   3.268   0.674  13.292 -0.0622 -0.0977  0.3171
18133TIP3    H275815   3.147   0.729  13.366 -0.6747 -1.9214  0.7149
18134TIP3   OH275816   0.584   3.514  13.763 -0.1053 -0.3991  0.2028
18134TIP3    H175817   0.567   3.531  13.671  0.7107 -1.8381 -0.2415
18134TIP3    H275818   0.498   3.492  13.800 -0.4100  0.0349 -0.2455
18135TIP3   OH275819   4.254   1.883   0.782 -0.3697  0.2594  1.0055
18135TIP3    H175820   4.214   1.796   0.785  2.1550 -1.0223  0.6709
18135TIP3    H275821   4.288   1.891   0.693 -1.4070  2.0371  0.7381
18136TIP3   OH275822   3.994   4.615  11.393 -0.2377  0.7079  0.2934
18136TIP3    H175823   4.040   4.653  11.318 -3.3544  0.7449 -1.7934
18136TIP3    H275824   3.972   4.526  11.365 -0.8861  0.4812  1.4648
18137TIP3   OH275825   4.758   3.620  15.152  0.6329  0.2683 -0.4499
18137TIP3    H175826   4.771   3.565  15.230 -0.4123 -0.2947 -0.6459
18137TIP3    H275827   4.768   3.709  15.184  0.7661  0.0249  0.2210
18138TIP3   OH275828   5.838   2.342   0.532  0.4067 -0.2672  0.9033
18138TIP3    H175829   5.882   2.275   0.480  2.8121  0.1202  2.2876
18138TIP3    H275830   5.860   2.320   0.623  0.7604  2.0263  1.4238
18139TIP3   OH275831   2.984   4.599  14.378  0.2846  0.1586  0.4248
18139TIP3    H175832   2.955   4.595  14.287  0.1201  0.9455  0.4302
18139TIP3    H275833   3.075   4.629  14.373 -0.4075  2.4981  0.5759
18140TIP3   OH275834   0.491   5.030  11.566  0.0681 -0.4039 -0.4832
18140TIP3    H175835   0.510   5.081  11.645  0.9713 -1.5144  0.0531
18140TIP3    H275836   0.403   4.995  11.580  0.1800 -0.5014 -0.0190
18141TIP3   OH275837   3.720   0.056  11.809  0.5588 -0.5016 -0.6103
18141TIP3    H175838   3.807   0.046  11.770  1.0453  1.7979 -0.2221
18141TIP3    H275839   3.699  -0.031  11.843  2.7329 -1.0926 -0.6569
18142TIP3   OH275840   2.001   1.541  15.691  0.1972 -0.1659  0.5362
18142TIP3    H175841   1.935   1.511  15.628 -0.0868  1.0218  0.2495
18142TIP3    H275842   2.076   1.565  15.637  0.5312 -0.6297  0.7885
18143TIP3   OH275843   0.449   4.789   1.684 -0.0120 -0.2470 -0.0249
18143TIP3    H175844   0.515   4.723   1.663 -1.0947 -1.0064 -1.1514
18143TIP3    H275845   0.400   4.752   1.757 -0.9199 -0.9498 -0.9567
18144TIP3   OH275846   1.480   1.852  12.921  0.4104  0.2123 -0.2294
18144TIP3    H175847   1.529   1.813  12.993  0.8839 -0.0872 -0.6994
18144TIP3    H275848   1.525   1.934  12.903  0.4659  0.1526 -0.3672
18145TIP3   OH275849   1.551   6.536  11.114 -0.1112 -0.5640  0.8665
18145TIP3    H175850   1.508   6.461  11.073 -1.5359  1.4982 -1.7188
18145TIP3    H275851   1.480   6.594  11.140  0.9533  1.0201  0.4296
18146TIP3   OH275852   3.078   6.478  12.208 -0.1479  0.3673  0.5959
18146TIP3    H175853   3.020   6.546  12.175  0.1951  0.5374  0.3409
18146TIP3    H275854   3.019   6.416  12.252 -0.3521  1.4668  1.9659
18147TIP3   OH275855   3.381   0.698  11.065  0.2620  0.3529 -0.2363
18147TIP3    H175856   3.338   0.612  11.067 -0.0634  0.4908 -0.8679
18147TIP3    H275857   3.313   0.759  11.094 -0.3041  0.6919 -2.1312
18148TIP3   OH275858   0.593   1.012   1.791 -0.2050  0.1469  0.1596
18148TIP3    H175859   0.631   0.932   1.755  1.2874  0.7680  0.2807
18148TIP3    H275860   0.571   0.989   1.881 -1.2473 -0.5648 -0.2583
18149TIP3   OH275861   3.498   5.894  16.246  0.3194 -0.6471  0.1075
18149TIP3    H175862   3.547   5.920  16.168  0.2699 -1.8687 -0.3402
18149TIP3    H275863   3.449   5.973  16.271  1.3644  0.1519 -0.2941
18150TIP3   OH275864   4.011   0.067  15.132  0.0236 -0.1932 -0.5987
18150TIP3    H175865   4.087   0.060  15.073  1.9541 -1.5528  1.8549
18150TIP3    H275866   3.935   0.060  15.074  1.7720 -0.9383 -2.9547
18151TIP3   OH275867   5.643   0.403   4.783  0.0672 -0.1041  0.0385
18151TIP3    H175868   5.597   0.338   4.836  0.8054  0.6437  1.6749
18151TIP3    H275869   5.621   0.487   4.823 -1.0001  0.7310 -2.1309
18152TIP3   OH275870   0.510   1.222   3.485  0.3309 -0.0668  0.5588
18152TIP3    H175871   0.482   1.217   3.577 -0.6651 -0.7474  0.2346
18152TIP3    H275872   0.576   1.153   3.477  0.9496  0.4737  0.9365
18153TIP3   OH275873   1.495   0.674   6.625 -0.7001  0.2682 -0.2803
18153TIP3    H175874   1.519   0.620   6.549  1.7687  1.6433 -0.5983
18153TIP3    H275875   1.508   0.615   6.700 -2.5932 -0.9202 -0.8069
18154TIP3   OH275876   4.584   0.948   3.191 -0.5572  0.0713  0.2726
18154TIP3    H175877   4.606   0.921   3.280 -0.1196 -0.8324 -0.0949
18154TIP3    H275878   4.650   0.905   3.136 -1.2396  0.0491 -0.5466
18155TIP3   OH275879   1.899   0.570  12.073  0.5246  0.8036 -0.1552
18155TIP3    H175880   1.907   0.508  12.001 -0.7365  0.0680  0.3131
18155TIP3    H275881   1.988   0.576  12.110  0.2105 -2.9747  1.6221
18156TIP3   OH275882   0.590   6.473   0.548  0.4086  0.1449  0.2900
18156TIP3    H175883   0.606   6.566   0.569 -0.8234  0.5061 -0.2751
18156TIP3    H275884   0.500   6.458   0.577  0.1548 -0.5160 -0.8088
18157TIP3   OH275885   5.878   1.682   0.864  1.0042  0.2573  0.1113
18157TIP3    H175886   5.954   1.726   0.900  0.6048  0.9831  0.0849
18157TIP3    H275887   5.825   1.659   0.941  0.8020  0.5988  0.0775
18158TIP3   OH275888   4.910   5.581   2.684 -1.0742  0.0792 -0.4649
18158TIP3    H175889   4.949   5.498   2.656 -1.0116 -0.2438  0.5267
18158TIP3    H275890   4.985   5.640   2.695 -1.2080  0.6959 -2.4066
18159TIP3   OH275891   5.549   3.838  12.991 -0.2166 -0.3312  0.1107
18159TIP3    H175892   5.524   3.775  13.059 -1.0710 -0.3766 -0.2361
18159TIP3    H275893   5.564   3.920  13.039  1.0788 -0.8086  0.5878
18160TIP3   OH275894   3.692   6.765  15.660  0.6392 -0.5383 -0.2269
18160TIP3    H175895   3.728   6.853  15.657 -1.1805  0.2229 -1.5612
18160TIP3    H275896   3.750   6.714  15.603  1.6482 -0.2050  0.4854
18161TIP3   OH275897   4.018   5.435  14.493  0.2263  0.1488  0.6415
18161TIP3    H175898   4.045   5.362  14.437  0.7079  0.4585  0.4697
18161TIP3    H275899   4.091   5.497  14.489 -0.3825  0.8705  0.3840
18162TIP3   OH275900   0.368   1.888  11.015  0.0304  0.0002  0.6726
18162TIP3    H175901   0.359   1.797  10.988 -0.2297 -0.2183  1.4672
18162TIP3    H275902   0.456   1.913  10.985 -0.9823  0.4341 -2.1907
18163TIP3   OH275903   0.297   0.404   2.389  0.0612 -0.6744  0.3072
18163TIP3    H175904   0.372   0.447   2.347 -1.3288  1.1596 -0.4380
18163TIP3    H275905   0.337   0.344   2.453  2.1584 -0.4650 -0.7100
18164TIP3   OH275906   1.532   1.193   6.189 -0.1453  0.1774  0.5397
18164TIP3    H175907   1.478   1.131   6.238 -0.8806  0.7544  0.4966
18164TIP3    H275908   1.493   1.278   6.208 -0.5983  0.4042 -1.1981
18165TIP3   OH275909   0.670   0.655  14.371  0.0636  0.3537 -0.6742
18165TIP3    H175910   0.684   0.603  14.450 -0.8778  0.2215 -0.5788
18165TIP3    H275911   0.704   0.601  14.300 -0.6121 -0.2619 -0.5372
18166TIP3   OH275912   5.632   5.547  15.646 -0.0531  0.0858 -0.4829
18166TIP3    H175913   5.646   5.523  15.738 -1.9545  0.0753 -0.1560
18166TIP3    H275914   5.617   5.641  15.647 -0.2455  0.0611 -0.7657
18167TIP3   OH275915   1.543   3.320  16.818  0.6086  0.6475  0.3145
18167TIP3    H175916   1.481   3.246  16.813  2.1092 -0.6267 -0.5494
18167TIP3    H275917   1.491   3.396  16.792 -0.6755 -0.3219 -0.0877
18168TIP3   OH275918   3.938   0.948  11.517 -0.2254 -0.2079 -0.7956
18168TIP3    H175919   3.893   1.017  11.467 -1.6916 -0.3163  0.2935
18168TIP3    H275920   3.870   0.912  11.574  1.6807  1.1102  2.6144
18169TIP3   OH275921   2.792   0.702   3.873  0.3249 -0.3663  0.4144
18169TIP3    H175922   2.823   0.777   3.822 -1.0539  0.2496  0.4279
18169TIP3    H275923   2.746   0.647   3.809 -1.5690  0.4970  0.9575
18170TIP3   OH275924   4.572   5.193   0.074  0.3728 -0.0852 -0.6434
18170TIP3    H175925   4.574   5.257   0.145  2.5611  0.2472 -0.9453
18170TIP3    H275926   4.533   5.240   0.000  0.3548  0.3430 -0.3658
18171TIP3   OH275927   1.203   2.240   1.911 -0.4882 -0.4012 -0.0763
18171TIP3    H175928   1.222   2.288   1.831 -0.5936 -0.5935 -0.2168
18171TIP3    H275929   1.164   2.158   1.881  1.1187 -1.2643  0.0857
18172TIP3   OH275930   0.755   4.916   2.282  0.3480 -0.4214 -0.1342
18172TIP3    H175931   0.762   4.828   2.318  1.9124 -0.4905 -0.5194
18172TIP3    H275932   0.770   4.905   2.188  0.8785  0.2839 -0.1451
18173TIP3   OH275933   5.976   6.249  12.158 -0.5660 -0.3420  0.2815
18173TIP3    H175934   6.011   6.176  12.208  3.2658  1.8966  1.2602
18173TIP3    H275935   5.980   6.220  12.067  2.2660 -0.9674  0.5136
18174TIP3   OH275936   0.570   3.618   1.626 -0.5124 -0.0548 -0.6523
18174TIP3    H175937   0.531   3.688   1.575  0.2837 -0.3706 -1.7328
18174TIP3    H275938   0.654   3.654   1.656 -0.3828 -0.3357 -0.6784
18175TIP3   OH275939   4.100   2.776  16.813 -0.0446 -0.6117 -0.3990
18175TIP3    H175940   4.077   2.717  16.885  2.5588 -1.2278  0.0549
18175TIP3    H275941   4.191   2.752  16.791  0.0885  1.2682 -2.2051
18176TIP3   OH275942   6.597   4.240   5.591  0.2829  0.1272 -0.3618
18176TIP3    H175943   6.559   4.241   5.679 -1.7006 -1.1235 -1.1347
18176TIP3    H275944   6.657   4.165   5.591 -1.3357 -1.2246 -0.6490
18177TIP3   OH275945   3.553   1.299   5.505  0.0297  0.1824  0.1727
18177TIP3    H175946   3.474   1.266   5.547  0.0071 -1.1888 -0.8782
18177TIP3    H275947   3.567   1.240   5.431  1.5795  0.8956 -0.1391
18178TIP3   OH275948   1.213   5.839   0.360  0.1163 -0.3684 -0.5107
18178TIP3    H175949   1.292   5.801   0.398 -1.5879 -2.1834  1.5450
18178TIP3    H275950   1.202   5.793   0.276  0.3279 -1.3891  0.0090
18179TIP3   OH275951   0.130   2.106   3.987  0.3749  0.1400  0.2905
18179TIP3    H175952   0.156   2.058   3.908 -1.9933  0.0364 -0.5261
18179TIP3    H275953   0.091   2.187   3.955  2.6581  1.8864  1.5891
18180TIP3   OH275954   0.503   0.402   5.696  0.0930  0.3288  0.2210
18180TIP3    H175955   0.567   0.367   5.634  0.3343  0.3405  0.4589
18180TIP3    H275956   0.440   0.449   5.642  0.2269  0.2257 -0.0269
18181TIP3   OH275957   4.151   4.206  15.819 -0.4570 -0.2071 -0.1275
18181TIP3    H175958   4.154   4.230  15.726 -0.7021 -1.7710 -0.5727
18181TIP3    H275959   4.111   4.119  15.819 -2.8958  0.8272  1.6621
18182TIP3   OH275960   3.241   3.371  16.528  0.3238  0.0730  0.5230
18182TIP3    H175961   3.256   3.294  16.473 -1.4700 -0.1427  0.2638
18182TIP3    H275962   3.255   3.339  16.617 -0.5890 -0.6395  0.4342
18183TIP3   OH275963   0.524   3.667   1.360  0.1013 -0.0391  0.1269
18183TIP3    H175964   0.452   3.714   1.318  0.3356 -0.3319 -0.6226
18183TIP3    H275965   0.510   3.576   1.336  0.8066 -0.0811 -0.1554
18184TIP3   OH275966   5.044   6.711  13.901  0.4308 -0.2416 -0.2975
18184TIP3    H175967   5.028   6.670  13.816  1.7092 -1.6242  0.0846
18184TIP3    H275968   5.053   6.637  13.961  0.5027  0.6934  0.8718
18185TIP3   OH275969   3.938   6.227   2.569 -0.6705  0.3154  0.5853
18185TIP3    H175970   3.857   6.277   2.565 -1.2827 -0.7048 -0.1392
18185TIP3    H275971   3.950   6.192   2.481  0.1518 -0.1711  0.8747
18186TIP3   OH275972   6.024   1.286   0.511 -0.2956 -0.8781  0.3299
18186TIP3    H175973   6.005   1.368   0.556 -0.6538  0.3982 -1.9901
18186TIP3    H275974   6.106   1.255   0.550 -1.0277 -0.3507  2.4115
18187TIP3   OH275975   5.142   6.601   4.607 -0.3397 -0.5313 -0.1348
18187TIP3    H175976   5.202   6.564   4.671  0.7984 -1.6077 -1.7597
18187TIP3    H275977   5.097   6.671   4.655  0.9781 -0.8016  1.6091
18188TIP3   OH275978   5.572   2.947  13.530  0.1960  0.1861  0.4040
18188TIP3    H175979   5.505   2.958  13.463  0.1424 -0.5409  0.3295
18188TIP3    H275980   5.636   3.015  13.511 -0.4166  0.7631  0.3553
18189TIP3   OH275981   5.700   1.388   3.374  0.6315 -0.1452 -0.3769
18189TIP3    H175982   5.659   1.456   3.321 -0.4767 -0.8786 -0.5064
18189TIP3    H275983   5.672   1.306   3.332  0.9068 -0.7074  0.5181
18190TIP3   OH275984   5.988   6.055  14.948  0.0669  0.2237  0.3860
18190TIP3    H175985   5.939   5.975  14.966 -0.0094  0.1302 -0.2143
18190TIP3    H275986   5.980   6.067  14.853  2.5937 -0.7137 -0.0285
18191TIP3   OH275987   2.687   5.366  13.718  0.0363  0.4731 -0.1876
18191TIP3    H175988   2.623   5.332  13.781  0.8542  2.8369  2.1228
18191TIP3    H275989   2.658   5.455  13.701  1.3659  0.7608 -1.0438
18192TIP3   OH275990   6.031   5.379  11.619  0.2992  0.0069 -0.0149
18192TIP3    H175991   6.054   5.447  11.683  1.3449 -1.3128  1.0677
18192TIP3    H275992   6.113   5.331  11.605 -0.4203 -1.0494 -0.7359
18193TIP3   OH275993   3.817   6.254   5.248  0.4800  0.0690 -0.2436
18193TIP3    H175994   3.738   6.227   5.200  0.1007  0.4974  0.1384
18193TIP3    H275995   3.804   6.221   5.336  0.9185 -0.2167 -0.2853
18194TIP3   OH275996   3.338   3.236   0.521  0.2230 -0.3668 -0.2081
18194TIP3    H175997   3.352   3.324   0.556  1.4048  0.1426 -1.8784
18194TIP3    H275998   3.312   3.250   0.430 -1.1616 -1.7125 -0.0619
18195TIP3   OH275999   5.614   3.838  14.638  0.3150 -0.0603 -0.4023
18195TIP3    H176000   5.703   3.805  14.647  0.1456 -0.8874 -1.5168
18195TIP3    H276001   5.559   3.762  14.657 -0.1110  0.0331 -1.1976
18196TIP3   OH276002   4.628   1.231   0.149  0.0707  0.0042 -0.3465
18196TIP3    H176003   4.692   1.208   0.082  0.6256 -0.5318  0.3560
18196TIP3    H276004   4.667   1.304   0.196 -0.9529  1.3478 -1.4974
18197TIP3   OH276005   5.993   4.707   5.191 -0.1288  0.4452  0.2724
18197TIP3    H176006   6.025   4.775   5.133 -2.0555  0.9024 -0.2993
18197TIP3    H276007   5.925   4.662   5.142  2.1601 -3.0938 -0.0614
18198TIP3   OH276008   1.485   3.937   0.924  0.2860 -0.6223  0.2557
18198TIP3    H176009   1.471   3.879   0.849  0.9967 -0.4915  0.0116
18198TIP3    H276010   1.432   3.899   0.994 -2.5654  0.7021 -0.9945
18199TIP3   OH276011   6.669   0.609   1.066  0.3594  0.2497  0.1037
18199TIP3    H176012   6.588   0.629   1.113  0.5830 -0.6040  0.8836
18199TIP3    H276013   6.699   0.526   1.104 -0.2274 -1.2899 -2.5285
18200TIP3   OH276014   6.703   6.172   5.699  0.5651  0.2237 -0.1714
18200TIP3    H176015   6.680   6.264   5.710 -0.3994  0.0847 -0.8857
18200TIP3    H276016   6.743   6.168   5.612  1.1550  0.0537  0.0982
18201TIP3   OH276017   1.652   4.192  11.107  0.2943  0.2031 -0.3558
18201TIP3    H176018   1.692   4.249  11.042  1.4001 -1.0720 -0.8470
18201TIP3    H276019   1.570   4.235  11.129 -0.0377  0.7650 -2.4626
18202TIP3   OH276020   5.987   0.454  13.107 -0.0787  0.0921  0.9935
18202TIP3    H176021   6.031   0.529  13.068 -2.7094  0.6977 -1.1213
18202TIP3    H276022   6.013   0.379  13.053 -1.0712  0.3468  0.1276
18203TIP3   OH276023   0.822   4.846  13.588 -0.6699 -0.1766  0.3365
18203TIP3    H176024   0.878   4.902  13.535  1.5819 -0.9633  1.7042
18203TIP3    H276025   0.809   4.767  13.535  2.7294 -1.5629  1.2989
18204TIP3   OH276026   1.501   4.196   5.147  0.4735 -0.4646 -0.5017
18204TIP3    H176027   1.464   4.202   5.235 -0.5065 -1.2594 -0.8345
18204TIP3    H276028   1.574   4.135   5.155 -2.6643 -4.7654 -1.0667
18205TIP3   OH276029   2.803   6.029   3.835 -0.4225 -0.0256  0.4888
18205TIP3    H176030   2.732   6.088   3.862  0.2139  1.5088 -1.0391
18205TIP3    H276031   2.865   6.032   3.908 -1.1012  0.0077  1.0744
18206TIP3   OH276032   2.779   1.639   6.007  0.0319 -0.4506  0.1322
18206TIP3    H176033   2.698   1.600   5.976 -0.5541 -0.5247  1.6950
18206TIP3    H276034   2.760   1.669   6.096  1.5336  0.0746  0.3165
18207TIP3   OH276035   0.537   4.204   5.657 -0.3829  0.4056  0.2299
18207TIP3    H176036   0.480   4.277   5.634 -1.0319 -0.1036  0.1988
18207TIP3    H276037   0.528   4.143   5.584 -0.2488  0.0581  0.5018
18208TIP3   OH276038   1.621   5.873   4.081 -0.1794 -0.4628  0.2945
18208TIP3    H176039   1.536   5.893   4.042 -0.7647 -0.9656  1.2774
18208TIP3    H276040   1.670   5.955   4.075 -0.3204 -0.4632 -1.2715
18209TIP3   OH276041   0.342   2.369  16.014  0.2685 -0.0016  0.3751
18209TIP3    H176042   0.362   2.279  16.039  0.6867  0.1893  0.7569
18209TIP3    H276043   0.248   2.377  16.024  0.2532 -0.3440  0.5181
18210TIP3   OH276044   4.121   1.987   4.177  0.3268 -0.3128 -0.4201
18210TIP3    H176045   4.132   1.896   4.204 -1.4629 -0.5461 -0.3498
18210TIP3    H276046   4.030   2.007   4.196  0.7267  1.5670 -0.2797
18211TIP3   OH276047   1.995   4.462  15.945 -0.8849 -0.1581 -0.3634
18211TIP3    H176048   2.006   4.384  15.890 -0.7848  0.2174 -0.8812
18211TIP3    H276049   2.083   4.498  15.953 -1.1749  0.9112 -1.6362
18212TIP3   OH276050   2.864   0.121   1.018 -0.4146  0.1349  0.0505
18212TIP3    H176051   2.785   0.172   1.006 -0.9409 -0.2235  1.6610
18212TIP3    H276052   2.836   0.030   1.004 -0.7009 -0.1425  2.0264
18213TIP3   OH276053   0.347   6.367   4.864  0.3783 -0.7154 -0.2790
18213TIP3    H176054   0.428   6.321   4.841  2.2004  2.1032  0.0644
18213TIP3    H276055   0.313   6.398   4.780  0.7919 -0.2059 -0.2693
18214TIP3   OH276056   2.385   2.577   3.194  0.0615  0.3121  0.0297
18214TIP3    H176057   2.380   2.488   3.158  0.7480 -0.2548  1.2800
18214TIP3    H276058   2.299   2.614   3.178 -0.8350 -1.1973  1.0354
18215TIP3   OH276059   1.108   4.112   1.455 -0.0027 -0.0425 -0.5285
18215TIP3    H176060   1.042   4.157   1.403 -0.4711 -0.1010  0.0065
18215TIP3    H276061   1.087   4.019   1.446 -0.8801 -0.0032  0.7735
18216TIP3   OH276062   0.285   6.221  16.312  0.1646 -0.6854  1.2042
18216TIP3    H176063   0.349   6.288  16.337 -0.5044  0.3198  0.2892
18216TIP3    H276064   0.200   6.264  16.319 -0.3708 -1.7586  1.6003
18217TIP3   OH276065   6.001   0.415  16.783  0.0944 -0.1738 -0.2344
18217TIP3    H176066   6.007   0.335  16.835 -0.3194  1.6385  2.7829
18217TIP3    H276067   6.078   0.466  16.807 -0.5156  1.0717 -0.8134
18218TIP3   OH276068   6.104   4.342   0.468  0.0678  0.0813 -0.1246
18218TIP3    H176069   6.166   4.273   0.493 -0.0665 -0.2261 -0.6231
18218TIP3    H276070   6.034   4.296   0.422 -0.4733  0.4440  0.3258
18219TIP3   OH276071   2.474   2.577  12.959 -0.1423 -0.4570 -0.0183
18219TIP3    H176072   2.423   2.523  12.899 -1.4077  0.9181 -0.2271
18219TIP3    H276073   2.413   2.598  13.029  0.8165 -0.6034  0.8804
18220TIP3   OH276074   6.034   5.659   2.266  0.2015 -0.3836  0.3997
18220TIP3    H176075   6.006   5.598   2.198 -1.6286  0.2049  0.5658
18220TIP3    H276076   6.115   5.696   2.233 -0.6478 -0.1066 -1.4911
18221TIP3   OH276077   3.796   2.241  11.523 -0.3653 -0.1537  0.1555
18221TIP3    H176078   3.738   2.193  11.582 -1.2421  0.7782  0.0921
18221TIP3    H276079   3.823   2.176  11.458 -0.2283 -0.9353  0.9691
18222TIP3   OH276080   3.782   2.263   3.465  0.7468  0.0411 -0.4126
18222TIP3    H176081   3.780   2.337   3.404  1.0000 -0.4329 -0.9986
18222TIP3    H276082   3.695   2.224   3.457  0.6717  0.1676 -0.2296
18223TIP3   OH276083   5.723   3.057  14.349 -0.0493  0.7033  0.2566
18223TIP3    H176084   5.668   3.132  14.328 -0.7165  0.5650  1.3826
18223TIP3    H276085   5.660   2.988  14.373  0.5323 -0.2927 -0.9552
18224TIP3   OH276086   3.167   4.136   5.008  0.1984 -0.2342 -0.1593
18224TIP3    H176087   3.211   4.110   5.089 -0.0502  0.2058  0.1227
18224TIP3    H276088   3.081   4.094   5.012  0.1097 -0.0501 -0.0950
18225TIP3   OH276089   4.919   2.802   5.548  0.5366 -0.3980  0.2916
18225TIP3    H176090   4.967   2.803   5.465 -0.4018  3.7801 -0.4470
18225TIP3    H276091   4.828   2.787   5.522  0.3470  0.1497  0.6178
18226TIP3   OH276092   1.453   5.510   0.076 -0.7071 -0.2149 -0.3239
18226TIP3    H176093   1.526   5.572   0.082 -0.5779 -0.3098 -0.8554
18226TIP3    H276094   1.490   5.426   0.100 -1.3382  0.1992  2.4577
18227TIP3   OH276095   5.267   4.644  16.348  0.0419 -0.2641  0.3495
18227TIP3    H176096   5.244   4.705  16.418 -1.0547 -0.6325  0.3347
18227TIP3    H276097   5.271   4.698  16.269  0.4628  0.0143  0.5562
18228TIP3   OH276098   0.485   3.874  17.187 -0.3948  0.2672  0.6845
18228TIP3    H176099   0.423   3.813  17.149  0.3773 -1.5105  2.1167
18228TIP3    H276100   0.512   3.930  17.114 -1.4002 -0.8736 -0.6066
18229TIP3   OH276101   1.944   5.983  17.244  0.0803  0.3352 -0.2514
18229TIP3    H176102   1.908   5.956  17.159 -0.5712 -0.3589  0.2251
18229TIP3    H276103   1.944   6.078  17.242 -0.0822  0.3208 -0.9680
18230TIP3   OH276104   5.122   1.852   4.456  0.4166 -0.1572 -0.1362
18230TIP3    H176105   5.153   1.940   4.479  3.1172 -1.0778  0.1282
18230TIP3    H276106   5.090   1.816   4.538 -0.7708  0.5776 -0.2587
18231TIP3   OH276107   0.603   3.558  13.489  0.7018  0.2073  0.2427
18231TIP3    H176108   0.568   3.628  13.433  0.2593  0.6050  0.9991
18231TIP3    H276109   0.698   3.563  13.477  0.5945  0.0135 -0.7915
18232TIP3   OH276110   1.360   1.004  11.514  0.0157 -0.0126 -0.4467
18232TIP3    H176111   1.283   0.958  11.482 -0.8749  0.6967  0.6003
18232TIP3    H276112   1.425   0.993  11.445 -0.6559 -1.5402 -0.8740
18233TIP3   OH276113   4.447   0.875  11.322 -0.0578 -1.0452 -0.2803
18233TIP3    H176114   4.355   0.897  11.309  0.3851  0.2980 -1.3271
18233TIP3    H276115   4.474   0.835  11.239  0.1059 -2.2096  0.3148
18234TIP3   OH276116   5.263   2.200  11.114  0.0664  0.7286  0.4339
18234TIP3    H176117   5.196   2.221  11.049 -0.7543 -1.6365  0.3967
18234TIP3    H276118   5.217   2.197  11.197  0.7064  1.7398  0.8414
18235TIP3   OH276119   4.428   1.114  11.106 -0.2438 -0.7439 -0.5728
18235TIP3    H176120   4.432   1.021  11.129  0.1197 -0.8174 -0.9176
18235TIP3    H276121   4.335   1.133  11.096 -0.3231 -1.0523 -0.4340
18236TIP3   OH276122   0.855   5.306  16.017 -0.6235  0.3523 -0.8549
18236TIP3    H176123   0.906   5.330  15.940  1.5461 -0.5892  0.1979
18236TIP3    H276124   0.840   5.212  16.009  0.7729 -0.0261  0.4382
18237TIP3   OH276125   6.031   5.730  15.169  0.0787  0.2270  0.0424
18237TIP3    H176126   6.031   5.820  15.201  0.1695  0.0722  0.4845
18237TIP3    H276127   5.976   5.682  15.230  0.0672 -0.0267 -0.1643
18238TIP3   OH276128   1.821   2.673  16.623  0.0669 -0.4264  0.0042
18238TIP3    H176129   1.906   2.718  16.623  0.1573 -0.5961 -0.3235
18238TIP3    H276130   1.820   2.624  16.541 -1.2646  1.3228 -1.0846
18239TIP3   OH276131   0.915   1.370   5.343  0.5707 -0.1309 -0.1469
18239TIP3    H176132   0.957   1.292   5.307 -0.0432 -0.0581 -1.0545
18239TIP3    H276133   0.864   1.406   5.270 -0.2793  0.3340  0.6517
18240TIP3   OH276134   1.637   2.461   0.868 -0.5665  0.8066 -0.3564
18240TIP3    H176135   1.595   2.442   0.952 -0.2331 -0.7819 -0.5119
18240TIP3    H276136   1.566   2.492   0.812 -0.9269  1.1828  0.2957
18241TIP3   OH276137   4.224   5.912  15.894 -0.1584 -0.3193 -0.2749
18241TIP3    H176138   4.188   5.827  15.919 -0.7614  0.3474  1.2566
18241TIP3    H276139   4.262   5.947  15.975  0.4880  0.6731 -0.9789
18242TIP3   OH276140   6.123   2.941   1.899  0.3079 -0.3900  0.6629
18242TIP3    H176141   6.100   2.863   1.849 -0.5733 -0.0731  0.5518
18242TIP3    H276142   6.216   2.955   1.881 -0.1094  0.0606 -1.3722
18243TIP3   OH276143   0.990   6.294   0.934 -0.0228  0.0464 -0.1003
18243TIP3    H176144   1.039   6.367   0.896  0.9844 -1.0603 -1.0198
18243TIP3    H276145   1.053   6.251   0.992 -0.5691 -0.1651  0.3408
18244TIP3   OH276146   3.818   5.042  14.666 -0.4105 -0.2050  0.5427
18244TIP3    H176147   3.738   5.014  14.621 -0.9861  1.3496  0.5171
18244TIP3    H276148   3.848   4.965  14.713  0.2807 -1.9577 -2.5413
18245TIP3   OH276149   3.229   1.728  11.848 -0.1573  0.3705 -0.1023
18245TIP3    H176150   3.286   1.798  11.879 -0.4878  0.1341  1.1038
18245TIP3    H276151   3.288   1.656  11.825  0.1529  0.8849 -0.9364
18246TIP3   OH276152   1.667   1.065  11.508 -0.2773 -0.4121  0.3590
18246TIP3    H176153   1.716   1.139  11.472  0.3564 -0.5701  0.8628
18246TIP3    H276154   1.607   1.039  11.439  0.6853 -0.5115 -0.4592
18247TIP3   OH276155   6.544   5.198  12.914 -0.1384  0.4932 -0.7055
18247TIP3    H176156   6.524   5.286  12.946 -0.7175  0.6043 -1.3469
18247TIP3    H276157   6.571   5.149  12.992  0.3087  1.2720 -0.3678
18248TIP3   OH276158   5.354   5.026  14.660 -0.5408  0.3482  0.8451
18248TIP3    H176159   5.426   4.969  14.687 -0.7882 -0.1924  0.3693
18248TIP3    H276160   5.397   5.096  14.610 -0.1363  1.0952  2.1864
18249TIP3   OH276161   5.710   6.064  11.323 -0.1159 -0.6701  0.0546
18249TIP3    H176162   5.700   6.138  11.263  1.9487 -1.9298 -2.0110
18249TIP3    H276163   5.658   5.994  11.284  1.3896 -1.5601 -0.4511
18250TIP3   OH276164   0.233   0.148  11.728  0.7250  0.2573 -0.0126
18250TIP3    H176165   0.290   0.073  11.745  2.2007  1.3398  0.0371
18250TIP3    H276166   0.170   0.116  11.663  1.2211 -1.0575  0.1188
18251TIP3   OH276167   2.152   1.102  13.379 -0.1696  0.0083 -0.6432
18251TIP3    H176168   2.105   1.110  13.462 -1.6282 -3.1766 -1.0460
18251TIP3    H276169   2.224   1.042  13.398 -0.1884 -0.3063 -1.5356
18252TIP3   OH276170   1.120   6.239   2.678 -0.3858  0.1100 -0.1549
18252TIP3    H176171   1.141   6.230   2.771  2.2559  0.4559 -0.6354
18252TIP3    H276172   1.152   6.159   2.638  2.8596  1.7818 -1.3130
18253TIP3   OH276173   2.801   6.655  11.347  0.3194 -0.2003  0.0906
18253TIP3    H176174   2.775   6.563  11.355 -1.1656  0.2674  0.9056
18253TIP3    H276175   2.812   6.668  11.253 -1.5280 -0.6946 -0.2353
18254TIP3   OH276176   1.932   1.435  14.262 -0.0171  0.0306 -0.0303
18254TIP3    H176177   2.024   1.415  14.280 -0.4320 -0.1527  2.2130
18254TIP3    H276178   1.892   1.442  14.348 -2.4056 -1.2716 -0.9286
18255TIP3   OH276179   0.717   2.716   4.218 -0.1801  0.1278 -0.2752
18255TIP3    H176180   0.739   2.631   4.256 -1.4271 -0.0325  0.1207
18255TIP3    H276181   0.651   2.753   4.276  0.0685  1.2178 -0.6493
18256TIP3   OH276182   3.956   1.051   1.406 -0.4594 -0.9567 -0.3589
18256TIP3    H176183   4.044   1.023   1.382  0.8112  0.5455  2.1564
18256TIP3    H276184   3.937   1.124   1.347 -0.2278 -1.5364 -1.1742
18257TIP3   OH276185   6.563   1.888  14.718 -0.6249  0.0710 -0.4338
18257TIP3    H176186   6.543   1.967  14.667  0.4586  0.2008 -0.6796
18257TIP3    H276187   6.606   1.921  14.797 -0.2477 -0.2615 -0.4985
18258TIP3   OH276188   2.140   2.881  10.740  0.2244  0.3485 -0.0333
18258TIP3    H176189   2.057   2.916  10.708  1.2432  0.4079 -2.9285
18258TIP3    H276190   2.205   2.911  10.676  2.3368 -0.5030  1.5981
18259TIP3   OH276191   4.866   3.432  13.198  0.2844  0.3621 -0.2370
18259TIP3    H176192   4.914   3.388  13.127  0.1332  1.4041 -0.9987
18259TIP3    H276193   4.832   3.512  13.158  1.2947  1.6246  1.3354
18260TIP3   OH276194   4.250   4.598  13.832 -0.0330  0.6340  0.2832
18260TIP3    H176195   4.214   4.614  13.919  1.7545  0.1096  1.1842
18260TIP3    H276196   4.239   4.504  13.818 -0.1444  0.6844  0.0366
18261TIP3   OH276197   1.436   5.955   2.093 -0.5140  0.5919 -0.0251
18261TIP3    H176198   1.364   5.903   2.059 -0.8252  0.8912  0.1749
18261TIP3    H276199   1.456   6.018   2.024 -0.6219  0.6858  0.0301
18262TIP3   OH276200   4.553   1.496   5.043  0.2450  0.0876  0.5036
18262TIP3    H176201   4.487   1.563   5.057  1.3714  1.3056  0.1629
18262TIP3    H276202   4.566   1.496   4.948  0.0024 -0.8892  0.4557
18263TIP3   OH276203   3.530   2.063  13.492 -0.9119 -0.5554 -0.4965
18263TIP3    H176204   3.588   2.013  13.434 -0.3493 -0.8346  0.2963
18263TIP3    H276205   3.443   2.026  13.477 -0.2939 -2.9325  1.2455
18264TIP3   OH276206   6.739   0.601  14.203 -0.3017 -0.1699 -0.0835
18264TIP3    H176207   6.684   0.546  14.259 -0.8209  0.9264  0.5366
18264TIP3    H276208   6.774   0.668  14.263  1.6375 -0.7709 -0.4881
18265TIP3   OH276209   4.676   2.627  12.269 -0.1097 -0.3979  0.0396
18265TIP3    H176210   4.595   2.660  12.231  1.3351  2.9129 -0.5309
18265TIP3    H276211   4.668   2.646  12.363 -1.0238 -2.5763  0.4478
18266TIP3   OH276212   2.534   0.230   5.709 -0.5044 -0.2834 -0.1421
18266TIP3    H176213   2.612   0.183   5.680  0.6459  0.4129  1.6409
18266TIP3    H276214   2.496   0.175   5.777  0.8307  1.2040  1.9320
18267TIP3   OH276215   2.873   5.501  14.008 -0.3499 -0.6949 -0.0123
18267TIP3    H176216   2.862   5.567  13.940  0.6380 -1.1667 -0.6418
18267TIP3    H276217   2.785   5.490  14.045 -0.7832 -0.0130 -0.8140
18268TIP3   OH276218   2.802   2.075  11.697 -0.0474  0.0845 -0.4581
18268TIP3    H176219   2.720   2.051  11.654 -0.4485  1.4580 -0.5100
18268TIP3    H276220   2.849   1.992  11.709 -1.1042 -0.6219 -1.1178
18269TIP3   OH276221   5.481   2.037  13.854  0.5434  1.0957  0.5288
18269TIP3    H176222   5.467   2.118  13.903 -0.3814  0.8449  0.7011
18269TIP3    H276223   5.534   1.983  13.913  0.9989  1.5009  0.4921
18270TIP3   OH276224   5.475   3.096   5.158 -0.4880 -0.1591 -0.1752
18270TIP3    H176225   5.455   3.176   5.110  0.1672  1.0055  1.3774
18270TIP3    H276226   5.390   3.067   5.191 -0.5419  1.0105  0.8247
18271TIP3   OH276227   4.244   0.724   2.399  0.2522  0.2035 -0.6898
18271TIP3    H176228   4.316   0.754   2.344 -0.4629  2.2102 -0.5998
18271TIP3    H276229   4.241   0.786   2.471 -2.1975  0.7963 -1.2188
18272TIP3   OH276230   1.859   1.154  14.225  0.0698  0.5169 -0.0923
18272TIP3    H176231   1.822   1.225  14.278  0.1480  0.7003 -0.2864
18272TIP3    H276232   1.798   1.082  14.237 -0.5974  0.9607 -0.7750
18273TIP3   OH276233   3.137   0.695   2.193 -0.4276 -0.4798  0.1675
18273TIP3    H176234   3.102   0.610   2.218  0.8204 -1.6272 -1.7702
18273TIP3    H276235   3.197   0.718   2.264 -0.8172 -1.1827  0.7368
18274TIP3   OH276236   2.047   1.054  15.257 -0.1429  0.1720 -0.4769
18274TIP3    H176237   1.985   1.111  15.302 -1.9645 -0.1087 -2.4762
18274TIP3    H276238   2.062   0.982  15.318  0.6407  1.7149  1.2616
18275TIP3   OH276239   4.198   4.350  16.267  0.3987 -0.5380  0.3804
18275TIP3    H176240   4.131   4.345  16.335 -0.4786 -1.9217 -0.5408
18275TIP3    H276241   4.159   4.406  16.199 -0.1416 -1.8838 -0.4552
18276TIP3   OH276242   3.913   2.884  12.586  0.7162 -0.2632 -0.2253
18276TIP3    H176243   3.931   2.793  12.611  1.3935  0.4469  2.1808
18276TIP3    H276244   3.818   2.889  12.583  0.6339 -0.7866  0.8448
18277TIP3   OH276245   0.617   5.640   1.963  0.3968  0.1103  0.5778
18277TIP3    H176246   0.682   5.588   1.916  0.7035  0.6858  0.3675
18277TIP3    H276247   0.582   5.579   2.029  0.3968 -0.5120  0.0180
18278TIP3   OH276248   5.792   0.880  14.885 -0.5099 -0.3261  0.0091
18278TIP3    H176249   5.848   0.879  14.808 -0.3623 -1.0216  0.1123
18278TIP3    H276250   5.836   0.822  14.948  0.2133  1.4941  1.2508
18279TIP3   OH276251   3.638   0.783   4.900 -0.1634 -0.3439  0.0624
18279TIP3    H176252   3.614   0.753   4.812 -0.4640  0.5527 -0.1697
18279TIP3    H276253   3.665   0.703   4.946 -1.4895 -1.0497 -0.3526
18280TIP3   OH276254   2.432   5.008  12.537  0.2613 -0.6521  0.2303
18280TIP3    H176255   2.340   5.029  12.554  0.7428 -0.4927  3.1379
18280TIP3    H276256   2.445   5.031  12.445 -2.2869  0.4543  0.0539
18281TIP3   OH276257   3.777   5.839  11.415 -0.5493  0.1113  0.4388
18281TIP3    H176258   3.687   5.872  11.426 -1.0669 -1.1674  0.2250
18281TIP3    H276259   3.766   5.754  11.372  0.9561  1.4006 -2.8028
18282TIP3   OH276260   5.099   2.860   5.335  0.3060  0.1308  0.4422
18282TIP3    H176261   5.117   2.948   5.301  1.2965  0.8147  2.5569
18282TIP3    H276262   5.127   2.801   5.266 -1.6363  1.4494 -1.5974
18283TIP3   OH276263   1.910   2.857   0.716  0.0687  0.6103  0.2419
18283TIP3    H176264   1.850   2.828   0.646  2.5774 -2.6214 -0.8222
18283TIP3    H276265   1.868   2.828   0.797 -0.4730 -0.3866 -0.3717
18284TIP3   OH276266   4.994   1.715   2.528 -0.6600  0.0462  0.2434
18284TIP3    H176267   4.934   1.782   2.496 -1.4375 -0.1315  1.2738
18284TIP3    H276268   4.982   1.641   2.468 -1.3591  0.0764  0.3404
18285TIP3   OH276269   0.897   1.054   2.501  0.0285 -0.1178  0.0179
18285TIP3    H176270   0.983   1.014   2.501 -0.3441 -1.0277 -1.5750
18285TIP3    H276271   0.883   1.081   2.410 -3.2396 -4.4421 -1.1022
18286TIP3   OH276272   5.790   4.722   1.304  0.4453  0.4218 -0.4038
18286TIP3    H176273   5.838   4.787   1.253 -0.3510  1.5572  0.2493
18286TIP3    H276274   5.719   4.694   1.246 -0.0456  1.1956 -0.1919
18287TIP3   OH276275   1.713   0.422  12.344  0.4705  0.6992 -0.3822
18287TIP3    H176276   1.770   0.347  12.360 -0.1669  0.2049 -0.3924
18287TIP3    H276277   1.694   0.419  12.251 -2.6580 -1.4509  0.1610
18288TIP3   OH276278   1.229   4.785  17.156  0.1705 -0.6384  0.0429
18288TIP3    H176279   1.245   4.712  17.096  0.6749 -0.2602 -0.2887
18288TIP3    H276280   1.314   4.803  17.196 -0.3487 -1.5143  1.6137
18289TIP3   OH276281   6.141   2.167   1.023  0.1972  0.1657 -0.2416
18289TIP3    H176282   6.086   2.239   1.054  2.4522  1.4391  1.0514
18289TIP3    H276283   6.082   2.091   1.021 -1.6922  1.5371  0.6157
18290TIP3   OH276284   1.045   4.230  13.577  0.2902  0.0558 -0.5440
18290TIP3    H176285   1.016   4.318  13.602  1.1363 -0.0453  0.8980
18290TIP3    H276286   1.023   4.223  13.484 -0.3425  1.5630 -0.5319
18291TIP3   OH276287   1.193   1.243  11.548  0.7362  0.0236  0.1540
18291TIP3    H176288   1.220   1.152  11.565  0.7204  0.2256  1.3568
18291TIP3    H276289   1.271   1.283  11.510  1.3622 -0.0498  1.2863
18292TIP3   OH276290   4.157   5.668   1.776 -0.7142  0.2381  0.0728
18292TIP3    H176291   4.208   5.665   1.695  0.7868  0.7415  0.9600
18292TIP3    H276292   4.116   5.754   1.775 -1.3148 -0.0474 -0.4982
18293TIP3   OH276293   4.214   2.880   3.539 -0.3500 -0.7988  0.0962
18293TIP3    H176294   4.253   2.812   3.595  3.2439  0.4546 -0.5947
18293TIP3    H276295   4.175   2.942   3.600  1.8105 -0.4415  1.2192
18294TIP3   OH276296   1.218   4.945  15.619  0.0979  0.0584  0.4487
18294TIP3    H176297   1.158   4.885  15.575  0.1072  1.2794 -1.3737
18294TIP3    H276298   1.181   4.959  15.706 -0.5882 -1.5544  0.4336
18295TIP3   OH276299   5.875   6.078   2.196 -0.0233  0.0667 -0.6976
18295TIP3    H176300   5.900   6.000   2.244  3.3886  0.8103 -1.0685
18295TIP3    H276301   5.832   6.134   2.261  1.2023 -0.4465  0.5963
18296TIP3   OH276302   0.842   3.808  15.844  0.0609 -0.1012 -0.4865
18296TIP3    H176303   0.811   3.898  15.859 -0.4836 -0.3112 -0.3309
18296TIP3    H276304   0.830   3.794  15.751 -0.2735 -0.1632 -0.4361
18297TIP3   OH276305   4.243   4.803  12.551 -0.7640 -0.2248  0.5700
18297TIP3    H176306   4.246   4.895  12.526 -0.4492 -0.0241  1.3183
18297TIP3    H276307   4.151   4.787  12.573 -0.7857 -0.0365  0.6179
18298TIP3   OH276308   1.671   2.365  11.588  0.1240 -0.2313  0.3161
18298TIP3    H176309   1.755   2.409  11.599  0.3727 -0.5887 -0.1389
18298TIP3    H276310   1.609   2.436  11.571  0.2733  0.0618  0.9613
18299TIP3   OH276311   6.688   0.832  14.903 -0.2313  0.0207  0.6308
18299TIP3    H176312   6.684   0.762  14.838 -1.2332 -0.5617  1.2893
18299TIP3    H276313   6.683   0.912  14.851 -0.5609 -0.4168 -0.0378
18300TIP3   OH276314   0.033   1.987  12.783  0.3059  0.3785  0.1758
18300TIP3    H176315   0.092   2.057  12.810 -1.4139  1.7642  0.4913
18300TIP3    H276316  -0.008   2.019  12.703 -1.2278  0.1789  0.8492
18301TIP3   OH276317   1.911   5.513  13.958 -0.4337  0.3054 -0.2390
18301TIP3    H176318   1.874   5.425  13.952 -2.8913  0.9540  2.8176
18301TIP3    H276319   1.980   5.505  14.025  0.3731  0.4665 -1.0271
18302TIP3   OH276320   2.338   6.259   4.273  0.4294  0.2157  0.6898
18302TIP3    H176321   2.431   6.255   4.252  0.0112  0.3293 -1.4827
18302TIP3    H276322   2.323   6.348   4.303  0.8506  0.5560 -0.0719
18303TIP3   OH276323   4.950   3.349   2.206  0.1458 -0.0399  0.1522
18303TIP3    H176324   4.879   3.319   2.149 -0.1793 -0.1280  0.5989
18303TIP3    H276325   4.971   3.436   2.174 -1.5051  0.8084  1.2376
18304TIP3   OH276326   6.228   2.225   2.930  0.1940 -0.3010  0.3203
18304TIP3    H176327   6.270   2.285   2.992  0.8187 -1.5016  1.1084
18304TIP3    H276328   6.292   2.155   2.919 -0.5764 -0.8832 -0.4689
18305TIP3   OH276329   4.902   3.380  15.814  0.5398 -0.1534 -0.2845
18305TIP3    H176330   4.820   3.353  15.773  0.6833  1.0028 -1.4329
18305TIP3    H276331   4.959   3.402  15.740  1.5365  0.0282  0.5122
18306TIP3   OH276332   1.684   3.315   2.181  0.4890  0.3405 -0.1282
18306TIP3    H176333   1.688   3.393   2.237 -0.3166 -0.4169  1.0131
18306TIP3    H276334   1.596   3.317   2.143  1.0030  0.8095 -1.3602
18307TIP3   OH276335   5.871   4.812   5.440  0.4278 -0.0088  0.6279
18307TIP3    H176336   5.810   4.769   5.501  1.2623 -1.3833  0.5553
18307TIP3    H276337   5.868   4.757   5.362  0.2921  1.0486 -0.1177
18308TIP3   OH276338   3.104   1.527   5.713 -0.0731  1.3757 -0.0514
18308TIP3    H176339   3.133   1.468   5.643 -0.4653 -0.2828  1.1186
18308TIP3    H276340   3.022   1.564   5.680 -1.2087 -0.7651  0.1582
18309TIP3   OH276341   0.793   6.163  10.785 -0.0464  0.2660 -0.4658
18309TIP3    H176342   0.737   6.094  10.751  1.6812 -2.0241  1.0458
18309TIP3    H276343   0.763   6.242  10.740 -2.9479 -1.1824 -1.3583
18310TIP3   OH276344   3.225   3.364  15.000  0.1139  0.1381  0.4142
18310TIP3    H176345   3.238   3.350  15.094  0.3848  0.8097  0.4781
18310TIP3    H276346   3.213   3.276  14.965  0.9139 -0.1915  0.9420
18311TIP3   OH276347   0.081   3.381   5.707  0.2066 -0.3530  0.5583
18311TIP3    H176348  -0.008   3.364   5.676  0.5339  2.5017 -2.5248
18311TIP3    H276349   0.073   3.456   5.765  0.5494 -0.2477  0.4732
18312TIP3   OH276350   2.835   5.206  13.342  0.0456  0.1028  0.1912
18312TIP3    H176351   2.900   5.168  13.401 -1.4117  0.3410  2.0364
18312TIP3    H276352   2.825   5.140  13.273 -0.0326 -1.3816  1.5621
18313TIP3   OH276353   1.285   3.860  12.533  0.0308  0.7148  1.0983
18313TIP3    H176354   1.317   3.944  12.500 -0.7275  0.8991  0.8079
18313TIP3    H276355   1.222   3.831  12.467  0.3296 -0.1166  1.1676
18314TIP3   OH276356   3.671   2.645   4.650  0.0141  0.3798 -0.1844
18314TIP3    H176357   3.600   2.596   4.608 -1.8788  1.9485  1.0082
18314TIP3    H276358   3.740   2.647   4.584 -1.0015 -1.2669 -1.3860
18315TIP3   OH276359   5.501   1.741  16.581 -0.0977 -0.0505  0.1508
18315TIP3    H176360   5.503   1.804  16.653 -2.1357  0.0899  0.1442
18315TIP3    H276361   5.421   1.690  16.596 -0.8668  0.3177 -2.2653
18316TIP3   OH276362   0.771   1.819   0.704  0.3753  0.5859  0.3924
18316TIP3    H176363   0.750   1.874   0.780 -0.3089  0.7369  0.0970
18316TIP3    H276364   0.860   1.846   0.680 -0.0206  1.7317  0.1263
18317TIP3   OH276365   0.098   5.698  16.186  0.6914  0.1203 -0.2290
18317TIP3    H176366   0.073   5.606  16.173 -1.9995  0.6511  0.4927
18317TIP3    H276367   0.109   5.732  16.097  2.6539 -1.0741 -0.4924
18318TIP3   OH276368   0.911   2.308   2.859 -0.0112 -0.0535 -0.1800
18318TIP3    H176369   0.893   2.246   2.929  1.3635  1.5039  1.6626
18318TIP3    H276370   1.007   2.316   2.857 -0.1172  1.5505 -0.7293
18319TIP3   OH276371   6.014   0.538   5.358 -0.3075 -0.0220  0.9509
18319TIP3    H176372   6.082   0.597   5.328  0.4224 -1.3864 -0.1908
18319TIP3    H276373   6.048   0.501   5.440 -0.5163  0.6921  1.3653
18320TIP3   OH276374   1.760   2.253  11.363  0.3123  1.2095 -0.3738
18320TIP3    H176375   1.704   2.282  11.435 -0.1067 -0.7623  0.1407
18320TIP3    H276376   1.762   2.328  11.303 -3.3058  1.2047 -0.7025
18321TIP3   OH276377   3.352   2.049  17.216 -0.3165 -0.5700 -0.0454
18321TIP3    H176378   3.281   2.108  17.240  0.3346 -0.6104  2.2349
18321TIP3    H276379   3.331   2.021  17.127 -0.6373  3.1010 -1.3221
18322TIP3   OH276380   4.209   5.064   4.779 -0.4137 -0.3087  0.3818
18322TIP3    H176381   4.246   5.150   4.763  0.1142 -0.4679  0.7322
18322TIP3    H276382   4.115   5.080   4.789 -0.5545 -0.0035 -1.2184
18323TIP3   OH276383   2.650   6.373  12.984 -0.7487 -0.2417 -0.2912
18323TIP3    H176384   2.714   6.308  12.957  0.6710  0.6806  0.7198
18323TIP3    H276385   2.565   6.336  12.959  0.1702 -1.4419 -1.7689
18324TIP3   OH276386   0.402   5.263  13.081 -0.0343 -0.4137  0.5161
18324TIP3    H176387   0.477   5.250  13.140 -0.7039 -0.9474  1.2750
18324TIP3    H276388   0.326   5.269  13.139 -0.5042  0.9200 -0.1985
18325TIP3   OH276389   0.133   5.184  15.987 -0.3392  0.0706  0.4235
18325TIP3    H176390   0.183   5.104  15.973 -1.1876 -0.5520  0.8587
18325TIP3    H276391   0.196   5.245  16.025  0.2166 -0.5209  0.4750
18326TIP3   OH276392   5.877   2.627  15.057 -0.5551  0.2627 -0.1642
18326TIP3    H176393   5.958   2.679  15.053 -0.9036  0.7938 -0.4458
18326TIP3    H276394   5.891   2.567  15.131  1.5052 -2.0420 -2.2376
18327TIP3   OH276395   4.129   1.596   0.778  0.2865  0.2691 -0.4287
18327TIP3    H176396   4.169   1.510   0.780 -3.1115 -1.5018 -1.2714
18327TIP3    H276397   4.113   1.613   0.685  1.3993  2.1145 -0.3282
18328TIP3   OH276398   4.824   6.616  16.857 -1.1857 -0.5429 -0.1646
18328TIP3    H176399   4.754   6.553  16.876 -0.2781 -1.4685  0.1638
18328TIP3    H276400   4.827   6.621  16.762 -1.4397 -0.7879 -0.1853
18329TIP3   OH276401   3.502   4.851   0.042  0.1129  0.0231  0.0097
18329TIP3    H176402   3.568   4.783   0.059 -0.5119 -1.0032 -1.4240
18329TIP3    H276403   3.421   4.815   0.077  0.0501  0.6863  0.5515
18330TIP3   OH276404   4.129   0.993   5.321  0.1513  0.3671 -0.5961
18330TIP3    H176405   4.216   1.024   5.295  0.8129 -1.5727 -0.8467
18330TIP3    H276406   4.103   1.053   5.391  2.2086  0.3104  0.3023
18331TIP3   OH276407   6.265   0.909   5.702  0.5878  0.3968 -0.1143
18331TIP3    H176408   6.177   0.927   5.734 -0.0146 -1.3161 -0.6466
18331TIP3    H276409   6.312   0.873   5.778  0.2929 -0.2299 -0.2178
18332TIP3   OH276410   5.272   4.333  11.976  0.2824  0.0270 -0.1162
18332TIP3    H176411   5.357   4.298  12.003 -0.0396 -0.3171  0.4804
18332TIP3    H276412   5.293   4.404  11.916  1.0193  0.3564  0.5153
18333TIP3   OH276413   5.229   0.265  16.641 -0.0239 -0.4774  0.0493
18333TIP3    H176414   5.265   0.204  16.706  0.2004 -1.3152 -0.8378
18333TIP3    H276415   5.160   0.312  16.689  0.8143 -0.3367  1.1731
18334TIP3   OH276416   4.998   0.349  16.380  0.6874 -0.1947  0.2247
18334TIP3    H176417   4.943   0.311  16.311 -0.1459 -0.5276  1.0556
18334TIP3    H276418   5.081   0.303  16.372 -0.4702 -2.7142  1.5690
18335TIP3   OH276419   1.979   3.351   5.424 -0.5343  0.0401  0.2441
18335TIP3    H176420   2.074   3.345   5.422 -0.5720 -0.7791  0.3033
18335TIP3    H276421   1.960   3.438   5.460  0.1939 -0.0752  0.9335
18336TIP3   OH276422   0.525   2.172   0.835 -0.2114 -0.2142  0.2338
18336TIP3    H176423   0.488   2.127   0.759  0.9435 -1.1160  0.1952
18336TIP3    H276424   0.491   2.262   0.828 -2.0778 -0.8898 -0.0012
18337TIP3   OH276425   3.729   5.456  16.958 -0.3496  0.3205  0.2596
18337TIP3    H176426   3.659   5.456  16.893 -2.0477  0.9974  2.0145
18337TIP3    H276427   3.775   5.373  16.943 -2.2748 -0.7239 -0.1587
18338TIP3   OH276428   2.050   2.834   1.522 -0.0802 -0.0057 -0.3099
18338TIP3    H176429   2.130   2.827   1.469 -0.2455 -1.4074 -0.4108
18338TIP3    H276430   2.082   2.837   1.613  0.1051  0.2361 -0.3795
18339TIP3   OH276431   5.173   6.475   3.979  0.4458 -0.3579  0.1625
18339TIP3    H176432   5.268   6.486   3.981  0.5414 -1.2107  1.1542
18339TIP3    H276433   5.138   6.561   4.002  0.9641  0.0266 -0.4539
18340TIP3   OH276434   2.862   5.602  12.991 -0.4369  0.0783 -0.5618
18340TIP3    H176435   2.869   5.584  13.084  0.2945 -0.7241 -0.7632
18340TIP3    H276436   2.868   5.516  12.948  0.2033  0.5128 -1.3883
18341TIP3   OH276437   5.766   3.300  14.181  0.1141  0.1271  0.2788
18341TIP3    H176438   5.858   3.279  14.199  0.3508 -1.4225 -2.1697
18341TIP3    H276439   5.767   3.391  14.152  0.6313  0.5748  1.6574
18342TIP3   OH276440   0.020   5.723  17.169  0.5827  0.7513 -0.6374
18342TIP3    H176441   0.009   5.690  17.259  1.6147  0.4246 -0.6159
18342TIP3    H276442  -0.059   5.694  17.123  1.1901 -1.2853 -0.4730
18343TIP3   OH276443   0.717   1.437  12.665  0.5690  0.0645  0.6081
18343TIP3    H176444   0.704   1.490  12.587  1.6100 -0.2646  0.1936
18343TIP3    H276445   0.630   1.403  12.686  0.4401 -0.7349 -1.0549
18344TIP3   OH276446   4.059   1.811   4.811  0.0014  0.1034 -0.4259
18344TIP3    H176447   4.048   1.796   4.904  0.7455  1.0028 -0.1762
18344TIP3    H276448   4.114   1.739   4.781  0.2085  0.1068 -0.0580
18345TIP3   OH276449   5.796   2.073  12.540 -0.2517 -0.4369  0.2421
18345TIP3    H176450   5.821   2.004  12.479  0.9902 -0.0603  0.2848
18345TIP3    H276451   5.705   2.054  12.563  0.4729 -2.9195  1.3815
18346TIP3   OH276452   2.632   0.011  14.968  0.1963  0.1297  0.0443
18346TIP3    H176453   2.635   0.067  15.045 -1.4186 -1.4080  1.3308
18346TIP3    H276454   2.677  -0.069  14.995  0.7214  0.0333 -1.0645
18347TIP3   OH276455   1.790   1.689  16.024  0.1369 -0.7096 -0.7363
18347TIP3    H176456   1.748   1.615  16.068  0.4194 -0.2957  0.2642
18347TIP3    H276457   1.733   1.763  16.042  0.4827 -0.4508 -0.6903
18348TIP3   OH276458   0.966   1.954   3.363  0.1002  0.1288 -0.4201
18348TIP3    H176459   1.007   1.982   3.445  0.4090 -1.2317 -0.0917
18348TIP3    H276460   1.034   1.966   3.296 -0.5491  2.4599 -0.7582
18349TIP3   OH276461   2.448   2.083  12.276 -0.1563  0.1660 -0.4258
18349TIP3    H176462   2.368   2.056  12.229 -1.6640  0.9884  1.5235
18349TIP3    H276463   2.422   2.162  12.323  1.7533  0.2996  0.4801
18350TIP3   OH276464   0.643   4.573  15.599  0.6826  0.4287 -0.0986
18350TIP3    H176465   0.710   4.548  15.536 -1.0129 -0.4358 -1.6739
18350TIP3    H276466   0.573   4.612  15.546  0.6234  2.9329  1.6531
18351TIP3   OH276467   5.492   4.974  16.719 -0.3226  0.7524 -0.8650
18351TIP3    H176468   5.422   5.006  16.775 -0.0229 -0.0540 -0.0165
18351TIP3    H276469   5.564   4.953  16.778 -0.6540 -1.9444 -1.2496
18352TIP3   OH276470   4.995   6.436   3.307 -0.0122 -0.3319 -0.6638
18352TIP3    H176471   5.055   6.469   3.373  1.6224 -0.8847 -1.8020
18352TIP3    H276472   4.916   6.412   3.355  1.4507 -1.5966  1.2453
18353TIP3   OH276473   0.967   6.063   1.163  0.3301  0.3454  0.3222
18353TIP3    H176474   0.922   6.099   1.239 -0.4192 -0.5198  0.3045
18353TIP3    H276475   0.897   6.028   1.108  1.0316 -1.2544  0.4126
18354TIP3   OH276476   0.398   0.749  11.425  0.0626  0.3553 -0.4925
18354TIP3    H176477   0.392   0.661  11.463 -1.6195  1.4252  2.0363
18354TIP3    H276478   0.307   0.777  11.415  0.5500  2.1473 -0.2908
18355TIP3   OH276479   4.719   1.111  15.009 -0.3665 -0.3989  0.0740
18355TIP3    H176480   4.763   1.029  14.987 -0.7705  0.2719 -4.0262
18355TIP3    H276481   4.626   1.091  15.005 -0.4772 -0.0444  0.6602
18356TIP3   OH276482   4.988   2.186  17.048  0.1868 -0.3931  0.5447
18356TIP3    H176483   4.980   2.143  17.133 -0.8766 -1.3500 -0.0140
18356TIP3    H276484   4.906   2.234  17.037  1.1901  1.5233  0.9768
18357TIP3   OH276485   4.133   6.058   3.746  0.7181  0.2778  0.0680
18357TIP3    H176486   4.127   6.131   3.808 -0.4389  0.8342 -0.6537
18357TIP3    H276487   4.084   5.988   3.788  0.5435  0.4162  0.0967
18358TIP3   OH276488   4.435   2.219  17.150  0.8103  0.3559 -0.4040
18358TIP3    H176489   4.344   2.189  17.157  0.8622  0.2838  0.0292
18358TIP3    H276490   4.484   2.158  17.205  1.0965  0.4932 -0.5038
18359TIP3   OH276491   3.771   6.549  11.202  1.1881  0.3866 -0.3074
18359TIP3    H176492   3.859   6.510  11.202  0.1627 -2.1619  0.4641
18359TIP3    H276493   3.725   6.505  11.131 -0.1851 -0.3129  0.9444
18360TIP3   OH276494   4.042   3.367   1.106 -0.1242 -0.4814  0.3265
18360TIP3    H176495   3.978   3.352   1.176  0.7027 -0.1164  1.1826
18360TIP3    H276496   3.990   3.401   1.033 -0.9961 -0.8001  0.7833
18361TIP3   OH276497   0.184   6.376  11.202 -0.5333  0.2689  0.0107
18361TIP3    H176498   0.133   6.308  11.158  0.4710 -1.0882  0.8741
18361TIP3    H276499   0.183   6.450  11.141  0.0543 -1.2171 -1.9203
18362TIP3   OH276500   0.208   5.387   1.912  0.2278  0.0032  0.0700
18362TIP3    H176501   0.284   5.400   1.855  0.5119  1.8651  0.7993
18362TIP3    H276502   0.152   5.463   1.896  0.4987  0.8151  2.4807
18363TIP3   OH276503   0.995   1.505  13.992  0.2603  0.7023 -0.2902
18363TIP3    H176504   0.971   1.489  13.901  2.3109 -3.0621 -0.3465
18363TIP3    H276505   1.088   1.526  13.989  0.2492  0.9968  0.9259
18364TIP3   OH276506   4.101   2.215  15.102 -0.5294  0.6006 -0.1387
18364TIP3    H176507   4.176   2.267  15.130 -0.6447  1.2922 -1.0741
18364TIP3    H276508   4.123   2.187  15.013 -1.0170  0.1155 -0.1098
18365TIP3   OH276509   5.956   1.868   6.233  0.0075 -0.0513  0.3068
18365TIP3    H176510   6.006   1.944   6.261  0.9144 -0.2882 -0.6000
18365TIP3    H276511   5.879   1.905   6.190  0.7675  0.3878 -0.7193
18366TIP3   OH276512   6.100   1.786  15.856 -0.5411 -0.2059 -0.8332
18366TIP3    H176513   6.149   1.778  15.774  0.1303 -1.1454 -0.3612
18366TIP3    H276514   6.064   1.698  15.870 -1.4918  0.2029 -0.6221
18367TIP3   OH276515   1.710   0.116  10.542  0.7280 -0.2434 -0.0396
18367TIP3    H176516   1.780   0.107  10.607  0.4769 -0.2855  0.2282
18367TIP3    H276517   1.737   0.191  10.488  1.1953 -0.5359 -0.2134
18368TIP3   OH276518   5.518   6.601   4.331  0.2376 -0.6902  0.4384
18368TIP3    H176519   5.506   6.608   4.236 -0.7128 -0.9911  0.5189
18368TIP3    H276520   5.568   6.521   4.343  2.1284  0.3926  0.0935
18369TIP3   OH276521   5.868   6.179  12.799 -0.5856  0.0646  0.7741
18369TIP3    H176522   5.869   6.084  12.795 -2.0591  0.0569 -1.6110
18369TIP3    H276523   5.801   6.200  12.864 -0.3644 -0.5115  1.1957
18370TIP3   OH276524   0.117   6.136  13.553  0.0051  0.2633  0.2518
18370TIP3    H176525   0.028   6.172  13.550 -0.0599  0.2518  1.5151
18370TIP3    H276526   0.153   6.152  13.466 -1.1829  0.4045 -0.2228
18371TIP3   OH276527   0.729   6.562  15.596  0.7601  0.7633  0.5393
18371TIP3    H176528   0.695   6.644  15.632 -0.5348  0.3932  0.1787
18371TIP3    H276529   0.652   6.511  15.574  1.5398  0.0581 -0.6798
18372TIP3   OH276530   6.632   1.238  12.022 -0.2071  0.3679  0.6406
18372TIP3    H176531   6.696   1.167  12.023 -0.1787  0.3995  1.4625
18372TIP3    H276532   6.557   1.201  11.976  0.7540  0.6597 -1.2375
18373TIP3   OH276533   3.862   0.114   5.928  0.1900  0.0234  0.3829
18373TIP3    H176534   3.848   0.187   5.988 -1.1523 -0.0446  0.1809
18373TIP3    H276535   3.894   0.043   5.983  1.3163  0.6928  0.6118
18374TIP3   OH276536   3.346   4.302   2.248  0.3180  0.4764  0.1926
18374TIP3    H176537   3.300   4.325   2.167  2.6308  0.7075 -1.1499
18374TIP3    H276538   3.289   4.240   2.291 -0.1124 -1.2917 -2.6675
18375TIP3   OH276539   2.569   4.926  11.244  0.2029  0.1521  0.5340
18375TIP3    H176540   2.531   4.844  11.213  1.0185  0.5882 -1.8625
18375TIP3    H276541   2.653   4.900  11.282  0.3739 -0.1565 -0.0425
18376TIP3   OH276542   6.358   2.206  14.996 -1.1286 -0.6788  0.1124
18376TIP3    H176543   6.288   2.206  15.062 -0.2357 -0.2245  1.0917
18376TIP3    H276544   6.318   2.167  14.918 -2.4932 -0.3529  0.6205
18377TIP3   OH276545   4.487   0.055   4.196  0.4198  0.8496  0.1999
18377TIP3    H176546   4.413   0.045   4.256  0.1667  0.7341 -0.1280
18377TIP3    H276547   4.468   0.136   4.148 -0.3019  0.0122 -0.9900
18378TIP3   OH276548   5.425   0.146   5.968 -0.2072 -0.2719  0.3964
18378TIP3    H176549   5.433   0.057   5.934  1.3378 -0.1025  0.2455
18378TIP3    H276550   5.500   0.157   6.026  0.4172  1.3751 -0.6467
18379TIP3   OH276551   0.170   0.358  11.521  0.0928  0.5356 -0.0969
18379TIP3    H176552   0.223   0.280  11.506  0.6020  0.3815  2.2344
18379TIP3    H276553   0.095   0.327  11.571 -1.3345  1.0679 -1.7947
18380TIP3   OH276554   3.596   2.906   6.010  0.4073  0.0771  0.8294
18380TIP3    H176555   3.538   2.888   6.084  0.3217  0.8823  0.9664
18380TIP3    H276556   3.656   2.973   6.043  1.1680 -0.4558  0.5583
18381TIP3   OH276557   5.247   6.385   3.660 -0.0280  0.1113  0.1852
18381TIP3    H176558   5.201   6.372   3.743  1.3131 -1.6297  0.7275
18381TIP3    H276559   5.339   6.367   3.681  0.1668 -1.8455 -1.9524
18382TIP3   OH276560   4.675   6.738  14.960 -0.1680 -0.1232 -0.0103
18382TIP3    H176561   4.658   6.818  14.911 -2.2056  0.5568  1.6288
18382TIP3    H276562   4.617   6.672  14.920 -0.7932  0.0677  0.5565
18383TIP3   OH276563   6.277   3.144   4.305  0.1503  0.2014  0.0853
18383TIP3    H176564   6.237   3.115   4.223  0.7474 -0.9071  0.1765
18383TIP3    H276565   6.368   3.117   4.298  0.3910  0.8083  0.7920
18384TIP3   OH276566   1.046   1.349  13.237  0.0424  0.2990  0.2517
18384TIP3    H176567   0.975   1.349  13.302  0.7819  0.7985  1.0828
18384TIP3    H276568   1.011   1.400  13.164 -0.9345 -0.5629  0.0875
18385TIP3   OH276569   5.616   1.758   0.091  0.2886  0.1934  0.9957
18385TIP3    H176570   5.618   1.811   0.011  2.0726 -1.2044  0.0397
18385TIP3    H276571   5.691   1.789   0.142  1.6928 -1.6443  0.1798
18386TIP3   OH276572   3.262   1.661  13.813  0.0604 -0.1097  0.1072
18386TIP3    H176573   3.321   1.617  13.752 -1.0195  0.1664 -1.1834
18386TIP3    H276574   3.178   1.618  13.801  0.0005 -0.6259  2.0596
18387TIP3   OH276575   5.693   3.627  16.461 -0.3910 -0.5027 -0.8530
18387TIP3    H176576   5.598   3.622  16.475 -0.0508 -1.4781  1.8073
18387TIP3    H276577   5.728   3.555  16.514  1.9579  0.9866 -0.2332
18388TIP3   OH276578   0.963   2.778   5.994  0.3174 -0.0880 -0.2568
18388TIP3    H176579   1.025   2.728   6.046  1.4097  0.7333 -0.7326
18388TIP3    H276580   0.887   2.789   6.051  0.3824 -1.5264  0.1597
18389TIP3   OH276581   6.516   4.248  11.965  0.2684 -0.4050  0.5410
18389TIP3    H176582   6.500   4.186  12.037  0.0665 -0.4241  0.4827
18389TIP3    H276583   6.611   4.253  11.958  0.2908 -1.1166  0.2063
18390TIP3   OH276584   5.143   2.108   5.875  0.3669  0.1931 -0.1864
18390TIP3    H176585   5.061   2.060   5.873  1.0375 -1.0351  0.3550
18390TIP3    H276586   5.127   2.181   5.936 -0.1304 -0.4008  0.4051
18391TIP3   OH276587   6.010   3.282   2.076 -0.4309  0.2481  0.2836
18391TIP3    H176588   5.936   3.300   2.135 -0.7233 -0.4241  0.1323
18391TIP3    H276589   6.018   3.187   2.076  2.5316  0.3635  2.8613
18392TIP3   OH276590   4.678   0.842   2.915  0.5149 -0.1575  0.2968
18392TIP3    H176591   4.658   0.757   2.877  0.4066  0.6500 -1.5465
18392TIP3    H276592   4.773   0.840   2.931  0.4468 -0.7550  0.6491
18393TIP3   OH276593   0.560   0.421  14.628  0.2074  0.4595  0.1154
18393TIP3    H176594   0.595   0.504  14.658  0.4124  0.2402  0.4893
18393TIP3    H276595   0.625   0.388  14.566  0.1966  0.5091  0.0779
18394TIP3   OH276596   5.371   5.927  12.501  0.4517 -0.5407  0.2963
18394TIP3    H176597   5.350   6.009  12.545 -0.4386 -0.3951 -0.3905
18394TIP3    H276598   5.462   5.937  12.473  0.6249 -0.1414  0.9798
18395TIP3   OH276599   3.325   0.352   1.625 -0.0762  0.7437  0.0418
18395TIP3    H176600   3.275   0.286   1.577 -0.6525  0.7515  0.6192
18395TIP3    H276601   3.385   0.302   1.680 -0.1160  0.7127  0.0570
18396TIP3   OH276602   0.107   5.760   1.109 -0.9704 -0.5550 -0.3187
18396TIP3    H176603   0.055   5.714   1.174  0.5159  1.3716  2.4616
18396TIP3    H276604   0.054   5.835   1.084 -1.0942 -0.6958 -0.4788
18397TIP3   OH276605   5.638   1.603  13.088 -0.3199 -0.2315  0.4703
18397TIP3    H176606   5.721   1.642  13.059 -0.4712 -0.4421 -0.2769
18397TIP3    H276607   5.582   1.678  13.107  0.3183 -0.0837  1.8285
18398TIP3   OH276608   3.091   5.029  16.687  0.0042  0.4138  0.7660
18398TIP3    H176609   3.153   4.972  16.732 -0.5474  0.5301  1.7032
18398TIP3    H276610   3.046   5.076  16.757 -0.3435  1.1705  0.0578
18399TIP3   OH276611   5.274   6.114   0.953 -0.4683 -0.1839 -1.1907
18399TIP3    H176612   5.286   6.138   0.861 -1.6385 -2.1966 -1.9509
18399TIP3    H276613   5.356   6.072   0.978 -0.1642  0.3267 -1.3299
18400TIP3   OH276614   4.283   0.078   2.878  0.2549 -0.1554 -0.0926
18400TIP3    H176615   4.198   0.055   2.917 -0.9607  1.2786 -1.7506
18400TIP3    H276616   4.275   0.050   2.787  0.8502  1.6297 -0.7220
18401TIP3   OH276617   1.992   2.591   5.873 -0.1303 -0.2860  0.4394
18401TIP3    H176618   2.027   2.651   5.938  1.1691  0.8731 -1.2458
18401TIP3    H276619   2.067   2.566   5.819 -0.9257 -2.2005  0.1186
18402TIP3   OH276620   2.509   2.991   3.244  0.0228 -0.3347 -0.1421
18402TIP3    H176621   2.490   2.997   3.151 -1.6552  0.0354  0.2048
18402TIP3    H276622   2.435   2.943   3.281  0.2842  0.1756  1.1061
18403TIP3   OH276623   3.356   6.386  14.081  0.5435  0.0918  0.2075
18403TIP3    H176624   3.278   6.350  14.124  1.5006 -0.2869  1.7217
18403TIP3    H276625   3.398   6.310  14.041 -0.0958  0.3727 -1.0383
18404TIP3   OH276626   5.695   5.236  16.112 -0.4728  0.2645 -0.4544
18404TIP3    H176627   5.733   5.318  16.142 -3.4012  1.8431 -0.6808
18404TIP3    H276628   5.673   5.251  16.020  0.9472 -1.6051 -1.1580
18405TIP3   OH276629   1.035   0.192   3.470  0.2429 -0.2032 -0.2661
18405TIP3    H176630   0.968   0.141   3.425  0.3348 -1.5569  1.0760
18405TIP3    H276631   1.004   0.283   3.464 -1.5058 -0.7570  0.0059
18406TIP3   OH276632   0.370   3.546   0.192  0.0517 -0.2757 -0.0195
18406TIP3    H176633   0.313   3.497   0.252  0.9194 -0.7271  0.4571
18406TIP3    H276634   0.424   3.479   0.150  0.6321  0.1974 -0.0386
18407TIP3   OH276635   0.815   3.751  11.615  0.3128  0.1742 -0.6068
18407TIP3    H176636   0.787   3.835  11.651  0.3936 -0.6054  1.4426
18407TIP3    H276637   0.887   3.772  11.556  0.0526  1.5716 -0.4513
18408TIP3   OH276638   0.395   2.284  14.628 -0.0529 -0.1558 -0.1988
18408TIP3    H176639   0.375   2.377  14.637  0.3402 -0.2373  1.8069
18408TIP3    H276640   0.332   2.252  14.564 -0.7196  1.3153 -0.3149
18409TIP3   OH276641   2.484   2.948  12.580 -0.1193  0.0876 -0.3164
18409TIP3    H176642   2.569   2.972  12.542  0.2418  0.1321  0.4980
18409TIP3    H276643   2.433   3.028  12.576 -1.2846 -0.6687 -3.7204
18410TIP3   OH276644   5.437   3.209   0.255 -0.3575 -0.2428 -0.2855
18410TIP3    H176645   5.453   3.171   0.341 -0.6555 -0.6435 -0.4071
18410TIP3    H276646   5.498   3.163   0.197 -2.1563 -2.0670 -0.8312
18411TIP3   OH276647   1.078   5.820  14.139 -0.4202 -1.0914 -0.0410
18411TIP3    H176648   1.147   5.797  14.201 -0.0313  0.1299  0.0206
18411TIP3    H276649   1.113   5.797  14.053  0.3212  0.0222 -0.0615
18412TIP3   OH276650   6.145   4.181   4.827 -0.3922 -0.2683  0.2086
18412TIP3    H176651   6.089   4.120   4.876  0.0042  0.0264  1.0484
18412TIP3    H276652   6.229   4.136   4.821  0.4817  0.8850  2.4531
18413TIP3   OH276653   2.625   2.516  16.469  0.4253 -0.0928 -0.1825
18413TIP3    H176654   2.604   2.589  16.411  0.0043  0.1885  0.3168
18413TIP3    H276655   2.657   2.447  16.410  1.4815  0.7149 -0.5971
18414TIP3   OH276656   6.020   3.847   2.347  0.1223 -0.0042 -0.5902
18414TIP3    H176657   5.928   3.821   2.360  0.3807 -0.5077  0.2727
18414TIP3    H276658   6.061   3.769   2.309  0.3599 -0.0340 -0.2731
18415TIP3   OH276659   2.892   1.056   5.643 -0.1453 -0.3142 -0.2432
18415TIP3    H176660   2.811   1.102   5.621 -0.3240 -1.2585 -1.7025
18415TIP3    H276661   2.958   1.095   5.585 -0.0913 -1.1952 -0.7861
18416TIP3   OH276662   4.053   3.123  12.463  0.1354  0.5191 -0.2810
18416TIP3    H176663   4.012   3.061  12.523  0.3360  0.8379  0.1876
18416TIP3    H276664   3.997   3.121  12.385 -0.0242 -0.0274 -0.1548
18417TIP3   OH276665   0.837   5.478  12.383 -0.4515  0.2299  0.5022
18417TIP3    H176666   0.927   5.446  12.389  0.2121  1.7067 -0.6867
18417TIP3    H276667   0.842   5.568  12.415 -1.5826  0.2336  0.7028
18418TIP3   OH276668   6.622   4.076   2.093 -0.4607 -0.3696  0.0853
18418TIP3    H176669   6.543   4.107   2.137 -1.2597 -0.5801 -1.1312
18418TIP3    H276670   6.594   3.999   2.044  0.4210 -0.2769 -0.6133
18419TIP3   OH276671   1.260   5.819   5.209  0.0600  0.4152  0.2347
18419TIP3    H176672   1.198   5.763   5.255  0.9119 -1.2581 -0.5835
18419TIP3    H276673   1.205   5.870   5.149 -0.6381 -0.2993  0.2444
18420TIP3   OH276674   2.264   0.109  13.922 -0.2776 -0.6433 -0.2801
18420TIP3    H176675   2.225   0.076  13.841 -0.1242 -1.1617 -0.1465
18420TIP3    H276676   2.352   0.073  13.922  0.2949  0.6916 -0.6863
18421TIP3   OH276677   4.847   0.167   2.073  0.6517  0.0135 -0.5484
18421TIP3    H176678   4.861   0.089   2.127  1.9370  0.4924 -0.1509
18421TIP3    H276679   4.756   0.191   2.089  0.1756 -1.5112 -0.8423
18422TIP3   OH276680   3.949   2.896   3.355  0.6279 -0.1226  0.5787
18422TIP3    H176681   3.894   2.967   3.323 -1.2298 -0.0863  3.4533
18422TIP3    H276682   4.035   2.936   3.366 -0.3267  1.7291  1.9663
18423TIP3   OH276683   4.107   6.297  11.682  0.4814 -0.2495 -0.2222
18423TIP3    H176684   4.180   6.272  11.626  0.4659  1.0095 -0.8346
18423TIP3    H276685   4.142   6.368  11.737 -0.7414  1.6916 -1.8189
18424TIP3   OH276686   3.664   3.499  13.799  0.2512  0.1438 -0.1518
18424TIP3    H176687   3.645   3.464  13.886  0.6537 -1.3701 -0.6442
18424TIP3    H276688   3.603   3.454  13.741 -1.3586  2.5190 -0.4725
18425TIP3   OH276689   2.646   0.599  14.537  0.0293 -0.1678 -1.3221
18425TIP3    H176690   2.716   0.566  14.480  0.2317 -1.4305 -0.3992
18425TIP3    H276691   2.576   0.535  14.528  0.2096 -0.6158  0.0892
18426TIP3   OH276692   3.687   6.495  13.832 -0.7194 -0.2288  0.7725
18426TIP3    H176693   3.712   6.555  13.763  1.7768 -0.0854  1.7070
18426TIP3    H276694   3.601   6.526  13.861  0.2415  2.5893  0.8785
18427TIP3   OH276695   5.610   2.719  16.313  0.6855  0.3232  0.0102
18427TIP3    H176696   5.579   2.635  16.278 -0.9336  0.5597  0.7820
18427TIP3    H276697   5.563   2.785  16.264 -0.1391  0.6930  1.2426
18428TIP3   OH276698   5.001   6.056   4.472  0.2378 -0.4897  0.1104
18428TIP3    H176699   5.058   6.102   4.410  0.8581 -0.6100  0.5817
18428TIP3    H276700   4.954   6.126   4.517  1.0138 -0.3097  0.6652
18429TIP3   OH276701   3.350   3.376  11.031 -0.3424 -1.0777  0.1523
18429TIP3    H176702   3.379   3.350  11.118 -0.9306 -1.2665  0.2943
18429TIP3    H276703   3.256   3.391  11.040 -0.0759  1.0817  0.0828
18430TIP3   OH276704   2.719   5.489   6.069  0.5331  0.0162 -0.1255
18430TIP3    H176705   2.688   5.578   6.088 -0.8568 -0.6560  0.9498
18430TIP3    H276706   2.644   5.444   6.031  1.1975 -0.7396 -0.5934
18431TIP3   OH276707   4.072   1.120  14.950 -0.1177 -0.3500 -0.2653
18431TIP3    H176708   4.005   1.184  14.973 -0.8459 -1.0590 -0.3448
18431TIP3    H276709   4.141   1.132  15.015  0.0864  0.9772 -0.6973
18432TIP3   OH276710   5.698   3.579  12.282  0.2149  0.3622  0.3087
18432TIP3    H176711   5.747   3.498  12.294  1.3935  1.0378  0.2127
18432TIP3    H276712   5.698   3.620  12.368 -0.4163  0.2386  0.3673
18433TIP3   OH276713   0.590   4.659   1.365  0.1675  0.0521  0.0995
18433TIP3    H176714   0.513   4.605   1.382 -0.9028  1.5268  0.1127
18433TIP3    H276715   0.660   4.617   1.415 -1.2694  0.2566  2.4061
18434TIP3   OH276716   1.907   4.059   4.035 -0.3921 -0.1246  0.0813
18434TIP3    H176717   1.951   3.975   4.034  0.9247  0.5219  0.7083
18434TIP3    H276718   1.904   4.084   4.128 -2.9247 -0.5241  0.2004
18435TIP3   OH276719   2.654   4.202   5.423  0.2201 -0.3935  0.4118
18435TIP3    H176720   2.746   4.198   5.447  0.5687  0.5227 -0.6785
18435TIP3    H276721   2.649   4.162   5.337 -0.2900  0.1373  0.1847
18436TIP3   OH276722   2.682   1.673  11.745  0.1080 -0.0037  0.2494
18436TIP3    H176723   2.624   1.748  11.760  0.7602  0.4487  0.5669
18436TIP3    H276724   2.762   1.694  11.793  1.0018 -0.0552 -1.1390
18437TIP3   OH276725   3.685   4.936   1.829 -0.0671  0.1661 -0.7518
18437TIP3    H176726   3.737   4.931   1.749 -0.9239  1.0999 -1.3792
18437TIP3    H276727   3.661   5.028   1.837  1.1772  0.3820  1.3494
18438TIP3   OH276728   0.311   2.097   5.993  0.0290 -0.2316  0.0363
18438TIP3    H176729   0.313   2.167   6.058  0.3669  0.8891 -1.1144
18438TIP3    H276730   0.284   2.141   5.912 -2.9985 -2.0368 -0.0661
18439TIP3   OH276731   4.983   1.436  14.360  0.1340 -0.2985 -0.4358
18439TIP3    H176732   4.966   1.345  14.382 -0.6923  0.1893  1.0233
18439TIP3    H276733   4.906   1.464  14.310 -0.4986  0.1137  0.7372
18440TIP3   OH276734   6.679   3.880  14.670  0.3137 -0.4312 -0.3509
18440TIP3    H176735   6.686   3.917  14.582  2.2901 -0.4772 -0.2632
18440TIP3    H276736   6.609   3.930  14.712 -1.1395 -0.8563 -2.1248
18441TIP3   OH276737   5.219   0.812  11.130  0.6940 -0.0361  0.3913
18441TIP3    H176738   5.187   0.728  11.097  1.7030 -0.6318  0.8999
18441TIP3    H276739   5.267   0.850  11.057  0.4740 -0.0199  0.2537
18442TIP3   OH276740   1.985   5.765   2.959 -0.5976 -0.4123  0.1782
18442TIP3    H176741   2.054   5.705   2.933 -0.1341 -0.8202  2.2063
18442TIP3    H276742   1.904   5.715   2.948 -0.1642 -1.8354  2.7038
18443TIP3   OH276743   1.945   3.487   0.489 -0.3058  0.2403 -0.2232
18443TIP3    H176744   1.905   3.515   0.571 -0.5316  2.1190 -0.9224
18443TIP3    H276745   1.880   3.431   0.448 -0.9854  0.8528  0.0050
18444TIP3   OH276746   1.663   6.767  11.315  0.8459 -0.3208  0.2544
18444TIP3    H176747   1.581   6.728  11.282  1.5353 -0.8749 -0.8475
18444TIP3    H276748   1.637   6.808  11.398 -0.7940  0.5168 -0.6192
18445TIP3   OH276749   2.112   6.523  14.149  0.2709  0.2839  0.7066
18445TIP3    H176750   2.074   6.436  14.142  0.2749  0.3997 -1.3635
18445TIP3    H276751   2.193   6.510  14.200 -1.1201 -0.3826  2.8980
18446TIP3   OH276752   3.866   2.633   2.635 -0.3287  0.5684  0.1191
18446TIP3    H176753   3.960   2.619   2.640 -0.3676  0.2466  0.0130
18446TIP3    H276754   3.839   2.582   2.559 -0.8502 -0.7793  1.1674
18447TIP3   OH276755   4.895   4.292  14.597  0.4360  0.1546 -0.0062
18447TIP3    H176756   4.899   4.211  14.547  1.3858  0.6341 -0.7280
18447TIP3    H276757   4.804   4.297  14.627  0.0065 -0.4703 -1.1402
18448TIP3   OH276758   4.376   4.338  11.257 -0.0673 -0.0422  0.3246
18448TIP3    H176759   4.384   4.432  11.272 -0.9456 -0.1823  1.8265
18448TIP3    H276760   4.341   4.331  11.168  1.0635  0.9967 -0.2291
18449TIP3   OH276761   3.876   4.454  14.159 -0.1764 -0.0386 -0.2064
18449TIP3    H176762   3.900   4.413  14.076 -1.7149  1.6960 -1.5685
18449TIP3    H276763   3.782   4.437  14.168  0.1378 -1.1329  1.7892
18450TIP3   OH276764   5.380   1.704  16.297 -0.2757  0.0096  0.4951
18450TIP3    H176765   5.395   1.729  16.388  1.7425 -1.1240  0.5246
18450TIP3    H276766   5.292   1.669  16.295 -0.9580  1.5456  1.6522
18451TIP3   OH276767   3.520   1.495   3.898  0.3796 -0.1965  0.2386
18451TIP3    H176768   3.451   1.545   3.854  2.2160  1.8064 -0.5524
18451TIP3    H276769   3.593   1.497   3.836  1.1715 -2.2949  1.0234
18452TIP3   OH276770   4.822   0.763   0.958  0.6037 -0.0385 -0.0156
18452TIP3    H176771   4.838   0.793   0.869  0.0990  1.4509  0.3538
18452TIP3    H276772   4.839   0.669   0.956  2.5823  0.2961 -1.1937
18453TIP3   OH276773   0.023   0.283  14.521  0.0157 -0.2030 -0.1224
18453TIP3    H176774  -0.045   0.285  14.454 -0.7417  0.5478  0.6468
18453TIP3    H276775  -0.015   0.328  14.596  1.3520  0.2145  0.3415
18454TIP3   OH276776   6.577   4.635   5.779  0.6585 -0.1954 -0.0709
18454TIP3    H176777   6.488   4.672   5.779  0.1506 -1.2788 -1.8671
18454TIP3    H276778   6.581   4.581   5.857  0.1069  0.6676  0.5702
18455TIP3   OH276779   1.666   2.814   3.231  0.3433  0.3257 -0.0934
18455TIP3    H176780   1.577   2.814   3.197 -0.4457  2.0836  1.7739
18455TIP3    H276781   1.674   2.731   3.279  0.9223 -1.3972 -2.9244
18456TIP3   OH276782   5.831   5.242   6.605 -0.0737  0.3579 -0.0983
18456TIP3    H176783   5.778   5.322   6.607  0.0346  0.4706 -1.1255
18456TIP3    H276784   5.908   5.265   6.553  0.9397  0.1575  1.2706
18457TIP3   OH276785   1.442   5.238   3.328  0.3336  0.0079 -0.1674
18457TIP3    H176786   1.371   5.192   3.374  0.6300  1.0830  1.4434
18457TIP3    H276787   1.447   5.323   3.371  2.0657  0.2608 -0.8105
18458TIP3   OH276788   3.000   1.994  16.091  0.2736  0.0734  0.0527
18458TIP3    H176789   2.935   1.935  16.130  2.3050 -1.3850  1.4508
18458TIP3    H276790   2.948   2.060  16.045 -2.2836  0.7151  3.5073
18459TIP3   OH276791   0.996   4.578   2.842  0.0219 -0.3549  0.0252
18459TIP3    H176792   1.001   4.604   2.750 -2.3300  0.6303  0.0858
18459TIP3    H276793   1.026   4.654   2.891  1.6401 -1.0159  0.0958
18460TIP3   OH276794   3.289   4.849  13.822  0.3278 -0.2091 -0.0737
18460TIP3    H176795   3.362   4.862  13.761 -0.4646  2.1072 -0.6173
18460TIP3    H276796   3.215   4.891  13.779  0.2223  3.6986  3.4091
18461TIP3   OH276797   4.387   4.433  14.142  0.1288 -0.0872  0.2961
18461TIP3    H176798   4.314   4.478  14.099  0.1472  1.2024  1.5251
18461TIP3    H276799   4.360   4.426  14.234  1.1402 -0.4587  0.5753
18462TIP3   OH276800   5.447   2.478  11.063  0.4272  0.2556 -0.3715
18462TIP3    H176801   5.534   2.443  11.082  1.1565  2.8993  1.7899
18462TIP3    H276802   5.389   2.402  11.069  2.2825 -1.1848  0.3820
18463TIP3   OH276803   0.385   1.199  16.421  0.3125 -0.2328 -0.5096
18463TIP3    H176804   0.419   1.284  16.391  1.2776 -0.8086 -1.1092
18463TIP3    H276805   0.444   1.135  16.382  0.8559 -1.1043  1.6058
18464TIP3   OH276806   2.492   0.197   2.812 -0.2079  0.0879 -0.3504
18464TIP3    H176807   2.467   0.174   2.723  0.5730  0.6059 -0.7153
18464TIP3    H276808   2.411   0.191   2.862 -0.6033 -0.4638 -1.0371
18465TIP3   OH276809   6.109   5.675   1.517 -0.0838  0.4361 -0.1700
18465TIP3    H176810   6.048   5.739   1.553  0.7564  2.2705 -1.8314
18465TIP3    H276811   6.061   5.636   1.444 -0.9538 -1.6471  1.4052
18466TIP3   OH276812   6.569   3.110  16.394 -0.3691 -0.1827  0.6446
18466TIP3    H176813   6.491   3.058  16.411 -0.6239  0.0615  0.2426
18466TIP3    H276814   6.537   3.200  16.387 -0.2983 -0.2680 -1.1544
18467TIP3   OH276815   2.645   3.276   1.991 -0.1555  0.0660 -0.1449
18467TIP3    H176816   2.572   3.327   2.026  0.4725  0.2884  0.8689
18467TIP3    H276817   2.611   3.188   1.981 -0.8971  0.4116 -0.7755
18468TIP3   OH276818   0.729   1.438   5.882 -0.0816 -0.1158  0.0373
18468TIP3    H176819   0.724   1.502   5.953 -0.0390 -0.2915  0.1981
18468TIP3    H276820   0.664   1.468   5.818  0.1223  0.2341 -0.0076
18469TIP3   OH276821   1.857   4.635   2.204 -0.0762 -0.1800 -0.3294
18469TIP3    H176822   1.931   4.694   2.213 -0.7887  0.7558 -0.4906
18469TIP3    H276823   1.873   4.566   2.269  1.7844 -0.9445 -1.5023
18470TIP3   OH276824   2.032   4.806  12.441  0.4664 -0.1389  0.0231
18470TIP3    H176825   2.098   4.766  12.498  2.0520 -0.6408 -2.0314
18470TIP3    H276826   1.970   4.735  12.423 -0.7625  0.3497  2.0034
18471TIP3   OH276827   0.882   0.890   3.593  0.0337  0.6800 -0.0780
18471TIP3    H176828   0.923   0.826   3.651 -0.1538  0.6746  0.0481
18471TIP3    H276829   0.815   0.932   3.646  1.2756  2.1935  0.3683
18472TIP3   OH276830   1.561   1.899  15.939  0.2041 -0.1735  0.5630
18472TIP3    H176831   1.495   1.946  15.990 -0.1613  1.2410 -1.1076
18472TIP3    H276832   1.644   1.937  15.967 -0.0578  1.2447 -0.4587
18473TIP3   OH276833   3.105   5.197   0.740 -0.2117  0.0603 -0.2795
18473TIP3    H176834   3.017   5.168   0.718 -0.8533  2.1052 -0.6048
18473TIP3    H276835   3.118   5.277   0.691  0.8667  1.1792  1.6693
18474TIP3   OH276836   3.226   0.069   3.279 -0.1885 -0.4362 -0.3946
18474TIP3    H176837   3.315   0.034   3.278  0.2744  0.6908 -0.1159
18474TIP3    H276838   3.236   0.161   3.303 -1.2967  0.0839 -1.7408
18475TIP3   OH276839   0.483   5.844   5.619 -0.1703 -0.6161 -0.3331
18475TIP3    H176840   0.450   5.816   5.705  0.9977  0.1394  0.3971
18475TIP3    H276841   0.556   5.903   5.640 -0.7776  0.7361 -1.8259
18476TIP3   OH276842   1.059   5.581  13.152  0.3310 -0.0983 -0.0614
18476TIP3    H176843   1.080   5.512  13.214 -1.3211  0.4481  1.1949
18476TIP3    H276844   1.042   5.535  13.070 -0.3339 -1.1577  0.6443
18477TIP3   OH276845   4.160   3.754  13.259  0.5657  0.2982  0.7185
18477TIP3    H176846   4.183   3.843  13.284  1.2283  0.0108  1.1550
18477TIP3    H276847   4.243   3.710  13.245  0.2395 -0.1859  0.2604
18478TIP3   OH276848   6.022   4.487  10.841  0.6161  0.5476  0.5451
18478TIP3    H176849   6.016   4.395  10.815 -0.8279  0.1677  1.9978
18478TIP3    H276850   6.114   4.499  10.866  0.8220 -0.5100  0.3464
18479TIP3   OH276851   1.543   3.284  15.390  0.4397 -0.4429 -0.3746
18479TIP3    H176852   1.613   3.245  15.337  0.1397  2.1751 -2.9496
18479TIP3    H276853   1.589   3.332  15.459  1.0196 -1.0910 -0.2993
18480TIP3   OH276854   0.727   3.516   5.601 -0.4275  0.2664  0.8361
18480TIP3    H176855   0.819   3.530   5.627  0.7217 -0.5928 -2.3302
18480TIP3    H276856   0.717   3.420   5.603  0.0605  0.0434 -2.4955
18481TIP3   OH276857   1.648   6.379   0.492  0.0168 -0.1672  0.2082
18481TIP3    H176858   1.734   6.343   0.469  1.7015  3.4005  0.1334
18481TIP3    H276859   1.653   6.395   0.586 -0.7586 -0.3867  0.2896
18482TIP3   OH276860   4.581   4.494   0.395  0.0978 -0.4174  0.0395
18482TIP3    H176861   4.550   4.534   0.313  1.2126  1.6131  0.5446
18482TIP3    H276862   4.510   4.510   0.457 -0.1882 -0.7876 -0.1839
18483TIP3   OH276863   1.796   5.202   4.165 -0.4740 -0.0519  0.5447
18483TIP3    H176864   1.743   5.241   4.095 -0.8813 -1.4551  0.0323
18483TIP3    H276865   1.791   5.108   4.149 -0.4016 -0.3912  2.3662
18484TIP3   OH276866   2.161   3.832   3.471 -0.2374 -0.7231  0.0132
18484TIP3    H176867   2.240   3.843   3.418 -1.0990  0.5949 -1.0743
18484TIP3    H276868   2.100   3.788   3.413 -0.7993 -0.3619  0.3246
18485TIP3   OH276869   6.165   4.826  15.215  0.7266  0.2633  0.5001
18485TIP3    H176870   6.122   4.758  15.163  0.9088  0.4321  0.1271
18485TIP3    H276871   6.164   4.792  15.304 -1.2497  0.7645  0.7150
18486TIP3   OH276872   5.159   2.794  16.577  0.2729  0.2517  0.1833
18486TIP3    H176873   5.199   2.737  16.511  1.9122  0.9186  0.5630
18486TIP3    H276874   5.168   2.746  16.659  0.1110  0.3143  0.2374
18487TIP3   OH276875   2.911   1.812  12.889 -0.4672 -0.2168 -0.1593
18487TIP3    H176876   2.845   1.744  12.874  0.2488 -0.2943 -4.0321
18487TIP3    H276877   2.984   1.766  12.931 -0.7221 -1.4556 -1.0190
18488TIP3   OH276878   6.621   1.537   3.619  0.3061 -0.4086  0.0004
18488TIP3    H176879   6.695   1.534   3.559  0.0598 -0.9570 -0.2742
18488TIP3    H276880   6.552   1.583   3.571  0.8940  1.3147  0.7358
18489TIP3   OH276881   3.702   0.698   6.195 -0.5486  0.7630 -0.3875
18489TIP3    H176882   3.643   0.624   6.188 -1.9741  1.9090 -0.9981
18489TIP3    H276883   3.729   0.716   6.105 -0.3943  1.1389 -0.2699
18490TIP3   OH276884   2.905   4.854  16.202 -0.6296 -0.0716  0.1277
18490TIP3    H176885   2.812   4.874  16.212 -0.4511  1.0848 -0.3606
18490TIP3    H276886   2.949   4.937  16.223  0.2683 -0.5328  0.0786
18491TIP3   OH276887   2.624   0.269   0.625 -0.1096  0.4382 -0.5845
18491TIP3    H176888   2.695   0.333   0.626  0.8149 -0.5071 -1.9519
18491TIP3    H276889   2.585   0.278   0.538  0.9122 -1.7391 -1.3224
18492TIP3   OH276890   4.129   5.000   0.499 -0.5302 -0.5057  0.0988
18492TIP3    H176891   4.174   4.961   0.424  1.3113  2.2215 -0.3582
18492TIP3    H276892   4.192   4.994   0.571 -0.3031  1.2099  0.0915
18493TIP3   OH276893   5.547   1.642  12.266  0.4056 -0.2576  0.4989
18493TIP3    H176894   5.467   1.601  12.233 -0.3772  1.6993 -0.2434
18493TIP3    H276895   5.617   1.585  12.236 -0.6333 -1.2234 -0.1845
18494TIP3   OH276896   4.631   4.169   4.495  0.2225 -0.3530  0.8571
18494TIP3    H176897   4.662   4.257   4.518  2.3369 -0.0733 -2.4673
18494TIP3    H276898   4.704   4.112   4.517  0.1295 -0.8179 -0.0432
18495TIP3   OH276899   5.057   3.688   5.898 -0.9355 -0.5148 -0.1812
18495TIP3    H176900   5.003   3.695   5.976 -1.3603 -1.1512 -0.4062
18495TIP3    H276901   5.111   3.610   5.914 -1.8149 -1.3205 -0.9768
18496TIP3   OH276902   2.510   3.359  15.621 -0.5142 -0.0940 -0.0892
18496TIP3    H176903   2.539   3.273  15.592  0.5568  0.2898 -0.2267
18496TIP3    H276904   2.562   3.421  15.569 -2.9559  0.7192 -1.7549
18497TIP3   OH276905   1.578   2.004   1.276 -0.1820  0.1342 -0.0445
18497TIP3    H176906   1.593   1.913   1.251 -0.0264  0.3240 -0.6587
18497TIP3    H276907   1.659   2.049   1.254 -0.9623  0.8059 -1.6706
18498TIP3   OH276908   2.159   3.171   1.310 -0.4696 -0.3368  0.2475
18498TIP3    H176909   2.241   3.153   1.357 -0.9648 -0.7872  0.9606
18498TIP3    H276910   2.187   3.192   1.221  0.3130 -2.5560 -0.0940
18499TIP3   OH276911   1.973   0.717   5.723  0.2549 -0.1243  0.3106
18499TIP3    H176912   1.915   0.694   5.650  0.5859 -0.1042  0.0404
18499TIP3    H276913   2.060   0.693   5.692  0.4671  0.4500  0.4683
18500TIP3   OH276914   2.674   4.954   5.711  0.0225 -0.3001 -0.1549
18500TIP3    H176915   2.707   5.006   5.784 -1.1512 -0.3923  0.4563
18500TIP3    H276916   2.643   5.018   5.647  3.9362 -0.0201 -2.1567
18501TIP3   OH276917   5.076   3.170  15.612 -0.3242  0.1815  0.6374
18501TIP3    H176918   5.042   3.152  15.525 -0.8274 -3.5886  1.4302
18501TIP3    H276919   5.171   3.177  15.600 -0.5129  1.2557 -0.3532
18502TIP3   OH276920   1.358   4.472   1.719  0.2267 -0.3532 -0.2846
18502TIP3    H176921   1.309   4.392   1.735  1.1074 -0.5718  1.5972
18502TIP3    H276922   1.295   4.533   1.682 -0.6178 -1.6839 -1.1036
18503TIP3   OH276923   4.590   6.037  10.787 -0.4186 -0.0378 -0.0679
18503TIP3    H176924   4.499   6.063  10.774 -1.1428 -1.3135  1.9889
18503TIP3    H276925   4.585   5.958  10.841  1.8832 -0.7382 -0.7732
18504TIP3   OH276926   2.206   1.286   3.610  0.1058 -0.3631  0.4029
18504TIP3    H176927   2.272   1.254   3.671  1.0626  0.2360 -0.2950
18504TIP3    H276928   2.207   1.222   3.538 -1.2963 -1.2879  1.1571
18505TIP3   OH276929   5.891   6.171   2.953 -0.1687 -0.2244  0.5271
18505TIP3    H176930   5.942   6.096   2.983 -0.1775  0.0625  1.2830
18505TIP3    H276931   5.833   6.192   3.026  0.0336  0.6995  0.4398
18506TIP3   OH276932   6.548   4.074  15.000  0.4686  0.2955 -0.4636
18506TIP3    H176933   6.603   4.133  15.052  1.3430 -0.1152 -0.8958
18506TIP3    H276934   6.492   4.133  14.949  1.8337  0.8188 -1.4387
18507TIP3   OH276935   3.831   2.627   0.370 -0.1862 -0.0560 -0.3152
18507TIP3    H176936   3.775   2.551   0.384  1.3168 -1.2887 -0.6581
18507TIP3    H276937   3.812   2.655   0.280 -1.0194  0.2362 -0.0567
18508TIP3   OH276938   2.813   0.019  13.126  0.2091  0.1413  0.3048
18508TIP3    H176939   2.878   0.088  13.112  0.5128  0.1229  1.5270
18508TIP3    H276940   2.863  -0.062  13.122 -0.2768 -0.1181 -1.9804
18509TIP3   OH276941   5.653   2.423  10.389  0.1164  0.2975  0.2192
18509TIP3    H176942   5.558   2.430  10.378  0.0915 -0.0792  0.1843
18509TIP3    H276943   5.686   2.509  10.362 -0.2247  0.4818  0.3744
18510TIP3   OH276944   6.050   1.888   2.493  0.4941  0.2887 -0.0883
18510TIP3    H176945   5.983   1.848   2.549  0.4893  0.8102  0.2872
18510TIP3    H276946   6.094   1.951   2.550  0.3245  1.0041 -0.7396
18511TIP3   OH276947   3.250   2.755  10.606 -0.3846  0.0490 -0.2993
18511TIP3    H176948   3.293   2.732  10.689  1.4886 -0.0183 -1.2427
18511TIP3    H276949   3.209   2.674  10.577  0.8994 -0.5490 -0.5306
18512TIP3   OH276950   3.596   4.079  13.881 -0.1681 -0.7458  1.0711
18512TIP3    H176951   3.678   4.046  13.919 -0.8654 -2.5508  1.1168
18512TIP3    H276952   3.540   4.096  13.957 -0.2873 -0.7545  0.9848
18513TIP3   OH276953   4.483   0.269  17.178  0.1301 -0.4940  0.0990
18513TIP3    H176954   4.454   0.313  17.258 -0.7831  0.3172 -0.6485
18513TIP3    H276955   4.408   0.276  17.118  1.5562  0.9161 -1.6227
18514TIP3   OH276956   0.471   1.063  12.636 -0.4302  0.3491 -0.2806
18514TIP3    H176957   0.507   1.005  12.703  0.3917  0.8934 -0.2366
18514TIP3    H276958   0.548   1.103  12.595 -0.9688  2.5536  0.7008
18515TIP3   OH276959   6.075   1.292  12.533  0.3655  0.2708 -0.3055
18515TIP3    H176960   6.003   1.262  12.477  0.5690  1.4886 -1.2863
18515TIP3    H276961   6.091   1.220  12.594 -0.2112 -0.9075 -1.4972
18516TIP3   OH276962   2.603   3.567  15.281  0.2227 -0.0932  0.0227
18516TIP3    H176963   2.621   3.504  15.211  0.9719 -1.1948  1.1631
18516TIP3    H276964   2.513   3.548  15.307  0.3274 -0.4672  0.1219
18517TIP3   OH276965   6.453   0.211   0.034  0.2865  0.6791 -0.2748
18517TIP3    H176966   6.486   0.301   0.040  2.0651 -0.0361  1.2883
18517TIP3    H276967   6.531   0.157   0.026 -0.7039 -0.8252 -0.1092
18518TIP3   OH276968   2.611   4.829  15.338  0.7857  0.2408  0.3169
18518TIP3    H176969   2.540   4.796  15.393 -2.1514  3.2790 -1.3139
18518TIP3    H276970   2.629   4.917  15.372  2.0230  0.4793 -0.8635
18519TIP3   OH276971   3.490   0.005   5.965 -0.4973 -0.3588 -0.6558
18519TIP3    H176972   3.466  -0.054   6.037 -0.6630  1.1494  0.5675
18519TIP3    H276973   3.579  -0.022   5.941 -0.1756 -0.4658  0.5686
18520TIP3   OH276974   6.688   6.734  14.787 -0.1650  0.5907 -0.5535
18520TIP3    H176975   6.690   6.670  14.715 -2.0817 -0.7236  0.4691
18520TIP3    H276976   6.622   6.797  14.761  0.3936  1.1292 -0.7023
18521TIP3   OH276977   2.580   2.273   3.493  0.1537  0.1151 -0.0634
18521TIP3    H176978   2.673   2.295   3.480  0.4058  0.3211  1.9169
18521TIP3    H276979   2.542   2.351   3.532 -0.5088 -0.5078  0.5580
18522TIP3   OH276980   5.568   4.950  10.844 -0.3579  0.1025  0.1275
18522TIP3    H176981   5.591   5.040  10.818  0.3069  0.0985  0.6488
18522TIP3    H276982   5.638   4.925  10.905 -0.3488 -0.9008 -0.2810
18523TIP3   OH276983   4.422   1.791  11.909 -0.4179  0.0992  0.5816
18523TIP3    H176984   4.465   1.877  11.908  0.2301 -0.2223 -0.3500
18523TIP3    H276985   4.341   1.805  11.859  0.7742 -0.3351 -1.6119
18524TIP3   OH276986   3.028   4.657   1.842  0.3499 -0.5368 -0.4847
18524TIP3    H176987   3.038   4.645   1.936  3.1212 -0.6082 -0.7066
18524TIP3    H276988   3.015   4.751   1.831 -1.4501 -0.6903  0.0078
18525TIP3   OH276989   5.343   3.374   1.773 -0.0886  0.2984 -0.3068
18525TIP3    H176990   5.396   3.329   1.839 -0.2756 -1.1758 -1.1248
18525TIP3    H276991   5.253   3.362   1.801 -0.1144  0.9370 -0.0800
18526TIP3   OH276992   2.763   1.961  15.365 -0.1606  0.2431 -0.5788
18526TIP3    H176993   2.745   2.033  15.305  2.5127  0.4407 -1.2643
18526TIP3    H276994   2.820   1.902  15.316  0.0795 -0.8756  0.9541
18527TIP3   OH276995   1.934   3.742   1.161  0.5941  0.3105 -0.0450
18527TIP3    H176996   1.983   3.661   1.151  1.4880  0.9373 -0.9071
18527TIP3    H276997   1.909   3.766   1.072 -0.3301  0.5837  0.2753
18528TIP3   OH276998   5.688   1.123  14.067  0.0203 -0.3178 -0.2233
18528TIP3    H176999   5.648   1.072  13.997  1.2136 -0.6085 -0.7091
18528TIP3    H277000   5.782   1.120  14.049  0.6604 -2.4365  2.7202
18529TIP3   OH277001   2.940   3.138  16.303  0.2367 -0.6350 -0.2088
18529TIP3    H177002   2.855   3.143  16.258  0.0415 -5.2303 -0.8385
18529TIP3    H277003   2.921   3.096  16.386  1.8598 -1.5794 -0.2756
18530TIP3   OH277004   0.954   5.532  14.299 -0.5723 -0.4679  0.0048
18530TIP3    H177005   0.877   5.488  14.334 -0.9480  1.1208  1.2973
18530TIP3    H277006   0.922   5.585  14.227 -0.6861  0.1083  0.4721
18531TIP3   OH277007   4.851   4.533   0.485  0.5476 -0.7158 -0.4199
18531TIP3    H177008   4.855   4.446   0.523 -0.9029 -0.5119  0.2368
18531TIP3    H277009   4.773   4.532   0.429  0.1396  0.3516  0.1003
18532TIP3   OH277010   1.278   5.846  15.413 -0.0539 -0.0579  0.2288
18532TIP3    H177011   1.313   5.792  15.342 -2.5914  0.9264 -1.9448
18532TIP3    H277012   1.355   5.888  15.452  1.6705 -2.7109 -0.0781
18533TIP3   OH277013   6.136   2.035   0.388  0.2738 -0.0201 -0.0467
18533TIP3    H177014   6.143   2.117   0.437 -0.9139  0.4944 -0.6760
18533TIP3    H277015   6.042   2.018   0.383  0.4779 -1.1598 -0.3623
18534TIP3   OH277016   4.151   3.181   1.511  0.3684  0.0519 -0.2874
18534TIP3    H177017   4.200   3.103   1.484  1.2948  0.9276 -1.1883
18534TIP3    H277018   4.152   3.177   1.607 -0.1613 -1.3728 -0.3206
18535TIP3   OH277019   2.510   4.270   6.370 -0.2131 -0.5999  0.5553
18535TIP3    H177020   2.583   4.294   6.427  0.7764  0.0777 -0.9493
18535TIP3    H277021   2.439   4.328   6.396 -0.4307 -1.5935  2.3728
18536TIP3   OH277022   4.391   0.979   3.940  0.2022  0.6600 -0.1381
18536TIP3    H177023   4.397   0.942   4.028 -0.2750  1.7390  0.3677
18536TIP3    H277024   4.299   1.000   3.929  0.0397 -0.5102 -1.3662
18537TIP3   OH277025   2.449   1.979   0.576 -0.2043 -0.0631  0.5251
18537TIP3    H177026   2.452   2.035   0.498 -1.7700 -1.1767 -0.3935
18537TIP3    H277027   2.466   2.039   0.649  0.3156  1.1922 -0.5886
18538TIP3   OH277028   1.588   2.650  14.537  0.5217  0.0422  1.2719
18538TIP3    H177029   1.619   2.733  14.500  0.0237 -0.1457  0.4057
18538TIP3    H277030   1.644   2.584  14.496  0.8714 -0.0625  1.9071
18539TIP3   OH277031   2.806   1.387   2.606 -1.2840 -0.4883 -0.2271
18539TIP3    H177032   2.855   1.364   2.685 -0.0087 -0.0191 -0.8402
18539TIP3    H277033   2.856   1.459   2.567 -4.2087  2.3446  0.7724
18540TIP3   OH277034   2.699   4.193  14.905 -0.3969  0.4064 -0.2945
18540TIP3    H177035   2.705   4.283  14.936 -1.2503  0.0936  0.8407
18540TIP3    H277036   2.677   4.142  14.983  0.2126 -0.8089 -0.8924
18541TIP3   OH277037   5.969   0.076   1.594 -0.2543 -0.4208 -0.2528
18541TIP3    H177038   6.040   0.070   1.529  0.0006  0.6063 -0.0769
18541TIP3    H277039   5.964  -0.013   1.630  0.7930 -0.5721 -0.4310
18542TIP3   OH277040   5.077   4.808  13.764 -0.4787  0.4429 -0.0153
18542TIP3    H177041   5.129   4.815  13.844  0.0080  0.7797 -0.3558
18542TIP3    H277042   5.118   4.738  13.714 -1.1201 -0.1425  0.2749
18543TIP3   OH277043   0.165   6.508  13.308  0.2847  0.2225 -0.0264
18543TIP3    H177044   0.106   6.575  13.273 -0.9088 -0.6340  0.2837
18543TIP3    H277045   0.149   6.432  13.253 -0.6076 -0.7206  1.4746
18544TIP3   OH277046   1.515   3.205   2.547 -0.1315 -0.6112  0.3343
18544TIP3    H177047   1.525   3.171   2.636 -1.2640  0.7730  1.0272
18544TIP3    H277048   1.455   3.279   2.556  2.1944  1.6128 -1.0789
18545TIP3   OH277049   0.883   6.106  17.283  0.2116 -0.6740  0.2807
18545TIP3    H177050   0.825   6.182  17.273  0.7379 -0.4736 -1.7014
18545TIP3    H277051   0.824   6.035  17.310 -0.1557  0.5516  3.0712
18546TIP3   OH277052   5.447   6.745  12.154 -0.3946 -0.1342  0.4059
18546TIP3    H177053   5.463   6.671  12.212 -1.5132 -0.5600  0.1880
18546TIP3    H277054   5.506   6.730  12.079 -0.8571 -0.9884  0.2023
18547TIP3   OH277055   0.096   2.270  15.268 -0.1765  0.5306  0.4716
18547TIP3    H177056   0.167   2.271  15.332  3.2092 -2.0909 -2.7316
18547TIP3    H277057   0.044   2.192  15.290 -0.4228  0.9098  1.2597
18548TIP3   OH277058   5.292   4.758  16.076 -0.9884 -0.5691  0.2324
18548TIP3    H177059   5.335   4.673  16.067 -0.5757 -0.3356 -0.0257
18548TIP3    H277060   5.326   4.810  16.003 -0.5946  0.0915  0.8891
18549TIP3   OH277061   0.794   0.361  15.179  0.6552  0.0595 -0.1622
18549TIP3    H177062   0.825   0.414  15.252 -0.6369 -0.8269  1.1089
18549TIP3    H277063   0.871   0.312  15.150  1.2710  0.6805  0.3844
18550TIP3   OH277064   3.110   3.755   4.984  0.4182  0.3926 -0.1410
18550TIP3    H177065   3.198   3.724   5.005  0.0781 -0.9698 -0.5876
18550TIP3    H277066   3.070   3.681   4.938 -0.8052  1.1600 -0.3391
18551TIP3   OH277067   6.005   6.680  12.871  0.3360 -0.9201 -0.0519
18551TIP3    H177068   6.077   6.675  12.808 -1.0789 -2.1925 -1.6766
18551TIP3    H277069   5.986   6.589  12.893 -0.8184 -0.6170  0.2878
18552TIP3   OH277070   2.188   0.851   0.735  0.0823  0.7574  0.0690
18552TIP3    H177071   2.170   0.758   0.745  0.7136  0.3709 -2.0335
18552TIP3    H277072   2.221   0.878   0.821  1.0670 -1.2323  0.3709
18553TIP3   OH277073   5.662   4.160   4.351 -0.8656 -0.2455 -0.1819
18553TIP3    H177074   5.626   4.238   4.310 -1.3553  0.2693  1.1656
18553TIP3    H277075   5.629   4.163   4.441 -1.3741 -2.3051 -0.2523
18554TIP3   OH277076   3.327   4.812   3.330 -0.0510  0.3849 -0.4668
18554TIP3    H177077   3.344   4.778   3.418  1.1577 -0.6868 -1.0864
18554TIP3    H277078   3.405   4.863   3.309 -0.2509  0.4648 -1.0129
18555TIP3   OH277079   4.749   2.703  13.178  0.6397 -0.1876  0.2317
18555TIP3    H177080   4.832   2.659  13.163  0.6000  0.3372 -1.7009
18555TIP3    H277081   4.688   2.663  13.115  0.1936  1.4452 -0.4299
18556TIP3   OH277082   6.619   0.879   1.365 -0.6208  0.0890 -0.1454
18556TIP3    H177083   6.611   0.819   1.440  1.1206  1.2634  1.0384
18556TIP3    H277084   6.594   0.825   1.289 -1.4033 -1.4440  1.1249
18557TIP3   OH277085   6.017   4.865  12.384  0.2680  0.2511 -0.0642
18557TIP3    H177086   6.036   4.854  12.477  0.3428 -1.4459 -0.2562
18557TIP3    H277087   5.925   4.892  12.382 -0.5819 -2.3272  0.4511
18558TIP3   OH277088   5.726   1.901  13.079 -0.0504 -0.3275 -0.6267
18558TIP3    H177089   5.673   1.884  13.157  0.6530 -0.9826 -0.2683
18558TIP3    H277090   5.816   1.900  13.111  0.1894  0.8655 -1.2047
18559TIP3   OH277091   3.774   2.575  16.952 -0.0365  0.4619  0.0565
18559TIP3    H177092   3.813   2.654  16.989  0.0825  1.1261 -1.4359
18559TIP3    H277093   3.680   2.586  16.967 -0.1355  1.4656 -1.1666
18560TIP3   OH277094   1.486   6.208  16.205 -0.6863 -0.5062 -0.0421
18560TIP3    H177095   1.573   6.207  16.166 -0.4970  1.9468  0.1874
18560TIP3    H277096   1.426   6.215  16.131 -0.4985  0.8145 -0.0915
18561TIP3   OH277097   5.938   0.361  12.328 -0.2942 -0.1034  0.7329
18561TIP3    H177098   5.863   0.323  12.373 -0.6423  0.2203  0.4363
18561TIP3    H277099   5.968   0.291  12.269 -0.3137 -0.2599  0.9067
18562TIP3   OH277100   1.453   2.115   1.914  0.4347 -0.1137  0.5774
18562TIP3    H177101   1.373   2.160   1.942  0.0600 -0.4393  0.0729
18562TIP3    H277102   1.524   2.168   1.948  0.0032  0.7684  0.1336
18563TIP3   OH277103   0.208   3.832   5.366  0.1854  0.2203 -0.0304
18563TIP3    H177104   0.209   3.794   5.454 -0.6648 -0.5969 -0.3525
18563TIP3    H277105   0.244   3.920   5.377 -0.8482  0.5105  1.3133
18564TIP3   OH277106   6.108   0.793   3.389  0.7354  0.1906  0.0591
18564TIP3    H177107   6.150   0.741   3.458 -0.6018 -0.4208  0.4613
18564TIP3    H277108   6.034   0.835   3.433 -2.7504 -3.4424 -1.6578
18565TIP3   OH277109   0.260   4.431   0.580  0.0273  0.1824  0.4643
18565TIP3    H177110   0.349   4.432   0.544 -0.0408  1.3861  0.2839
18565TIP3    H277111   0.209   4.484   0.519 -0.6204  0.2325  1.0403
18566TIP3   OH277112   6.292   3.560  15.074 -0.1564  0.7933 -0.9195
18566TIP3    H177113   6.293   3.585  15.166  0.9869 -1.1322 -0.3549
18566TIP3    H277114   6.202   3.573  15.046 -1.0345 -0.5558  1.0707
18567TIP3   OH277115   1.035   1.376   0.589 -0.3594  0.1550  0.0284
18567TIP3    H177116   1.070   1.448   0.642  1.2225 -0.1855 -0.4950
18567TIP3    H277117   0.940   1.381   0.601 -0.1984  1.5874  0.9366
18568TIP3   OH277118   5.965   3.431   0.055 -0.3133  0.1655  0.2123
18568TIP3    H177119   5.983   3.338   0.066  0.7626  0.2106 -0.9088
18568TIP3    H277120   5.971   3.446  -0.039 -3.4105  0.8332  0.0066
18569TIP3   OH277121   1.501   1.545   3.437 -0.0512 -0.1177 -0.0291
18569TIP3    H177122   1.586   1.590   3.429 -0.4836  0.8629  0.6841
18569TIP3    H277123   1.504   1.505   3.524  0.0476 -0.8732 -0.3797
18570TIP3   OH277124   4.697   5.477  12.949 -0.8431  0.1241 -0.6674
18570TIP3    H177125   4.753   5.550  12.922 -1.9982  0.8928 -1.0612
18570TIP3    H277126   4.696   5.482  13.045  1.2603 -1.0788 -0.5259
18571TIP3   OH277127   5.842   1.630  11.584 -0.2023 -0.0714 -0.3488
18571TIP3    H177128   5.764   1.674  11.617 -1.9699 -2.6653 -0.7356
18571TIP3    H277129   5.871   1.574  11.657 -0.8134 -1.6955 -1.3134
18572TIP3   OH277130   6.675   2.305   2.119 -0.4470  0.1206  0.1289
18572TIP3    H177131   6.613   2.291   2.047 -0.9031 -0.0508  0.5544
18572TIP3    H277132   6.688   2.400   2.120 -1.0402  0.2020  0.3207
18573TIP3   OH277133   4.454   4.127   2.244 -0.4252 -1.0507 -0.2938
18573TIP3    H177134   4.476   4.200   2.301 -0.8022 -1.2300  0.0924
18573TIP3    H277135   4.359   4.128   2.239 -0.5623 -2.5236  1.1042
18574TIP3   OH277136   6.734   1.703  15.056 -0.3254 -0.0614 -0.2109
18574TIP3    H177137   6.690   1.705  15.141 -0.8541  1.3971 -0.4948
18574TIP3    H277138   6.720   1.790  15.019  1.5717 -0.0155 -0.9504
18575TIP3   OH277139   2.489   2.231  16.073  0.1318 -0.3501 -0.3958
18575TIP3    H177140   2.463   2.322  16.088  0.6016 -0.2700 -0.0098
18575TIP3    H277141   2.546   2.235  15.996  1.4232 -0.0649  0.5280
18576TIP3   OH277142   0.696   4.928  10.510 -0.8248 -0.2013 -0.2920
18576TIP3    H177143   0.681   4.949  10.602 -1.9125 -0.4406 -0.4021
18576TIP3    H277144   0.778   4.879  10.510  0.1025  1.2690  0.3319
18577TIP3   OH277145   5.940   0.667   4.214  0.2156 -0.2627  0.9138
18577TIP3    H177146   5.876   0.629   4.154 -0.3627 -0.1547  1.4580
18577TIP3    H277147   5.942   0.760   4.191  0.9638 -0.4391  0.1935
18578TIP3   OH277148   1.345   5.518  16.307 -0.4668 -0.2069  0.9368
18578TIP3    H177149   1.310   5.510  16.396 -0.9889 -0.7707  0.6815
18578TIP3    H277150   1.268   5.514  16.250  0.0054 -1.4903  0.3714
18579TIP3   OH277151   3.149   6.677  13.378 -0.2743  0.4651  0.5243
18579TIP3    H177152   3.175   6.763  13.411 -0.3441  0.5647  0.3279
18579TIP3    H277153   3.055   6.672  13.395 -0.4681  0.8477 -0.3628
18580TIP3   OH277154   4.380   3.019  14.372  0.1143 -0.0768  0.8451
18580TIP3    H177155   4.407   2.988  14.285  0.0401 -0.5947  0.9993
18580TIP3    H277156   4.460   3.019  14.424  0.0062 -0.6631  1.0278
18581TIP3   OH277157   2.992   3.403  13.579 -0.0665  0.4311  0.5782
18581TIP3    H177158   2.903   3.385  13.611  0.3669  0.3875  1.8007
18581TIP3    H277159   2.978   3.440  13.492 -1.2926  0.4857  0.7694
18582TIP3   OH277160   4.667   3.351   0.711  0.1786 -0.1014 -0.3028
18582TIP3    H177161   4.621   3.431   0.688 -0.5048 -0.5399 -0.4863
18582TIP3    H277162   4.626   3.322   0.793  2.0154  0.9904  1.0930
18583TIP3   OH277163   5.345   5.279   1.911 -0.1994  0.4000  0.0530
18583TIP3    H177164   5.291   5.358   1.923 -0.3083  0.4226 -0.5723
18583TIP3    H277165   5.427   5.311   1.873 -0.4831  0.1492 -0.7945
18584TIP3   OH277166   6.438   4.112  16.006  0.2068  0.9492 -0.0031
18584TIP3    H177167   6.357   4.148  16.043  0.3013  0.6333  0.5258
18584TIP3    H277168   6.410   4.059  15.932  0.1724  3.3245 -1.7899
18585TIP3   OH277169   6.766   4.173   4.909  0.1306 -0.3098 -0.1042
18585TIP3    H177170   6.730   4.091   4.941  0.1322 -0.6271 -0.8997
18585TIP3    H277171   6.705   4.202   4.841  0.4421  0.0432 -0.2423
18586TIP3   OH277172   5.463   6.471  15.469 -0.2950 -0.0367  0.0805
18586TIP3    H177173   5.382   6.499  15.511 -0.4203  1.2830 -0.9733
18586TIP3    H277174   5.435   6.431  15.387  0.0970 -0.1701  0.0087
18587TIP3   OH277175   4.470   1.776   2.138 -0.1119 -0.5681  0.1257
18587TIP3    H177176   4.427   1.770   2.223  0.8439 -0.8823  0.6116
18587TIP3    H277177   4.456   1.691   2.097  0.3720 -0.8101  0.4537
18588TIP3   OH277178   4.629   1.086   3.526  0.9718 -0.2117  0.4812
18588TIP3    H177179   4.608   0.993   3.514 -2.0134  0.5441 -1.4085
18588TIP3    H277180   4.689   1.088   3.601  2.0585 -3.7046 -0.1150
18589TIP3   OH277181   6.470   2.417   0.319  0.3510 -0.0581 -0.2295
18589TIP3    H177182   6.382   2.434   0.287 -0.3766 -2.5962  0.1950
18589TIP3    H277183   6.459   2.403   0.413  1.2527 -0.1836 -0.1352
18590TIP3   OH277184   2.123   6.740   3.904 -0.2290 -0.0426 -0.0560
18590TIP3    H177185   2.060   6.716   3.973 -1.3748  1.9116 -0.3376
18590TIP3    H277186   2.208   6.714   3.940 -0.9220 -0.3062  1.5123
18591TIP3   OH277187   1.912   5.387  13.220 -0.3592 -0.0122  0.3695
18591TIP3    H177188   1.970   5.455  13.253 -0.5802  1.2072 -1.5910
18591TIP3    H277189   1.832   5.395  13.272 -0.8879  2.1683 -0.6686
18592TIP3   OH277190   3.862   5.758  15.351 -0.3655  0.4005 -0.1477
18592TIP3    H177191   3.782   5.707  15.365 -0.5474  0.6312 -0.3301
18592TIP3    H277192   3.850   5.797  15.264 -1.0625  2.2467  0.7238
18593TIP3   OH277193   1.068   2.729  11.631 -0.4255  0.0218 -0.6971
18593TIP3    H177194   1.101   2.680  11.706  0.0917  0.6234 -0.5253
18593TIP3    H277195   1.075   2.820  11.657 -0.3455  0.2316 -1.4401
18594TIP3   OH277196   5.389   3.959  11.405  0.1712  0.2451  0.2646
18594TIP3    H177197   5.299   3.989  11.411  0.7697  2.3226 -0.3165
18594TIP3    H277198   5.412   3.932  11.494 -1.5651 -2.1960  0.0715
18595TIP3   OH277199   5.625   1.782   5.671 -0.5059  0.2135  0.0723
18595TIP3    H177200   5.565   1.840   5.716 -0.3581 -0.2620  0.8924
18595TIP3    H277201   5.630   1.704   5.726  0.8250  0.2228 -0.0096
18596TIP3   OH277202   1.826   2.337  12.886 -0.0345 -0.1699  0.6332
18596TIP3    H177203   1.783   2.314  12.804  0.9371 -2.1145  0.6286
18596TIP3    H277204   1.864   2.424  12.869  0.3404 -0.6336 -1.0516
18597TIP3   OH277205   2.926   1.616   2.803 -0.0298  0.5071 -0.5951
18597TIP3    H177206   2.832   1.626   2.811 -0.0720  0.5975 -1.1382
18597TIP3    H277207   2.939   1.522   2.789 -0.0169  0.4557 -0.2338
18598TIP3   OH277208   2.365   3.569  15.450 -0.0568 -0.6778  0.0408
18598TIP3    H177209   2.372   3.567  15.546  1.2503 -2.4710 -0.0378
18598TIP3    H277210   2.299   3.503  15.429 -2.8418  2.0052 -0.2198
18599TIP3   OH277211   3.832   6.319   1.085  0.5952  0.0291 -0.2710
18599TIP3    H177212   3.865   6.244   1.036  1.7739  0.8016 -0.6934
18599TIP3    H277213   3.897   6.388   1.071  0.2546  0.7060  1.2412
18600TIP3   OH277214   0.045   3.932  11.877  0.3889 -0.2803 -0.1115
18600TIP3    H177215   0.091   3.876  11.815  1.4896 -1.3788  1.6041
18600TIP3    H277216   0.009   3.872  11.942  1.2079  0.9238  1.5349
18601TIP3   OH277217   5.877   4.590   2.830 -0.0223  0.0178  0.3846
18601TIP3    H177218   5.837   4.541   2.902 -0.9235 -1.8277 -1.2661
18601TIP3    H277219   5.812   4.587   2.760  0.8854  1.6196 -0.5910
18602TIP3   OH277220   2.385   4.418  13.222  0.0500 -0.4240  0.4934
18602TIP3    H177221   2.473   4.442  13.252  0.5583 -0.2478 -1.0821
18602TIP3    H277222   2.399   4.349  13.157 -1.0011 -0.5831  0.4168
18603TIP3   OH277223   4.431   6.387  12.944  0.0154 -0.3783  0.3344
18603TIP3    H177224   4.451   6.463  12.890 -0.8656 -0.0351  0.4709
18603TIP3    H277225   4.395   6.323  12.883 -1.0654  0.0426  0.5013
18604TIP3   OH277226   2.079   0.989   2.580  0.0846  0.3672  0.1783
18604TIP3    H177227   2.109   1.063   2.633 -1.2164 -0.2939  1.9592
18604TIP3    H277228   2.155   0.930   2.575  0.4975  0.8627  0.5326
18605TIP3   OH277229   2.620   0.923   1.067  0.5223 -0.0406  0.2636
18605TIP3    H177230   2.695   0.899   1.012  1.7353  0.7770  1.4975
18605TIP3    H277231   2.616   0.853   1.132 -0.3929 -0.5736 -0.3533
18606TIP3   OH277232   5.711   5.230   1.692 -0.2617  0.3618 -0.6353
18606TIP3    H177233   5.651   5.158   1.679 -0.4921  0.3174  0.5965
18606TIP3    H277234   5.661   5.296   1.740  0.4316  0.6382 -0.2630
18607TIP3   OH277235   4.611   5.221   4.204  0.0285 -0.1801  0.2736
18607TIP3    H177236   4.591   5.307   4.239 -0.0462  0.5492 -1.4266
18607TIP3    H277237   4.645   5.171   4.278  0.1301  1.3247  1.2766
18608TIP3   OH277238   1.489   3.099   4.880 -0.1429  0.8040 -0.1749
18608TIP3    H177239   1.423   3.110   4.812  0.5850  0.1630 -1.0096
18608TIP3    H277240   1.468   3.016   4.922 -1.1185  1.6079  1.0212
18609TIP3   OH277241   5.964   0.991  16.203  0.5931 -0.2494 -0.0246
18609TIP3    H177242   5.881   0.946  16.186  1.4492 -2.0849  0.4065
18609TIP3    H277243   5.961   1.069  16.148 -1.3596 -0.3240 -0.1050
18610TIP3   OH277244   5.036   1.101  15.186  0.1316  0.2314 -0.0253
18610TIP3    H177245   4.966   1.161  15.215  0.3422  0.3975  0.1430
18610TIP3    H277246   5.041   1.036  15.256  0.2785  0.3311  0.0570
18611TIP3   OH277247   3.468   1.923  12.665  0.5659  0.1638 -0.1695
18611TIP3    H177248   3.481   1.829  12.657  0.8699  0.3044 -1.4783
18611TIP3    H277249   3.454   1.937  12.759  0.4928 -1.1760  0.0374
18612TIP3   OH277250   6.583   5.389  16.974  0.7892 -0.9837 -0.0773
18612TIP3    H177251   6.674   5.366  16.954  2.1547  1.3715  2.6967
18612TIP3    H277252   6.570   5.475  16.934  0.2470 -0.7334  0.6003
18613TIP3   OH277253   4.286   3.249   1.095 -0.0326 -0.4238 -0.6727
18613TIP3    H177254   4.284   3.155   1.108 -0.1702 -0.2540  0.6983
18613TIP3    H277255   4.194   3.276   1.100 -0.0324 -0.2685 -1.4801
18614TIP3   OH277256   6.088   3.884  11.172 -0.2537  0.1805  0.4215
18614TIP3    H177257   6.068   3.851  11.259 -1.8609 -1.0459 -0.3552
18614TIP3    H277258   6.032   3.961  11.162  0.5720  0.8416  0.7680
18615TIP3   OH277259   2.418   0.908   2.831  0.0302  0.7752 -0.1384
18615TIP3    H177260   2.488   0.864   2.783  0.9298  0.6179  1.2589
18615TIP3    H277261   2.337   0.865   2.801  0.8717 -1.9830  1.2651
18616TIP3   OH277262   2.606   1.129  11.318 -0.5275 -0.1516 -0.6783
18616TIP3    H177263   2.541   1.195  11.343  0.0257  0.1346  0.0323
18616TIP3    H277264   2.633   1.155  11.230 -2.4074 -1.1050 -1.6029
18617TIP3   OH277265   0.317   0.060  12.751 -0.2133  0.6160  0.2333
18617TIP3    H177266   0.409   0.045  12.772  0.3673  2.3809 -0.8758
18617TIP3    H277267   0.281  -0.028  12.735  1.3513 -0.0656  0.3485
18618TIP3   OH277268   0.720   4.108  17.111 -0.2369 -0.0374  0.2401
18618TIP3    H177269   0.703   4.084  17.202 -1.5125  0.2940  0.1111
18618TIP3    H277270   0.669   4.046  17.059 -0.0695  0.2099 -0.2265
18619TIP3   OH277271   4.194   6.119  16.891  0.4711  0.2414 -0.4984
18619TIP3    H177272   4.142   6.063  16.834 -0.5701  2.2500 -1.6471
18619TIP3    H277273   4.267   6.149  16.836 -0.0700  1.5215 -0.5533
18620TIP3   OH277274   3.313   2.343  15.359  0.3996  0.6768  0.0492
18620TIP3    H177275   3.277   2.418  15.313 -0.8627 -0.4584 -0.8765
18620TIP3    H277276   3.330   2.278  15.291 -0.9421 -0.8118  1.0597
18621TIP3   OH277277   0.030   2.492   3.239 -0.3079 -0.2722  0.4781
18621TIP3    H177278   0.038   2.406   3.278  0.8017 -0.6351 -0.4597
18621TIP3    H277279   0.011   2.551   3.312  0.0974 -1.1455  1.3066
18622TIP3   OH277280   4.051   0.821   2.088 -0.0366  0.2879  0.1150
18622TIP3    H177281   4.143   0.801   2.075 -0.4885 -2.1686  0.1151
18622TIP3    H277282   4.013   0.821   2.000 -0.1645  0.5304  0.1694
18623TIP3   OH277283   4.932   1.489   1.058 -0.7367  0.0381 -0.1030
18623TIP3    H177284   4.933   1.455   1.147 -1.9874 -1.4470 -0.6236
18623TIP3    H277285   4.854   1.545   1.053 -1.8395 -1.5067 -0.8043
18624TIP3   OH277286   5.722   0.819  14.304 -0.6673 -0.1818 -0.0704
18624TIP3    H177287   5.745   0.773  14.385 -0.1222 -0.6123 -0.4581
18624TIP3    H277288   5.627   0.818  14.302 -0.6857 -0.2661  0.5075
18625TIP3   OH277289   1.984   5.630   4.703  0.5456  0.3037  0.1117
18625TIP3    H177290   1.950   5.720   4.704 -0.7253 -0.1507  1.0704
18625TIP3    H277291   2.041   5.626   4.780  0.7868  0.3426 -0.0624
18626TIP3   OH277292   0.705   5.475   5.520 -0.0764  0.4619 -0.3828
18626TIP3    H177293   0.697   5.460   5.614  1.0011 -0.7426 -0.4619
18626TIP3    H277294   0.668   5.397   5.480 -1.4773  1.4047 -1.0186
18627TIP3   OH277295   1.388   1.490   4.160 -0.5297  0.4024 -0.4498
18627TIP3    H177296   1.430   1.504   4.075 -0.8233  3.5979 -0.2094
18627TIP3    H277297   1.305   1.537   4.154 -1.5358 -1.0609  0.9620
18628TIP3   OH277298   4.926   4.233   3.282 -0.4108  0.1348  0.2638
18628TIP3    H177299   4.972   4.302   3.235 -1.4577  0.5870 -0.1245
18628TIP3    H277300   4.842   4.272   3.307 -0.1012 -0.2545  2.0697
18629TIP3   OH277301   4.171   2.532   5.763 -0.4436  0.0388 -0.4124
18629TIP3    H177302   4.240   2.582   5.720  0.6163 -0.0149  1.1300
18629TIP3    H277303   4.163   2.572   5.849 -0.1790 -1.8427  0.5587
18630TIP3   OH277304   1.228   6.543  12.110 -0.5268  0.3798 -0.6233
18630TIP3    H177305   1.183   6.626  12.096 -0.8434  0.2521 -0.3873
18630TIP3    H277306   1.312   6.567  12.150 -0.6015  0.5892 -0.5937
18631TIP3   OH277307   5.212   5.147   0.222 -0.2627 -0.1126 -0.0222
18631TIP3    H177308   5.209   5.149   0.317 -1.8851  0.8549 -0.0599
18631TIP3    H277309   5.180   5.060   0.198 -1.6614  0.2923  0.3029
18632TIP3   OH277310   0.953   3.012   2.601  1.0144 -0.2676 -0.3760
18632TIP3    H177311   0.870   2.965   2.612  2.0634 -2.0720  0.1385
18632TIP3    H277312   0.992   2.973   2.523  0.8683  1.4320 -1.3531
18633TIP3   OH277313   4.996   6.511  12.016 -0.0504  0.5703  0.0011
18633TIP3    H177314   5.088   6.487  12.004  0.1300  0.4948  1.4055
18633TIP3    H277315   4.948   6.444  11.968  0.5907 -0.1095  0.2835
18634TIP3   OH277316   0.114   1.897  11.986 -0.0953  0.2860 -0.2484
18634TIP3    H177317   0.055   1.947  11.929  1.0511 -0.1745 -1.9274
18634TIP3    H277318   0.058   1.834  12.030 -1.0470  0.7404 -0.7739
18635TIP3   OH277319   0.617   1.678  12.207  0.3221 -0.1066 -0.7330
18635TIP3    H177320   0.609   1.722  12.291  2.0669  0.1964 -0.6862
18635TIP3    H277321   0.629   1.586  12.229  1.2309  0.0326 -0.6108
18636TIP3   OH277322   1.742   1.000   5.262 -0.0720  0.1411 -0.0955
18636TIP3    H177323   1.768   1.015   5.171  0.2327 -2.2319 -0.4667
18636TIP3    H277324   1.670   1.061   5.277  0.9164  1.6950 -1.4020
18637TIP3   OH277325   5.161   2.866  12.988 -0.0222 -0.2507 -0.2504
18637TIP3    H177326   5.250   2.894  12.967 -0.9496  2.2394 -1.2817
18637TIP3    H277327   5.140   2.912  13.069  0.4210 -2.7850  1.3903
18638TIP3   OH277328   6.117   3.873   4.701  0.1375 -0.0058  0.4323
18638TIP3    H177329   6.046   3.861   4.637 -1.3104  0.6678  1.8319
18638TIP3    H277330   6.158   3.787   4.708 -1.7164 -0.9010  0.8748
18639TIP3   OH277331   5.939   2.519  12.655  0.7026  0.1806 -0.7883
18639TIP3    H177332   5.979   2.523  12.742 -0.0969 -1.2966 -0.3282
18639TIP3    H277333   5.847   2.539  12.670  1.0480  2.9404 -1.7632
18640TIP3   OH277334   4.714   4.632  13.496 -0.2685 -0.3700  0.0475
18640TIP3    H177335   4.660   4.694  13.545 -1.5188  0.5984 -2.4054
18640TIP3    H277336   4.653   4.563  13.469  0.7220 -1.7235  1.1203
18641TIP3   OH277337   5.813   6.609   3.689  0.6924  0.6370  0.5585
18641TIP3    H177338   5.908   6.603   3.696  0.6046  0.3309  1.5854
18641TIP3    H277339   5.787   6.671   3.757  0.1989  1.1291 -0.0626
18642TIP3   OH277340   5.760   4.433  14.037  0.2455  0.1075  0.0951
18642TIP3    H177341   5.819   4.390  13.975 -0.2047  0.8647 -0.9029
18642TIP3    H277342   5.779   4.526  14.027 -0.9507  0.3541 -0.1110
18643TIP3   OH277343   4.567   6.113   4.372  0.3987  0.4995  0.3161
18643TIP3    H177344   4.623   6.068   4.308  0.1690 -1.3312  1.3367
18643TIP3    H277345   4.577   6.206   4.352  1.1076  0.0274 -1.7260
18644TIP3   OH277346   4.559   1.516   0.270 -0.3358  0.2522 -0.5744
18644TIP3    H177347   4.487   1.478   0.219  0.1378 -0.6140 -0.6146
18644TIP3    H277348   4.576   1.601   0.229 -1.5428  0.6185 -0.3716
18645TIP3   OH277349   6.279   1.870   4.871  0.2045  0.1124  0.2057
18645TIP3    H177350   6.358   1.834   4.831 -0.2395 -0.1755 -0.4204
18645TIP3    H277351   6.248   1.801   4.930 -0.7441 -0.6499 -1.1220
18646TIP3   OH277352   6.586   3.504   6.665  0.8244 -0.4282 -0.6101
18646TIP3    H177353   6.630   3.475   6.745  0.4829 -0.8790 -0.5863
18646TIP3    H277354   6.510   3.447   6.657  1.2448 -0.8660 -1.6548
18647TIP3   OH277355   0.747   5.485  15.571  0.4580 -0.5155  0.9210
18647TIP3    H177356   0.737   5.528  15.656  0.0751 -0.9519  1.1001
18647TIP3    H277357   0.657   5.464  15.544  0.4174  0.9917 -0.3211
18648TIP3   OH277358   3.132   3.942  11.028  0.5601 -0.0685  0.5083
18648TIP3    H177359   3.221   3.965  10.999  0.9437 -1.4004  0.5631
18648TIP3    H277360   3.138   3.850  11.052 -1.6533 -1.2539 -2.8334
18649TIP3   OH277361   0.570   4.710   0.105 -0.3375  0.1796  0.0935
18649TIP3    H177362   0.511   4.665   0.045  0.6062 -0.3516 -0.4689
18649TIP3    H277363   0.569   4.801   0.076 -1.3726  0.3122  0.5099
18650TIP3   OH277364   5.342   4.287  15.294 -0.2280  0.1748  0.2590
18650TIP3    H177365   5.425   4.268  15.250 -0.0255 -0.2683  0.8196
18650TIP3    H277366   5.358   4.268  15.386 -1.5327 -2.0313  0.1110
18651TIP3   OH277367   2.153   1.123  11.110 -0.5306 -0.4830  0.3701
18651TIP3    H177368   2.095   1.101  11.038 -1.5750  0.7559  0.7913
18651TIP3    H277369   2.223   1.058  11.106 -0.5597 -0.4483 -1.7500
18652TIP3   OH277370   4.930   3.082   2.050  0.1336  0.9162  0.0794
18652TIP3    H177371   4.907   3.022   2.121 -1.7778  0.6759 -0.6777
18652TIP3    H277372   4.976   3.026   1.986 -0.7113  0.4794 -0.1559
18653TIP3   OH277373   5.420   4.220   0.540 -0.2303  0.4328  0.0224
18653TIP3    H177374   5.387   4.238   0.452  0.0899  0.0091 -0.1904
18653TIP3    H277375   5.362   4.153   0.574 -0.4907  0.7578  0.2237
18654TIP3   OH277376   4.770   4.275  12.763  0.2417  0.2236 -0.2399
18654TIP3    H177377   4.781   4.180  12.769 -1.2318  0.0460  0.0592
18654TIP3    H277378   4.792   4.296  12.672 -0.5066 -0.5763 -0.6216
18655TIP3   OH277379   1.280   4.658  11.766  0.1356 -0.1821  0.0544
18655TIP3    H177380   1.307   4.579  11.813 -2.2137 -1.5024 -0.6597
18655TIP3    H277381   1.363   4.698  11.737  1.4671 -1.3916  1.9217
18656TIP3   OH277382   4.465   1.014  12.295  0.1503 -0.1615  0.5665
18656TIP3    H177383   4.549   0.973  12.273 -0.8623 -1.2755 -1.6170
18656TIP3    H277384   4.416   1.013  12.212 -2.0543  0.3265  1.7881
18657TIP3   OH277385   0.737   4.026  14.204  0.1625 -0.5412  0.0069
18657TIP3    H177386   0.790   4.001  14.129  0.0068 -1.5351  0.2130
18657TIP3    H277387   0.782   3.988  14.279  0.3518  0.5007  0.4349
18658TIP3   OH277388   1.871   0.559  14.437  0.3454  0.2356 -0.0910
18658TIP3    H177389   1.914   0.534  14.356  0.3445  1.0109 -0.3450
18658TIP3    H277390   1.943   0.578  14.498  0.4039 -2.8683  0.9751
18659TIP3   OH277391   6.301   1.846   1.461 -0.1232  0.3448 -0.0319
18659TIP3    H177392   6.249   1.850   1.542  1.2138  2.3077  0.7797
18659TIP3    H277393   6.367   1.914   1.470  0.8271 -0.1662 -2.2959
18660TIP3   OH277394   6.528   0.706   5.192  0.4514 -0.3378 -0.3500
18660TIP3    H177395   6.504   0.795   5.168  0.9649  0.0793  0.6309
18660TIP3    H277396   6.502   0.653   5.116 -0.2199  0.5787 -0.7809
18661TIP3   OH277397   3.542   4.073   1.170  0.1406 -0.1193  0.1747
18661TIP3    H177398   3.562   3.985   1.139  1.2845  0.2820 -0.2728
18661TIP3    H277399   3.468   4.101   1.117  1.0679 -0.0537 -1.1355
18662TIP3   OH277400   2.609   5.772  13.126 -0.5293  0.2547  0.3394
18662TIP3    H177401   2.643   5.714  13.058 -0.8053  0.6861 -0.1695
18662TIP3    H277402   2.516   5.748  13.133 -0.5358  0.3146  0.4524
18663TIP3   OH277403   2.307   3.458  12.805  0.4639  0.6549  0.1667
18663TIP3    H177404   2.233   3.506  12.842  0.0374  0.2912 -0.2129
18663TIP3    H277405   2.301   3.473  12.711 -0.5487 -1.3575 -0.1228
18664TIP3   OH277406   6.544   5.008  15.170  0.1604  0.4807 -0.6202
18664TIP3    H177407   6.606   4.991  15.099 -0.1867 -0.3728 -0.7287
18664TIP3    H277408   6.461   5.028  15.126  0.2451  1.2106 -0.4688
18665TIP3   OH277409   5.738   3.626   6.242  0.1836 -0.0001  0.0686
18665TIP3    H177410   5.833   3.614   6.251  0.0861  0.0179  1.2934
18665TIP3    H277411   5.709   3.649   6.330 -1.2408 -1.8474  0.1267
18666TIP3   OH277412   6.605   6.254   5.994 -0.5603 -0.2899  0.1558
18666TIP3    H177413   6.572   6.307   5.921 -2.0557 -1.3701  0.0073
18666TIP3    H277414   6.545   6.273   6.067 -0.0034 -0.3969  0.6483
18667TIP3   OH277415   6.437   6.291  11.624 -0.1934 -0.1821  0.8606
18667TIP3    H177416   6.381   6.369  11.616 -0.6946 -0.7171 -2.3143
18667TIP3    H277417   6.384   6.229  11.675 -1.2448  0.3718  0.4729
18668TIP3   OH277418   3.452   2.964   2.039 -0.2101  0.3262  0.1605
18668TIP3    H177419   3.477   2.885   1.991 -1.6077 -0.3061  0.4106
18668TIP3    H277420   3.401   3.015   1.977  0.3141  0.8159  0.1350
18669TIP3   OH277421   0.117   6.330  14.896  0.4313  0.0970  0.5151
18669TIP3    H177422   0.110   6.278  14.817 -1.1690 -0.3200  0.8996
18669TIP3    H277423   0.111   6.421  14.866 -0.0552 -0.0539  0.1407
18670TIP3   OH277424   2.769   0.693   2.074 -0.3355 -0.1104 -0.2149
18670TIP3    H177425   2.747   0.650   2.156 -1.0715 -0.6294 -0.6687
18670TIP3    H277426   2.864   0.695   2.072 -0.3143 -0.3317  0.5281
18671TIP3   OH277427   1.374   0.746  11.998 -0.7023  0.3899 -0.3086
18671TIP3    H177428   1.458   0.742  12.044 -0.6684 -0.6225 -0.4341
18671TIP3    H277429   1.383   0.820  11.939 -0.3420  1.0341  0.5257
18672TIP3   OH277430   2.199   6.298   4.748 -0.3158 -0.1265 -0.1707
18672TIP3    H177431   2.111   6.335   4.755 -0.4526 -0.6965  1.4052
18672TIP3    H277432   2.199   6.253   4.664 -0.4063  2.6872 -1.8171
18673TIP3   OH277433   0.549   6.660   4.716 -0.1853  0.0811  0.7761
18673TIP3    H177434   0.517   6.618   4.636  1.0813  1.8512 -0.7591
18673TIP3    H277435   0.621   6.605   4.746 -1.9035 -1.6600  1.8824
18674TIP3   OH277436   6.007   4.247  12.338  0.1534  0.7841 -0.1241
18674TIP3    H177437   6.007   4.255  12.434 -0.1070 -2.3524  0.2607
18674TIP3    H277438   6.099   4.234  12.316 -0.0411 -1.3955  0.1290
18675TIP3   OH277439   2.474   6.234   3.256  0.0750  0.1765  0.1323
18675TIP3    H177440   2.411   6.219   3.326 -1.0973  1.8443 -0.4853
18675TIP3    H277441   2.525   6.310   3.286 -1.9444  2.4125 -1.6553
18676TIP3   OH277442   2.382   5.138   5.789  0.0211  0.0325 -0.9685
18676TIP3    H177443   2.387   5.089   5.707 -0.0100 -0.9850 -0.3688
18676TIP3    H277444   2.298   5.185   5.783 -0.2867 -0.5431 -1.2358
18677TIP3   OH277445   1.790   0.408  13.527  0.0755  0.1268  0.4153
18677TIP3    H177446   1.817   0.500  13.521  2.7659 -0.6278 -1.0518
18677TIP3    H277447   1.821   0.369  13.445 -0.9639 -2.1163  1.0123
18678TIP3   OH277448   3.575   6.386   4.221 -0.2999 -0.3096  0.1252
18678TIP3    H177449   3.569   6.361   4.128 -0.9360 -2.4764  0.6808
18678TIP3    H277450   3.493   6.432   4.238 -0.2529 -0.0389 -0.3466
18679TIP3   OH277451   3.955   0.890   4.696 -0.3692  1.2116  0.1330
18679TIP3    H177452   3.997   0.891   4.610  0.6571  2.3108  0.6220
18679TIP3    H277453   3.950   0.982   4.722 -0.6618  0.8972  1.2528
18680TIP3   OH277454   5.732   6.374  15.312  0.3938 -0.0037  0.1635
18680TIP3    H177455   5.804   6.359  15.250  0.5778  0.0019  0.3777
18680TIP3    H277456   5.753   6.457  15.354  0.7680 -0.4756  0.9258
18681TIP3   OH277457   0.144   2.326   0.196 -0.3374 -0.2064  0.4889
18681TIP3    H177458   0.050   2.333   0.209 -0.5219  0.0120 -0.7978
18681TIP3    H277459   0.175   2.417   0.192 -0.4504 -0.2145 -1.4048
18682TIP3   OH277460   4.188   5.603   0.458  0.3499 -0.1484  0.0139
18682TIP3    H177461   4.147   5.673   0.408 -0.9378 -0.8680  0.0027
18682TIP3    H277462   4.128   5.528   0.449 -0.2597 -0.1751  3.0159
18683TIP3   OH277463   5.112   5.025  11.118  0.4567 -0.1978 -0.6539
18683TIP3    H177464   5.110   4.932  11.096  1.5164  0.0578 -1.9592
18683TIP3    H277465   5.187   5.060  11.069  2.3714  0.6551  2.6122
18684TIP3   OH277466   0.143   6.611  12.653 -0.1205  0.4428 -0.6917
18684TIP3    H177467   0.060   6.659  12.662 -0.3439 -0.0390 -0.1069
18684TIP3    H277468   0.124   6.542  12.589  0.1718  1.0554 -1.4537
18685TIP3   OH277469   1.349   6.087   3.244 -0.3867  0.0219  0.1440
18685TIP3    H177470   1.299   6.013   3.210 -2.0273  0.4707  1.4691
18685TIP3    H277471   1.429   6.047   3.280 -0.2638 -0.8294 -0.9839
18686TIP3   OH277472   0.395   4.443   1.370  0.1727  0.1882  0.1151
18686TIP3    H177473   0.305   4.413   1.354  0.0362 -0.2764  1.6160
18686TIP3    H277474   0.447   4.363   1.373  0.3102  0.2978  1.1039
18687TIP3   OH277475   1.870   6.485   1.295 -0.4404  0.1139 -0.2321
18687TIP3    H177476   1.850   6.395   1.321 -0.1492  0.1206  0.0229
18687TIP3    H277477   1.930   6.517   1.362 -0.4135  0.4459 -0.4096
18688TIP3   OH277478   3.346   2.520  13.358  0.7418  0.1767  0.0266
18688TIP3    H177479   3.326   2.531  13.451 -2.4857 -0.3625 -0.4729
18688TIP3    H277480   3.323   2.429  13.339 -0.0933  0.6686 -1.5351
18689TIP3   OH277481   4.974   5.315  16.985 -0.8176 -0.9200  0.6933
18689TIP3    H177482   4.980   5.366  16.905  1.0091 -1.3375  0.5007
18689TIP3    H277483   4.925   5.370  17.046 -0.8740  0.0697 -0.2257
18690TIP3   OH277484   6.587   2.743  12.272  0.7353  0.0058  0.1130
18690TIP3    H177485   6.583   2.826  12.224  1.2931 -1.1411 -1.9848
18690TIP3    H277486   6.524   2.686  12.229  1.1213 -1.0141  0.8579
18691TIP3   OH277487   5.450   6.049  11.679 -0.5369  0.1603 -0.4679
18691TIP3    H177488   5.503   6.088  11.609 -1.3543  1.3662 -0.4531
18691TIP3    H277489   5.402   5.978  11.636 -0.9173  0.7943 -1.1228
18692TIP3   OH277490   3.300   2.543  15.131  0.1375  0.6204  0.2591
18692TIP3    H177491   3.368   2.587  15.080  0.9475 -0.3671  0.4569
18692TIP3    H277492   3.229   2.528  15.068  0.5369  0.7076 -0.2178
18693TIP3   OH277493   0.274   6.574   3.315  0.1745 -0.0349  0.3420
18693TIP3    H177494   0.247   6.488   3.285  1.2614 -0.4803  0.5965
18693TIP3    H277495   0.197   6.629   3.304 -0.6403 -1.1189  0.5233
18694TIP3   OH277496   2.728   5.275   4.892  0.3415 -0.2413 -0.0840
18694TIP3    H177497   2.655   5.251   4.836  0.4857  0.4407 -0.5704
18694TIP3    H277498   2.710   5.365   4.918 -0.4150 -0.9517  2.0586
18695TIP3   OH277499   6.464   3.019   0.958 -0.5688 -0.6339 -0.1139
18695TIP3    H177500   6.494   3.104   0.927 -1.1836 -0.0108  0.9449
18695TIP3    H277501   6.395   3.039   1.022 -1.9615 -1.9543 -1.1061
18696TIP3   OH277502   4.658   2.475   2.791 -0.2245 -0.0472 -0.7401
18696TIP3    H177503   4.675   2.552   2.846 -0.4162 -0.8529  0.4904
18696TIP3    H277504   4.745   2.445   2.766 -0.0193 -0.8115  0.7794
18697TIP3   OH277505   3.993   0.062  12.992 -0.1074  0.4970 -0.3663
18697TIP3    H177506   3.928   0.064  12.921  0.4934 -1.0173 -0.9909
18697TIP3    H277507   3.970  -0.015  13.044  0.8535  0.2518 -0.2823
18698TIP3   OH277508   2.253   2.211   2.581  0.2375 -0.7389  0.1254
18698TIP3    H177509   2.205   2.130   2.569 -0.1246 -0.3714 -0.9434
18698TIP3    H277510   2.186   2.279   2.583  0.7291 -0.0402 -2.9450
18699TIP3   OH277511   4.132   0.235   0.243 -0.1908  0.2298  0.6437
18699TIP3    H177512   4.054   0.185   0.269  1.1721 -1.8401  0.9908
18699TIP3    H277513   4.119   0.252   0.149 -1.9815  1.8017  1.1046
18700TIP3   OH277514   1.232   3.772   1.468 -0.1468 -0.1140  0.0345
18700TIP3    H177515   1.204   3.716   1.395 -0.6611 -0.1678  0.2639
18700TIP3    H277516   1.287   3.838   1.428  0.7498 -0.9806 -0.1993
18701TIP3   OH277517   6.233   3.227  13.487 -0.2448 -0.6319 -0.1508
18701TIP3    H177518   6.210   3.319  13.472 -0.0756 -0.1839  2.0376
18701TIP3    H277519   6.270   3.226  13.575 -1.2388 -2.9741  0.2975
18702TIP3   OH277520   3.565   0.611  11.717  0.2563  0.4985  0.1610
18702TIP3    H177521   3.606   0.525  11.724 -1.3761 -0.3151  0.1856
18702TIP3    H277522   3.557   0.641  11.807 -0.5716 -0.0359  0.2786
18703TIP3   OH277523   2.210   1.889  15.117  0.3169 -0.4024 -0.0731
18703TIP3    H177524   2.191   1.983  15.112  0.5633 -0.1935  2.0360
18703TIP3    H277525   2.237   1.865  15.028 -0.2114  1.4091 -0.7620
18704TIP3   OH277526   5.126   5.004   4.232  0.3056  0.9964  0.7504
18704TIP3    H177527   5.148   5.015   4.140  0.6552  2.1574  0.9565
18704TIP3    H277528   5.082   4.919   4.236  1.3415  0.3781 -0.2848
18705TIP3   OH277529   5.624   1.375  11.085  0.0192  0.1766 -0.0621
18705TIP3    H177530   5.548   1.425  11.115 -1.5573 -1.4402 -1.1290
18705TIP3    H277531   5.697   1.437  11.089 -0.8756  1.2090  3.0030
18706TIP3   OH277532   4.340   6.771   1.778 -0.8319  0.6777  0.2170
18706TIP3    H177533   4.267   6.760   1.838 -0.4974  0.1082  0.5234
18706TIP3    H277534   4.404   6.823   1.828  0.9302 -2.6278  1.7024
18707TIP3   OH277535   1.608   3.647  13.146  0.2624  0.0818 -0.2743
18707TIP3    H177536   1.610   3.656  13.051  1.8945  0.5370 -0.2151
18707TIP3    H277537   1.541   3.580  13.162  0.5486 -0.6131 -1.7863
18708TIP3   OH277538   3.045   2.223  14.286 -0.2417  0.2507  0.8456
18708TIP3    H177539   3.101   2.147  14.296 -0.0199  0.6089  2.7045
18708TIP3    H277540   3.080   2.270  14.210  0.7354 -0.5505  0.7926
18709TIP3   OH277541   3.591   5.487   3.840  0.1593 -0.7813  0.0079
18709TIP3    H177542   3.630   5.527   3.762 -1.5901  0.1551 -0.4243
18709TIP3    H277543   3.591   5.557   3.905 -0.1681 -0.9751  0.2175
18710TIP3   OH277544   4.152   2.210  12.255  0.4955  0.5807  0.8286
18710TIP3    H177545   4.084   2.252  12.201  0.9405  3.0966  2.0712
18710TIP3    H277546   4.231   2.214  12.200  0.4882  1.2797  0.8489
18711TIP3   OH277547   2.155   3.740   1.708  0.1086  0.2552  0.4963
18711TIP3    H177548   2.111   3.782   1.782 -0.3948  1.4495 -0.4385
18711TIP3    H277549   2.142   3.646   1.722 -1.9197  0.5248  0.7788
18712TIP3   OH277550   6.552   3.324   3.160 -0.0189 -0.6191  0.4700
18712TIP3    H177551   6.594   3.364   3.083  0.1644 -0.9562  0.3931
18712TIP3    H277552   6.502   3.395   3.199  0.8536 -0.1232  0.7237
18713TIP3   OH277553   2.154   0.501  16.761 -0.3697 -0.3067 -0.2162
18713TIP3    H177554   2.147   0.546  16.676 -0.1742 -1.2911 -0.7661
18713TIP3    H277555   2.106   0.419  16.749  0.1303 -0.7082  0.4535
18714TIP3   OH277556   1.488   1.646   2.408 -0.0368 -0.0653  0.0464
18714TIP3    H177557   1.440   1.569   2.439 -0.5298  0.0217 -0.4756
18714TIP3    H277558   1.516   1.691   2.487 -0.4859 -0.3266  0.3574
18715TIP3   OH277559   3.495   2.528   0.788  0.5159  0.0326 -0.0929
18715TIP3    H177560   3.567   2.478   0.750  0.0320 -0.4647 -0.3587
18715TIP3    H277561   3.488   2.495   0.878 -1.3150 -2.1120 -0.9246
18716TIP3   OH277562   6.228   3.588   1.323  0.0947  0.4944 -0.4948
18716TIP3    H177563   6.276   3.649   1.267  0.4401  2.1077  1.4198
18716TIP3    H277564   6.176   3.644   1.381 -2.6659 -1.1596 -1.1800
18717TIP3   OH277565   5.151   5.152  13.070 -0.1680  0.5331 -0.4517
18717TIP3    H177566   5.158   5.056  13.064  2.2573  0.1785  3.7992
18717TIP3    H277567   5.061   5.168  13.096  0.0744 -0.9935  1.6067
18718TIP3   OH277568   2.384   6.517  16.123 -0.6621 -0.3459 -0.0955
18718TIP3    H177569   2.433   6.448  16.078  1.6541 -0.3031  2.1247
18718TIP3    H277570   2.400   6.595  16.071 -2.2130 -1.1333 -1.8905
18719TIP3   OH277571   3.193   4.544   5.298 -0.2058  0.3840 -0.3220
18719TIP3    H177572   3.128   4.519   5.232  0.5399  0.7797 -1.2228
18719TIP3    H277573   3.201   4.467   5.354 -0.8951  0.0607 -0.6524
18720TIP3   OH277574   2.487   1.856  11.772  0.1789 -0.1374 -0.3114
18720TIP3    H177575   2.508   1.919  11.841 -3.3824  2.0157 -0.9922
18720TIP3    H277576   2.494   1.906  11.691 -2.3927 -0.5991 -0.8971
18721TIP3   OH277577   6.355   1.609  15.395  0.1094 -0.0145  0.0041
18721TIP3    H177578   6.401   1.546  15.451 -0.6347  0.4307  1.1526
18721TIP3    H277579   6.288   1.557  15.350  0.4748 -0.3059 -0.2140
18722TIP3   OH277580   1.801   3.809   5.244 -0.1664  0.2335  0.8043
18722TIP3    H177581   1.885   3.829   5.203 -0.5515 -1.6573 -1.1371
18722TIP3    H277582   1.823   3.753   5.318  0.3300  0.0029  0.4916
18723TIP3   OH277583   5.724   5.835   5.063 -0.0735  0.5782 -0.1083
18723TIP3    H177584   5.695   5.923   5.088 -0.9493  0.5066 -0.8551
18723TIP3    H277585   5.643   5.785   5.051  0.3940 -1.0023  2.5435
18724TIP3   OH277586   1.031   1.831   4.510  0.2126  0.5719 -0.2502
18724TIP3    H177587   1.072   1.746   4.493  2.0723  1.3405  0.2553
18724TIP3    H277588   0.951   1.829   4.457  0.8879 -0.9724 -1.2931
18725TIP3   OH277589   5.798   3.530  13.822 -0.2997 -0.7823 -0.3796
18725TIP3    H177590   5.791   3.448  13.772 -2.6227 -2.1652  1.9020
18725TIP3    H277591   5.802   3.501  13.913  1.5648  1.6531  0.4118
18726TIP3   OH277592   4.777   5.524   4.296  0.1184 -0.4357 -0.0959
18726TIP3    H177593   4.718   5.464   4.343 -1.0193  1.6934  1.3593
18726TIP3    H277594   4.721   5.568   4.233  0.7587 -0.3096 -0.5825
18727TIP3   OH277595   1.192   3.177  12.079  0.0608 -0.7688  0.6367
18727TIP3    H177596   1.274   3.128  12.075 -1.5029 -3.6347 -2.9585
18727TIP3    H277597   1.139   3.130  12.143  0.1423 -0.9710  0.5584
18728TIP3   OH277598   4.381   2.812   0.838 -0.3634 -0.2829 -0.4502
18728TIP3    H177599   4.317   2.880   0.861  0.9789  0.6802  0.5971
18728TIP3    H277600   4.458   2.861   0.809  0.3241 -1.3927 -0.5395
18729TIP3   OH277601   2.912   6.390   3.444  0.1370  0.4189  0.4539
18729TIP3    H177602   2.872   6.472   3.473 -1.0417  0.1080 -0.2276
18729TIP3    H277603   2.839   6.331   3.429  0.9575 -0.6979  0.6958
18730TIP3   OH277604   3.767   2.576   6.159  0.4871  1.0483 -0.1593
18730TIP3    H177605   3.792   2.523   6.234 -1.5488 -1.4016 -1.0657
18730TIP3    H277606   3.677   2.550   6.140  0.9080  1.5004 -3.4513
18731TIP3   OH277607   1.164   5.695  13.501 -0.5046 -0.4541 -0.5691
18731TIP3    H177608   1.090   5.706  13.442 -1.1534 -0.5559  0.1954
18731TIP3    H277609   1.222   5.768  13.482 -0.3220 -0.9079 -1.8472
18732TIP3   OH277610   0.905   5.743   2.640  0.7218  0.3585 -0.4103
18732TIP3    H177611   0.982   5.704   2.599  0.9972 -0.2592  0.6480
18732TIP3    H277612   0.845   5.669   2.653  0.1105  0.7623 -0.8380
18733TIP3   OH277613   2.734   0.525   4.428  0.6776 -0.2954  0.2515
18733TIP3    H177614   2.776   0.442   4.408  1.9876 -0.0563  1.7725
18733TIP3    H277615   2.694   0.553   4.345  2.6877 -1.0379 -1.0309
18734TIP3   OH277616   1.162   0.614   0.807 -0.4727  0.2946  0.0795
18734TIP3    H177617   1.257   0.611   0.819 -0.3887  1.2184 -0.2978
18734TIP3    H277618   1.128   0.634   0.894 -0.2049  1.5719 -0.0876
18735TIP3   OH277619   6.288   0.407  16.260  0.0048 -0.3424 -0.1320
18735TIP3    H177620   6.330   0.321  16.256  1.4489  0.3590 -0.6600
18735TIP3    H277621   6.219   0.403  16.194  0.7296 -0.7744 -0.8849
18736TIP3   OH277622   2.807   2.987  16.993  0.1027 -0.1742  0.3096
18736TIP3    H177623   2.864   2.911  16.978 -0.0780  0.0581 -1.8085
18736TIP3    H277624   2.723   2.949  17.020 -0.0711 -0.7715 -1.0017
18737TIP3   OH277625   3.893   5.974  14.167 -0.1295 -0.1388  0.6081
18737TIP3    H177626   3.854   5.942  14.248 -1.7578  0.8260  0.2489
18737TIP3    H277627   3.917   5.895  14.118 -0.0214 -0.7275  1.5947
18738TIP3   OH277628   4.017   5.858   4.254 -0.4388  0.2399  0.3166
18738TIP3    H177629   3.986   5.849   4.164 -2.3507 -0.9748  1.0316
18738TIP3    H277630   3.989   5.777   4.297  3.9642 -1.0934  1.0801
18739TIP3   OH277631   0.969   2.070  14.974 -0.0069 -0.3361  0.0135
18739TIP3    H177632   0.974   2.072  14.879  1.3898  0.1660  0.0662
18739TIP3    H277633   0.989   2.160  15.001  2.2570 -1.0235  0.8313
18740TIP3   OH277634   2.833   4.230  11.537 -0.3917 -0.1192  0.5529
18740TIP3    H177635   2.835   4.325  11.524 -0.6885 -0.1778  0.0752
18740TIP3    H277636   2.760   4.216  11.597  0.0286  0.0039  1.1102
18741TIP3   OH277637   2.282   0.086  17.161 -0.0631 -0.4460  0.0655
18741TIP3    H177638   2.229   0.097  17.082  0.0619 -0.8964 -0.0868
18741TIP3    H277639   2.370   0.108  17.134 -0.5505  3.2708  1.0408
18742TIP3   OH277640   2.874   0.490   4.014  0.0487 -0.6608  0.0596
18742TIP3    H177641   2.865   0.570   3.962  1.0625 -0.3341  0.3688
18742TIP3    H277642   2.793   0.486   4.066  0.1661  0.3817  0.3384
18743TIP3   OH277643   4.699   4.626   3.318 -0.0993 -0.2125  0.3829
18743TIP3    H177644   4.753   4.680   3.260  2.4673 -1.1134  1.8018
18743TIP3    H277645   4.657   4.689   3.377  1.7084  0.3852  1.0844
18744TIP3   OH277646   3.695   1.730   4.993 -0.3832 -0.0648  0.1463
18744TIP3    H177647   3.702   1.647   4.947 -1.6086  0.3878 -0.9161
18744TIP3    H277648   3.708   1.708   5.085  0.1288 -1.2973 -0.2030
18745TIP3   OH277649   2.915   0.666  14.906  0.1807  0.4720  0.4348
18745TIP3    H177650   2.866   0.617  14.972 -0.9887  3.0033  1.6087
18745TIP3    H277651   2.974   0.722  14.957  0.9875  0.7998 -0.8045
18746TIP3   OH277652   1.333   6.705   2.218  0.2669  0.2620  0.1941
18746TIP3    H177653   1.239   6.688   2.213  0.0443  1.6604 -1.2001
18746TIP3    H277654   1.372   6.621   2.240 -1.1266 -0.9370 -1.6291
18747TIP3   OH277655   3.202   5.768   0.220 -0.1761  0.3082  0.0110
18747TIP3    H177656   3.247   5.721   0.149  1.5233  1.3731  0.3298
18747TIP3    H277657   3.142   5.703   0.257  0.2736 -0.8360 -1.1753
18748TIP3   OH277658   3.529   4.139  13.215 -0.1212 -0.6572 -0.2184
18748TIP3    H177659   3.469   4.213  13.205  1.6695  1.5312  3.2748
18748TIP3    H277660   3.476   4.072  13.258 -2.0173 -2.0571 -4.2122
18749TIP3   OH277661   0.865   6.103  16.138 -0.8304  0.4042 -0.4912
18749TIP3    H177662   0.954   6.111  16.173  1.0526 -1.1101 -4.3614
18749TIP3    H277663   0.817   6.058  16.207  2.3792 -1.9056  0.4990
18750TIP3   OH277664   4.660   2.912   3.405  0.4008 -0.1183  0.2110
18750TIP3    H177665   4.634   2.975   3.472  1.5783  2.8454 -1.8943
18750TIP3    H277666   4.579   2.887   3.362 -0.1411 -0.4769  1.3995
18751TIP3   OH277667   0.189   0.911   1.913  0.4243 -0.7966  1.0842
18751TIP3    H177668   0.095   0.898   1.928  0.3854 -1.4963  0.3394
18751TIP3    H277669   0.216   0.974   1.979 -1.0068  0.9889  0.0476
18752TIP3   OH277670   5.619   0.456  11.022  0.1741  0.5984 -0.2202
18752TIP3    H177671   5.659   0.391  10.965 -1.0627  0.8403 -1.4100
18752TIP3    H277672   5.556   0.406  11.075 -1.1105  0.8589 -1.4569
18753TIP3   OH277673   1.225   2.239   2.999 -1.1476 -0.8419  0.2648
18753TIP3    H177674   1.280   2.306   2.959 -2.6991  0.6083  0.4418
18753TIP3    H277675   1.243   2.159   2.949  2.1065 -0.8158  1.2176
18754TIP3   OH277676   3.736   3.571   5.471 -0.0718 -0.1344 -0.6979
18754TIP3    H177677   3.716   3.478   5.483 -0.4148  0.1794  1.6793
18754TIP3    H277678   3.803   3.590   5.536 -0.0274  1.3028 -1.1252
18755TIP3   OH277679   5.234   2.143  16.965 -0.2416  0.2869  0.3331
18755TIP3    H177680   5.269   2.182  17.046  0.6220 -1.2922  0.7525
18755TIP3    H277681   5.139   2.146  16.976 -0.1465  0.6324  1.1419
18756TIP3   OH277682   3.853   4.628  14.369 -0.1808 -0.5744 -0.3453
18756TIP3    H177683   3.806   4.708  14.348 -2.5766 -1.9013 -0.4037
18756TIP3    H277684   3.858   4.581  14.285 -1.0381 -1.5545  0.1251
18757TIP3   OH277685   1.135   2.509   1.941 -0.4211 -0.2175  0.0374
18757TIP3    H177686   1.096   2.541   2.022 -0.5969 -0.1576 -0.0718
18757TIP3    H277687   1.161   2.419   1.961 -0.4490 -0.1973  0.1654
18758TIP3   OH277688   4.775   1.557   1.945 -0.8719 -0.1149 -0.2811
18758TIP3    H177689   4.679   1.559   1.941 -0.9030  1.6973  0.3358
18758TIP3    H277690   4.796   1.591   2.032  0.3400  0.0607 -0.6253
18759TIP3   OH277691   2.402   4.904  13.584  0.5491 -0.5008  0.1278
18759TIP3    H177692   2.436   4.839  13.523  0.3812  0.4784 -1.0339
18759TIP3    H277693   2.307   4.901  13.572  0.5377 -0.0781  0.1066
18760TIP3   OH277694   4.752   2.672   2.474  0.1169  0.4865 -0.8190
18760TIP3    H177695   4.798   2.705   2.551 -0.5114  1.1278 -0.7076
18760TIP3    H277696   4.742   2.578   2.490 -0.8448  0.7676  0.3343
18761TIP3   OH277697   2.292   3.202  14.867  0.1227  0.1158  0.3443
18761TIP3    H177698   2.321   3.147  14.939  0.4799 -3.1319 -2.0522
18761TIP3    H277699   2.350   3.279  14.871  1.0011 -0.5857  2.6643
18762TIP3   OH277700   0.968   4.252  16.596  0.2402 -0.3823  0.2031
18762TIP3    H177701   0.949   4.210  16.680  0.7643  1.2510  1.1822
18762TIP3    H277702   0.964   4.346  16.614  0.9468  0.0123 -1.4649
18763TIP3   OH277703   1.562   6.253   1.366 -0.2610  0.0112 -0.2913
18763TIP3    H177704   1.477   6.242   1.322 -0.2496  3.2186 -1.3669
18763TIP3    H277705   1.541   6.299   1.447  0.3889 -0.0299 -0.0971
18764TIP3   OH277706   2.444   5.127  16.590 -0.0114  0.2204 -0.1320
18764TIP3    H177707   2.478   5.106  16.678 -3.2621  1.9010  1.7052
18764TIP3    H277708   2.518   5.167  16.545  1.3798  0.7442  2.4070
18765TIP3   OH277709   2.183   0.023  11.521 -0.0444 -0.2611  0.3520
18765TIP3    H177710   2.119  -0.045  11.500 -1.2928  0.7256  0.7903
18765TIP3    H277711   2.155   0.056  11.607  1.1731  0.0735  0.6357
18766TIP3   OH277712   3.268   3.914  10.672  0.5015 -0.6661 -0.1799
18766TIP3    H177713   3.308   3.854  10.735  1.4896 -1.3747 -1.4251
18766TIP3    H277714   3.335   3.925  10.604  0.5249  2.2085  0.2110
18767TIP3   OH277715   3.446   1.002   5.442 -0.4461 -0.1938 -0.0216
18767TIP3    H177716   3.353   0.998   5.463 -0.5408  0.0534 -0.3749
18767TIP3    H277717   3.486   0.932   5.494 -0.9692 -0.9437 -0.5976
18768TIP3   OH277718   4.120   4.375   2.021  0.3641 -0.0527  0.0396
18768TIP3    H177719   4.144   4.442   1.957  0.1446  0.2509  0.2722
18768TIP3    H277720   4.201   4.327   2.037  0.2124 -0.7460 -1.1724
18769TIP3   OH277721   3.068   6.121  17.227  0.2999 -0.3175  0.5862
18769TIP3    H177722   2.990   6.105  17.281 -1.3954  2.2044 -0.9192
18769TIP3    H277723   3.116   6.188  17.275  0.6922 -0.6592  0.6791
18770TIP3   OH277724   3.663   1.661  16.343 -0.3394  0.5032 -0.1854
18770TIP3    H177725   3.580   1.636  16.383 -0.7160  0.0273 -1.2481
18770TIP3    H277726   3.673   1.602  16.268  1.0851  0.3697  0.0742
18771TIP3   OH277727   2.891   5.881  15.351 -0.5129 -0.1913  0.2086
18771TIP3    H177728   2.904   5.812  15.417 -1.5255 -2.1112 -1.5087
18771TIP3    H277729   2.799   5.907  15.362 -0.9474 -1.1517 -0.9737
18772TIP3   OH277730   0.441   4.133  13.574 -0.7725  0.1158  0.0571
18772TIP3    H177731   0.477   4.111  13.660  2.8415 -0.3600 -1.4097
18772TIP3    H277732   0.445   4.051  13.524 -0.3934  0.9105 -1.2782
18773TIP3   OH277733   5.367   4.785  10.979 -0.0183  0.3902  0.8152
18773TIP3    H177734   5.417   4.864  10.962 -0.1373  0.4245  0.6191
18773TIP3    H277735   5.428   4.713  10.962  0.0558  0.4372  0.8826
18774TIP3   OH277736   5.026   3.538   1.006 -0.4381  0.3513 -0.1287
18774TIP3    H177737   5.070   3.604   1.059 -0.3756 -0.4796  0.8631
18774TIP3    H277738   4.965   3.588   0.951  1.4356  1.4884 -1.2647
18775TIP3   OH277739   1.647   3.011   5.777  0.1306 -0.5883  0.2772
18775TIP3    H177740   1.728   2.968   5.750  0.2149  0.0896 -0.5937
18775TIP3    H277741   1.676   3.096   5.811 -0.2531 -0.0230 -0.7525
18776TIP3   OH277742   2.542   2.664  12.700 -0.1427 -0.1547  0.4709
18776TIP3    H177743   2.532   2.748  12.655  0.5849 -0.3452 -0.0752
18776TIP3    H277744   2.578   2.606  12.633 -1.7253 -1.2270  0.5094
18777TIP3   OH277745   2.143   1.171   5.159  0.2342 -0.2429 -0.3920
18777TIP3    H177746   2.063   1.214   5.129 -0.8682 -1.8139  0.2243
18777TIP3    H277747   2.129   1.156   5.252  1.1541 -0.7637 -0.3323
18778TIP3   OH277748   1.624   1.622   5.180  0.3744 -0.0453 -0.1023
18778TIP3    H177749   1.634   1.707   5.136  1.3681 -0.4736 -0.7514
18778TIP3    H277750   1.621   1.559   5.108 -1.4411 -0.4861  0.3246
18779TIP3   OH277751   1.015   3.043  11.667 -0.3619  0.3710 -0.2086
18779TIP3    H177752   0.956   3.106  11.708  0.0462  0.8905 -0.4165
18779TIP3    H277753   1.055   3.090  11.595  0.0569 -0.0813 -0.2781
18780TIP3   OH277754   3.520   6.271  15.086  0.3174 -0.3733 -0.5442
18780TIP3    H177755   3.491   6.352  15.044  0.0797  0.2462  0.7829
18780TIP3    H277756   3.439   6.221  15.100 -0.1810  1.0506  2.5116
18781TIP3   OH277757   3.926   1.330   2.741  0.2639  0.1412  0.7473
18781TIP3    H177758   3.929   1.302   2.650  1.7448  0.7715  0.5764
18781TIP3    H277759   3.833   1.325   2.765  0.0767 -1.8779 -0.1962
18782TIP3   OH277760   0.867   6.067  15.242 -0.0310 -0.3230  0.5945
18782TIP3    H177761   0.921   6.004  15.291 -1.8772 -1.2389  1.5458
18782TIP3    H277762   0.804   6.099  15.306 -1.1179  0.1277 -0.6707
18783TIP3   OH277763   4.242   5.660  14.907  0.2733 -0.2998 -0.3694
18783TIP3    H177764   4.263   5.652  15.000 -0.0652  0.6558 -0.2060
18783TIP3    H277765   4.179   5.589  14.891 -0.0345 -0.1726  0.2405
18784TIP3   OH277766   4.034   2.443  13.708  0.0237 -0.4095  0.2624
18784TIP3    H177767   4.045   2.359  13.665 -0.4339 -1.3221  1.8551
18784TIP3    H277768   3.940   2.452  13.721 -0.0132  0.7875 -0.7124
18785TIP3   OH277769   1.484   2.177  15.730 -0.1415 -0.1796 -0.3558
18785TIP3    H177770   1.489   2.191  15.824  1.5896 -0.3918 -0.3949
18785TIP3    H277771   1.419   2.241  15.700  1.0164  1.5464  0.6591
18786TIP3   OH277772   6.505   0.654  11.501 -0.1784  0.0338  0.1062
18786TIP3    H177773   6.491   0.571  11.547  0.7008 -0.0616  0.2205
18786TIP3    H277774   6.432   0.710  11.530 -0.1777 -0.3411  0.8663
18787TIP3   OH277775   5.186   0.935   0.769  0.0705 -0.2050 -0.1016
18787TIP3    H177776   5.254   0.965   0.708 -0.4764  1.7690  0.1968
18787TIP3    H277777   5.104   0.964   0.730 -0.5750 -1.9639 -0.1137
18788TIP3   OH277778   4.619   5.126   6.560 -0.2067  0.2916  0.3170
18788TIP3    H177779   4.665   5.208   6.545  1.4037 -1.1981 -5.0331
18788TIP3    H277780   4.689   5.061   6.571 -1.3782 -0.7720  1.9084
18789TIP3   OH277781   1.595   6.633   0.391 -0.3374 -0.2337  0.3656
18789TIP3    H177782   1.601   6.546   0.431  1.4523 -0.3822 -0.1807
18789TIP3    H277783   1.685   6.662   0.381 -0.7645  0.4018 -2.2795
18790TIP3   OH277784   2.941   3.974  12.808 -0.1226 -0.1752 -0.1486
18790TIP3    H177785   2.860   3.956  12.761 -0.7899  0.9914  0.5123
18790TIP3    H277786   3.009   3.934  12.754 -0.6432  2.3290 -2.9704
18791TIP3   OH277787   6.043   3.280  16.560  0.3168 -0.0769 -0.1873
18791TIP3    H177788   6.121   3.245  16.516  0.2056 -0.5838  0.0143
18791TIP3    H277789   6.060   3.374  16.566  1.5800 -0.3368  1.1346
18792TIP3   OH277790   4.756   6.178  15.907 -0.2352 -0.1803  0.6060
18792TIP3    H177791   4.757   6.269  15.937  1.8035  0.5772 -1.4905
18792TIP3    H277792   4.745   6.185  15.812  1.8464 -1.9859  0.1668
18793TIP3   OH277793   1.542   2.719   1.859 -0.4483 -0.2443  0.4345
18793TIP3    H177794   1.554   2.676   1.944 -0.3921 -1.1392 -0.0226
18793TIP3    H277795   1.593   2.667   1.798  0.1946  0.8853 -0.0224
18794TIP3   OH277796   4.255   4.987  13.855 -0.4062  0.6369 -0.0244
18794TIP3    H177797   4.291   4.948  13.935  0.7047  1.6727  0.0052
18794TIP3    H277798   4.161   4.975  13.863 -0.3467  1.0330  1.6294
18795TIP3   OH277799   4.719   0.443   3.781 -0.1886 -0.3807 -0.1355
18795TIP3    H177800   4.675   0.495   3.714  1.1479  1.2411  0.1853
18795TIP3    H277801   4.664   0.453   3.859  0.3815  1.1494  0.1059
18796TIP3   OH277802   4.542   4.882  16.302 -0.1189 -0.7366 -0.4772
18796TIP3    H177803   4.524   4.895  16.395 -0.2264  3.3450 -0.8590
18796TIP3    H277804   4.638   4.882  16.296  0.0530  3.4184 -0.5481
18797TIP3   OH277805   0.614   6.753   3.050 -0.2295  0.3288  0.1703
18797TIP3    H177806   0.707   6.756   3.029  0.0664  0.2965  1.4251
18797TIP3    H277807   0.610   6.731   3.143 -1.4139  2.9399  0.8377
18798TIP3   OH277808   6.003   5.279   2.263 -0.2887 -0.3259  0.0840
18798TIP3    H177809   6.088   5.240   2.244 -1.0462 -1.0538 -2.1471
18798TIP3    H277810   5.993   5.270   2.358  1.3813 -1.7426  0.1827
18799TIP3   OH277811   3.483   2.707   1.219 -0.3513  0.3975  0.0738
18799TIP3    H177812   3.472   2.705   1.314  1.4843 -1.8554  0.3250
18799TIP3    H277813   3.507   2.617   1.196  1.3117  1.3396 -2.2334
18800TIP3   OH277814   5.495   5.539   0.491 -0.4174  0.3973 -0.0411
18800TIP3    H177815   5.537   5.597   0.427 -2.2330  0.8802 -0.8784
18800TIP3    H277816   5.404   5.571   0.496 -0.8538 -0.9214  1.2596
18801TIP3   OH277817   5.283   0.089   5.455  0.2284  0.2489 -0.2188
18801TIP3    H177818   5.361   0.116   5.407 -0.7290 -0.4309 -2.2746
18801TIP3    H277819   5.228   0.047   5.389 -2.0482  1.0524  1.0539
18802TIP3   OH277820   1.359   0.407  14.263 -0.4738  0.3651  0.3635
18802TIP3    H177821   1.354   0.431  14.170  0.8141  0.2255  0.2339
18802TIP3    H277822   1.372   0.312  14.263  3.2013  0.7130  0.4559
18803TIP3   OH277823   0.210   6.556   0.333 -0.1532 -0.2887 -0.1835
18803TIP3    H177824   0.189   6.515   0.417 -2.7083  2.0138  0.4180
18803TIP3    H277825   0.144   6.522   0.273 -0.9301  1.2074 -0.2054
18804TIP3   OH277826   5.889   5.456  14.498  0.6134  0.0662  0.1680
18804TIP3    H177827   5.981   5.454  14.524  0.5739  1.5462  0.5591
18804TIP3    H277828   5.890   5.436  14.404  1.5260  1.5671 -0.1784
18805TIP3   OH277829   4.480   0.955   2.752 -0.0458  0.4561  0.6543
18805TIP3    H177830   4.486   1.051   2.743  0.7224  0.3441 -0.2074
18805TIP3    H277831   4.556   0.932   2.805  0.5383  0.2026 -0.2690
18806TIP3   OH277832   0.533   3.938   3.403  0.2492 -0.4013 -0.2945
18806TIP3    H177833   0.553   3.990   3.325 -0.2038 -0.7288 -0.6320
18806TIP3    H277834   0.480   3.996   3.458 -1.2679 -0.8790 -1.1972
18807TIP3   OH277835   4.554   1.378  14.027 -0.2456  0.2308 -0.3231
18807TIP3    H177836   4.649   1.378  14.039 -0.3423  0.8949  0.4955
18807TIP3    H277837   4.529   1.285  14.035  0.3657  0.0069 -0.9011
18808TIP3   OH277838   4.665   1.415   3.258 -0.5739 -0.2444 -0.0208
18808TIP3    H177839   4.644   1.335   3.211  0.3923 -0.8279  0.4831
18808TIP3    H277840   4.592   1.429   3.318 -0.9522 -0.5077 -0.4264
18809TIP3   OH277841   6.439   2.683  13.575  0.4293 -0.5391  0.6561
18809TIP3    H177842   6.402   2.619  13.636 -0.2552 -2.2674 -1.4549
18809TIP3    H277843   6.384   2.678  13.498  1.0105  1.8912 -0.0029
18810TIP3   OH277844   4.374   1.806  15.029  0.4716 -0.0661  0.3751
18810TIP3    H177845   4.418   1.723  15.051  1.5221  0.8039  1.7643
18810TIP3    H277846   4.402   1.866  15.098 -1.9985  0.8862  0.6689
18811TIP3   OH277847   4.503   5.542   1.781  0.2604  0.7407 -0.0607
18811TIP3    H177848   4.443   5.547   1.855  0.4902  1.5908  0.0885
18811TIP3    H277849   4.489   5.455   1.743 -0.7457  0.7650  0.2271
18812TIP3   OH277850   1.179   3.789   4.133  0.3259 -0.2018 -0.1702
18812TIP3    H177851   1.273   3.794   4.113  0.7196 -0.5082  1.4305
18812TIP3    H277852   1.164   3.862   4.193 -0.4421 -0.2292 -0.3194
18813TIP3   OH277853   3.472   3.649  12.788  0.0947 -0.2973 -0.2750
18813TIP3    H177854   3.448   3.676  12.699  2.6822  3.5995 -0.0627
18813TIP3    H277855   3.500   3.558  12.779  0.4900  0.0325 -3.5221
18814TIP3   OH277856   6.527   1.937   5.573 -0.3506 -0.8991  0.2827
18814TIP3    H177857   6.457   1.923   5.509 -0.8329  1.2353  0.2468
18814TIP3    H277858   6.504   1.881   5.646 -1.7081 -0.8147 -0.0470
18815TIP3   OH277859   3.649   6.047   4.570  0.1836 -0.4960  0.4094
18815TIP3    H177860   3.682   6.057   4.659  2.1119 -2.0434 -0.0495
18815TIP3    H277861   3.706   6.103   4.517 -0.9605  0.4291  0.1022
18816TIP3   OH277862   3.699   2.361  14.261  0.2232 -0.0636 -0.6611
18816TIP3    H177863   3.678   2.447  14.297  1.9484 -0.1733  0.7687
18816TIP3    H277864   3.643   2.300  14.309 -0.2659  0.1685 -0.9402
18817TIP3   OH277865   3.605   4.789  15.249  0.0056 -0.1158  0.5943
18817TIP3    H177866   3.527   4.787  15.305 -0.0138  0.5556  0.6014
18817TIP3    H277867   3.580   4.738  15.172 -0.5086  0.2379  0.5183
18818TIP3   OH277868   6.598   5.629   3.054 -0.3500 -0.3946  0.0109
18818TIP3    H177869   6.628   5.684   3.126 -1.3840 -0.3561  0.4248
18818TIP3    H277870   6.576   5.691   2.984  0.8797 -0.4459 -0.4414
18819TIP3   OH277871   3.538   0.539   3.838 -0.5111 -0.8354 -0.4956
18819TIP3    H177872   3.470   0.489   3.884 -1.0597  0.9257  0.7036
18819TIP3    H277873   3.492   0.578   3.764 -0.4243 -0.9437 -0.6065
18820TIP3   OH277874   6.073   4.402  11.891  0.7818  0.3805  0.1491
18820TIP3    H177875   6.113   4.334  11.837  0.1303  1.3772 -1.6925
18820TIP3    H277876   6.025   4.355  11.959 -0.5726 -1.0707 -1.7251
18821TIP3   OH277877   3.597   3.518   3.877  0.1450  0.2376 -0.5508
18821TIP3    H177878   3.555   3.436   3.849  0.1693  0.6877 -1.9984
18821TIP3    H277879   3.588   3.518   3.972  0.1756 -1.4627 -0.5103
18822TIP3   OH277880   1.763   5.800  12.114  0.3362 -0.2379 -0.3523
18822TIP3    H177881   1.801   5.720  12.151  1.7809  0.2352 -0.7606
18822TIP3    H277882   1.780   5.867  12.179 -1.7551 -0.3980  0.4481
18823TIP3   OH277883   3.126   2.750  11.214 -0.7161  0.5543 -0.0209
18823TIP3    H177884   3.172   2.681  11.261 -0.2898  0.6553 -0.2877
18823TIP3    H277885   3.078   2.797  11.282  0.2261  0.9613  0.3814
18824TIP3   OH277886   5.955   0.665   2.825 -0.0332 -0.1179 -0.0390
18824TIP3    H177887   5.876   0.650   2.773 -1.5733  0.0863  2.1283
18824TIP3    H277888   5.943   0.752   2.864  1.9097  0.5049 -0.7080
18825TIP3   OH277889   1.704   3.506   6.290 -0.1672 -0.2311  0.9635
18825TIP3    H177890   1.772   3.573   6.290 -0.7773  0.4358 -0.8202
18825TIP3    H277891   1.677   3.498   6.199 -0.1386 -2.9153  1.0987
18826TIP3   OH277892   0.316   4.667   4.772  0.1338 -0.2914 -0.6741
18826TIP3    H177893   0.351   4.610   4.841 -0.6075 -1.7233 -1.4248
18826TIP3    H277894   0.240   4.709   4.812 -0.0467 -0.7970 -0.4774
18827TIP3   OH277895   0.346   4.991  15.178 -0.1425  0.2304  0.2852
18827TIP3    H177896   0.308   5.058  15.120 -0.7800 -0.4773 -0.1279
18827TIP3    H277897   0.371   5.040  15.256  0.4471  1.1535 -0.4513
18828TIP3   OH277898   0.456   0.619  16.622 -0.0813 -0.0903 -0.3230
18828TIP3    H177899   0.521   0.573  16.569 -0.2022  0.8455 -1.3298
18828TIP3    H277900   0.372   0.596  16.582 -0.2563 -0.1527  0.0774
18829TIP3   OH277901   0.188   2.593   4.601  0.0618 -0.3038 -0.3190
18829TIP3    H177902   0.143   2.521   4.646 -0.6489 -0.3445 -1.0606
18829TIP3    H277903   0.178   2.572   4.508  2.0504 -0.5512 -0.5146
18830TIP3   OH277904   2.610   1.651   4.772  0.4457 -0.1647  0.0752
18830TIP3    H177905   2.515   1.638   4.764  0.3333  0.7405 -0.0809
18830TIP3    H277906   2.637   1.585   4.836 -0.3271 -0.2516  0.3240
18831TIP3   OH277907   6.467   2.354   5.159  0.4376  0.3749 -0.1621
18831TIP3    H177908   6.384   2.379   5.118 -0.0435 -0.2086  0.4287
18831TIP3    H277909   6.463   2.258   5.164  0.6003  0.4143  0.9929
18832TIP3   OH277910   3.630   2.258   0.820 -0.2123  0.2059  0.2428
18832TIP3    H177911   3.711   2.305   0.804  1.3737 -2.4320 -0.1718
18832TIP3    H277912   3.630   2.240   0.914 -0.8670  1.0961  0.4203
18833TIP3   OH277913   5.763   2.612  13.866  0.5410  0.4115 -0.1664
18833TIP3    H177914   5.749   2.619  13.772  1.4793 -1.7083 -0.5146
18833TIP3    H277915   5.698   2.547  13.895  1.2698 -0.0875  0.3700
18834TIP3   OH277916   2.003   6.484   0.485 -0.4515  0.1188 -0.1626
18834TIP3    H177917   2.033   6.396   0.462  0.6777  0.6413 -0.8179
18834TIP3    H277918   1.995   6.483   0.580 -0.1829 -0.6186 -0.1386
18835TIP3   OH277919   0.314   1.615   6.185  0.0178  0.4455 -0.4195
18835TIP3    H177920   0.332   1.695   6.136 -0.3939 -0.3123 -1.8751
18835TIP3    H277921   0.384   1.611   6.250  0.9546  1.1954 -1.3349
18836TIP3   OH277922   5.883   0.148  15.626 -0.0523 -0.2603  0.0584
18836TIP3    H177923   5.894   0.053  15.616  0.0375 -0.3183  0.7031
18836TIP3    H277924   5.819   0.158  15.696  0.2941  0.1592  0.3189
18837TIP3   OH277925   6.107   3.339   1.263  0.1036  0.1188 -0.3997
18837TIP3    H177926   6.174   3.271   1.260 -0.6230 -0.5984 -0.8116
18837TIP3    H277927   6.155   3.419   1.287  0.8684 -0.6594  0.7867
18838TIP3   OH277928   5.257   5.864   5.111 -0.6571  0.0972 -0.1372
18838TIP3    H177929   5.279   5.792   5.051  1.3819  0.6841 -0.1645
18838TIP3    H277930   5.223   5.820   5.189  0.3531 -0.9047 -0.2343
18839TIP3   OH277931   1.112   5.524  12.425  0.1692 -0.4354 -0.0053
18839TIP3    H177932   1.163   5.539  12.345  0.9267 -1.3911  0.2885
18839TIP3    H277933   1.127   5.603  12.477  0.9256 -0.4670 -0.1582
18840TIP3   OH277934   1.871   0.341   2.585 -0.0938 -0.2866  0.4568
18840TIP3    H177935   1.906   0.253   2.598  1.1097  0.1737  0.5345
18840TIP3    H277936   1.784   0.339   2.625 -0.3407 -1.5978 -0.0846
18841TIP3   OH277937   1.789   5.607  12.813 -0.1332  0.3623 -0.1592
18841TIP3    H177938   1.756   5.522  12.841 -0.1319  0.4803  0.2056
18841TIP3    H277939   1.720   5.669  12.839  0.0016  0.5096 -0.1524
18842TIP3   OH277940   6.682   2.363   4.416 -0.4239  0.3722 -0.1895
18842TIP3    H177941   6.687   2.269   4.431  0.0685  0.3515 -0.4492
18842TIP3    H277942   6.718   2.402   4.495 -1.9133  0.3921  0.5123
18843TIP3   OH277943   2.420   4.404  15.736  0.3810  0.4177 -0.5448
18843TIP3    H177944   2.489   4.389  15.671 -0.6382  0.4918 -1.6859
18843TIP3    H277945   2.466   4.438  15.813  1.8071 -1.0268 -0.6955
18844TIP3   OH277946   0.843   6.747   0.815 -0.7074 -0.2801  0.4191
18844TIP3    H177947   0.869   6.798   0.891  1.9529  1.2242 -1.3503
18844TIP3    H277948   0.843   6.810   0.742 -1.5328 -1.9641 -1.1273
18845TIP3   OH277949   4.672   1.513  11.411  0.4350  0.1224 -0.3072
18845TIP3    H177950   4.639   1.602  11.402  1.0593  0.4959  0.9129
18845TIP3    H277951   4.595   1.457  11.405  0.1421  0.6600 -2.0163
18846TIP3   OH277952   3.001   3.602  12.754 -0.6057  0.5480 -0.3229
18846TIP3    H177953   3.007   3.672  12.689 -0.9660  0.6583 -0.2394
18846TIP3    H277954   2.993   3.648  12.837  0.6120  0.4211 -0.1039
18847TIP3   OH277955   0.552   3.414  11.907  0.1794  0.8428  0.0489
18847TIP3    H177956   0.540   3.323  11.883  1.6143  0.6542 -0.0594
18847TIP3    H277957   0.605   3.451  11.836  0.0301  1.6378  0.3333
18848TIP3   OH277958   3.492   6.291   5.917  0.0205 -0.3894 -0.6576
18848TIP3    H177959   3.586   6.288   5.932 -0.0630 -0.2343 -0.0811
18848TIP3    H277960   3.472   6.384   5.904 -0.4281 -0.0594  1.8540
18849TIP3   OH277961   6.682   3.789  16.551 -0.2599 -0.2241  0.3200
18849TIP3    H177962   6.605   3.844  16.568  1.4523  1.9685  1.5386
18849TIP3    H277963   6.736   3.841  16.492  1.6172 -0.3358  1.8339
18850TIP3   OH277964   4.777   2.278   3.933  0.4090  0.3142  0.3088
18850TIP3    H177965   4.821   2.358   3.906 -0.4578  0.3797 -1.0188
18850TIP3    H277966   4.823   2.208   3.886 -2.3738  0.6009 -3.3217
18851TIP3   OH277967   0.340   5.646   4.836  0.1965  0.3075 -0.2693
18851TIP3    H177968   0.412   5.659   4.774  0.1053  0.7169 -0.2931
18851TIP3    H277969   0.380   5.656   4.922  0.3101 -0.1943 -0.2617
18852TIP3   OH277970   5.901   0.067  13.076  0.3522 -0.3346 -0.0490
18852TIP3    H177971   5.916   0.150  13.031 -0.3395 -1.0386 -1.6873
18852TIP3    H277972   5.921   0.001  13.010  0.5751 -1.4801  1.1203
18853TIP3   OH277973   3.131   6.755  11.673  0.0782  0.4845  0.5079
18853TIP3    H177974   3.106   6.666  11.698  1.0869 -0.4175 -1.5271
18853TIP3    H277975   3.060   6.784  11.615  0.7644  0.1688 -0.5192
18854TIP3   OH277976   5.396   4.463   3.809  0.0163 -0.2718  0.3810
18854TIP3    H177977   5.385   4.530   3.876 -1.5171 -1.2724  1.1967
18854TIP3    H277978   5.351   4.386   3.845 -2.7230 -0.2818 -2.5873
18855TIP3   OH277979   0.054   1.960   4.688  0.2549 -0.1499 -0.1001
18855TIP3    H177980   0.114   2.034   4.688 -0.3010  0.3167  0.8983
18855TIP3    H277981   0.076   1.911   4.608 -0.1075  1.6835 -1.3826
18856TIP3   OH277982   0.988   2.094  11.188 -0.1581 -0.6597  0.0309
18856TIP3    H177983   1.061   2.061  11.241  0.8165  1.0230 -0.1834
18856TIP3    H277984   1.025   2.169  11.140 -1.2744 -1.4716 -2.2637
18857TIP3   OH277985   2.396   5.216   1.569 -0.5149  0.9036  0.2846
18857TIP3    H177986   2.488   5.201   1.589 -0.2869  0.6022 -0.9022
18857TIP3    H277987   2.364   5.268   1.642  0.5604  0.8979  0.7819
18858TIP3   OH277988   3.922   5.200   3.686  0.0374 -0.7253  0.0696
18858TIP3    H177989   3.994   5.263   3.678  0.2423 -0.6083  2.1771
18858TIP3    H277990   3.949   5.143   3.759 -1.9971 -0.6705  0.9121
18859TIP3   OH277991   2.972   3.344   4.684 -0.1237 -0.3455 -0.6644
18859TIP3    H177992   2.885   3.313   4.660 -0.3587  0.0215 -0.2934
18859TIP3    H277993   2.979   3.430   4.643 -0.7012  0.4819  0.9154
18860TIP3   OH277994   2.620   3.897  12.418  0.1674 -0.0965 -0.0599
18860TIP3    H177995   2.659   3.957  12.354 -0.1576 -0.3253 -0.4797
18860TIP3    H277996   2.553   3.850  12.368 -0.3733  0.0122  0.5502
18861TIP3   OH277997   3.037   6.263   4.517 -0.3671 -0.2893 -0.0606
18861TIP3    H177998   3.013   6.175   4.488 -0.5693 -0.3881  0.3963
18861TIP3    H277999   3.077   6.250   4.603  1.3840 -0.1239 -0.8267
18862TIP3   OH278000   1.257   4.642  14.865  0.3133 -0.6646 -0.1246
18862TIP3    H178001   1.329   4.682  14.817 -0.2454 -1.2999 -1.5465
18862TIP3    H278002   1.235   4.706  14.933  3.4874 -1.2691  1.6906
18863TIP3   OH278003   6.417   1.387  13.672  0.0767  0.4834 -0.1425
18863TIP3    H178004   6.385   1.474  13.697 -1.8865 -0.7058  1.8899
18863TIP3    H278005   6.506   1.384  13.708 -1.5246  0.0113  4.4649
18864TIP3   OH278006   2.500   6.610  12.428 -0.2386 -0.1531 -0.5223
18864TIP3    H178007   2.505   6.580  12.338  0.0828 -0.1295 -0.5124
18864TIP3    H278008   2.525   6.534  12.481 -0.8868 -0.3087 -0.4286
18865TIP3   OH278009   3.833   5.358  12.697  0.3564  0.7129 -0.3165
18865TIP3    H178010   3.827   5.285  12.636  0.9355  1.3642 -1.1786
18865TIP3    H278011   3.742   5.379  12.719  0.1647  0.1015 -0.5068
18866TIP3   OH278012   0.713   3.050   1.534 -0.1802 -0.3498 -0.4199
18866TIP3    H178013   0.707   3.145   1.521 -0.4374 -0.4465 -1.0527
18866TIP3    H278014   0.790   3.038   1.589  0.2071  0.1842 -0.8388
18867TIP3   OH278015   4.304   3.677   3.176  0.1595 -0.4304 -0.1252
18867TIP3    H178016   4.269   3.650   3.092  0.3454 -0.7630 -0.0994
18867TIP3    H278017   4.332   3.768   3.163  1.5446 -0.9281 -0.8617
18868TIP3   OH278018   6.412   0.557  10.331  0.0955  0.7057 -0.3877
18868TIP3    H178019   6.348   0.624  10.308 -2.1980 -0.9376  0.8371
18868TIP3    H278020   6.394   0.535  10.422  0.9347 -1.3830 -0.6608
18869TIP3   OH278021   3.469   3.465  14.454 -0.1407 -0.5943 -0.3592
18869TIP3    H178022   3.388   3.515  14.449 -0.5494 -1.3654 -2.7701
18869TIP3    H278023   3.533   3.526  14.491 -1.0016  1.1811 -1.6696
18870TIP3   OH278024   1.023   0.150  13.423  0.1513 -0.0245 -0.1194
18870TIP3    H178025   1.010   0.060  13.391  0.9762 -0.5961  1.0659
18870TIP3    H278026   0.997   0.147  13.514  0.7051  0.8058  0.0764
18871TIP3   OH278027   5.218   1.980  16.284 -0.4920 -0.4815  0.3878
18871TIP3    H178028   5.273   1.945  16.214 -1.0811 -1.0054  0.1677
18871TIP3    H278029   5.278   1.995  16.357  0.0901 -0.1635 -0.1496
18872TIP3   OH278030   6.398   5.499  15.915 -0.7076  0.0361 -0.0124
18872TIP3    H178031   6.349   5.449  15.850 -0.7970  0.1506 -0.0342
18872TIP3    H278032   6.332   5.526  15.980 -0.9324  1.3324 -0.7327
18873TIP3   OH278033   1.130   4.939  15.892  0.1715  0.1964 -0.1695
18873TIP3    H178034   1.145   5.002  15.964  2.1634  0.6194 -0.8760
18873TIP3    H278035   1.038   4.950  15.870 -0.1482  1.0701  1.3955
18874TIP3   OH278036   5.156   3.622  14.572  0.4112 -0.0987 -0.2792
18874TIP3    H178037   5.092   3.666  14.515 -0.0397 -0.8040 -0.3394
18874TIP3    H278038   5.116   3.624  14.659 -0.1937 -1.4475 -0.5012
18875TIP3   OH278039   3.919   1.635  13.703 -0.5148  0.0203 -0.2244
18875TIP3    H178040   3.883   1.654  13.790 -0.4438 -1.2971  0.1234
18875TIP3    H278041   3.842   1.615  13.650 -0.5969  1.3124 -0.6090
18876TIP3   OH278042   4.613   3.338  15.484  0.2436 -0.4573  0.4881
18876TIP3    H178043   4.694   3.350  15.434 -0.2029  1.2213  0.1012
18876TIP3    H278044   4.630   3.381  15.568 -0.4707  0.5461  0.1366
18877TIP3   OH278045   4.895   3.733  12.191  0.6262 -0.4025  0.2434
18877TIP3    H178046   4.985   3.704  12.182  0.7953  0.3771 -0.7020
18877TIP3    H278047   4.898   3.805  12.254  0.4701 -1.1874  1.1700
18878TIP3   OH278048   0.142   4.525   4.139 -0.2933 -0.2187 -0.1628
18878TIP3    H178049   0.077   4.508   4.071  0.1213  1.0780 -0.9296
18878TIP3    H278050   0.125   4.459   4.206 -0.3411 -1.9295 -1.7770
18879TIP3   OH278051   0.059   0.335   0.720 -0.4729  0.7463  0.0545
18879TIP3    H178052   0.022   0.339   0.631  1.9503  1.5708 -1.0202
18879TIP3    H278053   0.038   0.421   0.758 -2.8547 -0.1565  0.9391
18880TIP3   OH278054   2.469   1.409  13.659 -0.1805  0.2158 -0.1534
18880TIP3    H178055   2.484   1.375  13.747  0.1708 -0.6956 -0.5507
18880TIP3    H278056   2.556   1.438  13.629  0.1958 -1.6655 -1.0662
18881TIP3   OH278057   2.619   1.923   3.557 -0.0487  0.0990 -0.0352
18881TIP3    H178058   2.580   1.914   3.470  0.5191  4.0326 -0.8892
18881TIP3    H278059   2.710   1.950   3.540  0.7938 -1.2844  1.8722
18882TIP3   OH278060   4.755   5.016   5.059 -0.2904 -0.0682 -1.1850
18882TIP3    H178061   4.846   5.047   5.059  0.0552 -0.4553  3.3165
18882TIP3    H278062   4.762   4.923   5.082 -1.8105 -0.0031 -0.3396
18883TIP3   OH278063   5.511   4.167   6.112  0.2890  0.0842 -0.2340
18883TIP3    H178064   5.560   4.086   6.103  2.8495  1.1179  2.6105
18883TIP3    H278065   5.431   4.142   6.159 -1.1466 -1.3158 -3.1785
18884TIP3   OH278066   3.247   2.706  11.906 -0.1779 -0.2564  0.0362
18884TIP3    H178067   3.323   2.707  11.848 -0.4316 -1.7949 -0.3842
18884TIP3    H278068   3.183   2.651  11.860 -0.8448 -0.5115  1.2243
18885TIP3   OH278069   2.282   4.678   4.110  0.0950  0.1308  0.4574
18885TIP3    H178070   2.289   4.616   4.038  0.7276  0.4294  0.2500
18885TIP3    H278071   2.307   4.762   4.072  0.2059  0.3316  0.9632
18886TIP3   OH278072   5.217   1.471  14.862  0.1700 -0.2778  0.2610
18886TIP3    H178073   5.195   1.401  14.801  1.9251 -2.8791  2.3907
18886TIP3    H278074   5.133   1.498  14.899 -0.6008 -0.7963 -1.0419
18887TIP3   OH278075   3.717   1.916  13.881  0.0590 -0.6743  0.1417
18887TIP3    H178076   3.706   1.972  13.804  2.7061 -1.7729 -1.1718
18887TIP3    H278077   3.727   1.977  13.954 -0.1885  0.4728 -0.7634
18888TIP3   OH278078   2.220   0.965   0.181 -0.0349 -0.1289  0.3259
18888TIP3    H178079   2.182   1.030   0.122  0.4969  0.2271  0.3716
18888TIP3    H278080   2.221   1.007   0.267  0.2268 -0.2236  0.3724
18889TIP3   OH278081   1.633   5.670   0.950  0.2310 -0.1047  0.2392
18889TIP3    H178082   1.544   5.703   0.957  0.3152  0.0396  0.6422
18889TIP3    H278083   1.625   5.575   0.954 -0.1693 -0.2606 -2.4577
18890TIP3   OH278084   6.322   5.780  14.757 -0.4851 -0.1033  0.3250
18890TIP3    H178085   6.283   5.717  14.817  0.0161 -0.9634 -0.2132
18890TIP3    H278086   6.391   5.730  14.712 -0.6413  0.5892 -0.7306
18891TIP3   OH278087   5.650   5.266  12.914 -0.1523 -0.2184  0.0091
18891TIP3    H178088   5.611   5.324  12.849 -0.4396  1.5146  1.6262
18891TIP3    H278089   5.737   5.302  12.929  0.6246 -1.7073 -0.7155
18892TIP3   OH278090   6.656   4.089   2.555 -0.5401  0.3773 -0.5034
18892TIP3    H178091   6.654   4.018   2.619  3.1551  1.0635  0.5680
18892TIP3    H278092   6.645   4.169   2.607  1.2086  0.8645 -0.8080
18893TIP3   OH278093   5.057   1.614   5.631  0.2690  0.0937  0.0251
18893TIP3    H178094   5.015   1.599   5.716  0.4747  0.6725  0.2390
18893TIP3    H278095   5.093   1.703   5.638  0.8856 -0.1187 -0.4250
18894TIP3   OH278096   5.952   3.758  13.828 -0.3991 -0.1678  0.8328
18894TIP3    H178097   6.015   3.771  13.899  1.5828 -1.0552 -0.6560
18894TIP3    H278098   5.922   3.668  13.840  0.2080 -0.4405  0.3859
18895TIP3   OH278099   1.338   1.574   4.517  0.0204  0.0667 -0.7832
18895TIP3    H178100   1.250   1.566   4.481 -0.8067 -0.0944  1.1476
18895TIP3    H278101   1.379   1.490   4.500 -1.8219 -1.6281  2.1756
18896TIP3   OH278102   4.647   4.533  13.064 -0.0570  0.5167 -0.2264
18896TIP3    H178103   4.696   4.610  13.093 -0.8978  0.9352  0.1313
18896TIP3    H278104   4.714   4.467  13.048  0.5296  0.4282  2.1575
18897TIP3   OH278105   6.614   4.637   6.159  0.4432  0.2533 -0.0337
18897TIP3    H178106   6.586   4.575   6.091  1.6486 -1.5132  0.9940
18897TIP3    H278107   6.642   4.581   6.231  1.1114  2.0446  1.1449
18898TIP3   OH278108   4.224   5.519  13.724 -0.2746  0.3400  0.1805
18898TIP3    H178109   4.231   5.542  13.631  2.8402  0.8652  0.4417
18898TIP3    H278110   4.214   5.424  13.724 -2.8086  0.5435 -0.6854
18899TIP3   OH278111   4.494   3.037   6.066 -0.3231  0.3492 -0.6105
18899TIP3    H178112   4.463   3.090   5.993 -2.0225  0.5271  0.1918
18899TIP3    H278113   4.445   2.955   6.060 -1.6555  0.9578  1.1707
18900TIP3   OH278114   5.765   3.993   5.227  0.1102  0.1606 -0.3280
18900TIP3    H178115   5.744   3.923   5.166  1.1701 -0.6254  0.1729
18900TIP3    H278116   5.828   3.954   5.287  0.3402  1.4043  0.2689
18901TIP3   OH278117   0.371   3.670   3.434 -0.1006 -0.5217  0.0951
18901TIP3    H178118   0.337   3.662   3.522 -0.8861  1.9229  0.0844
18901TIP3    H278119   0.466   3.675   3.445 -0.2162  0.1417  0.8510
18902TIP3   OH278120   4.689   5.882   6.970 -0.3564  0.1882  0.8086
18902TIP3    H178121   4.693   5.968   6.928  0.0741 -0.2241 -0.0114
18902TIP3    H278122   4.780   5.857   6.984 -0.4848  0.0624  1.4782
18903TIP3   OH278123   6.179   2.400   5.069 -0.5104 -0.1309  0.1065
18903TIP3    H178124   6.119   2.330   5.044 -3.2263  1.9495  0.3178
18903TIP3    H278125   6.179   2.459   4.994  2.6452 -0.8031 -0.5438
18904TIP3   OH278126   3.218   1.785   4.017 -0.7394 -0.2231  0.1572
18904TIP3    H178127   3.288   1.776   4.082 -0.0766  0.2524 -0.4665
18904TIP3    H278128   3.240   1.722   3.949  0.0739  1.1287 -0.8783
18905TIP3   OH278129   2.687   1.713  13.116 -0.0492 -0.1043  0.2423
18905TIP3    H178130   2.627   1.696  13.044  1.7294 -0.5779 -1.2237
18905TIP3    H278131   2.688   1.808  13.125 -0.6872 -0.0718 -0.0207
18906TIP3   OH278132   1.310   4.967   1.252  0.0554  0.1474  0.7455
18906TIP3    H178133   1.241   4.903   1.237 -0.6193  0.7578  1.1783
18906TIP3    H278134   1.287   5.009   1.335  1.4563 -0.2751  1.3848
18907TIP3   OH278135   2.208   5.364   1.190  0.3880 -0.0507  0.3564
18907TIP3    H178136   2.190   5.321   1.274  1.2589 -1.3711 -0.1089
18907TIP3    H278137   2.295   5.334   1.165  0.3022  0.6227 -0.8521
18908TIP3   OH278138   0.522   6.061   0.716  0.5603  0.1504  0.6655
18908TIP3    H178139   0.559   5.977   0.691 -0.9449 -0.7735  1.4105
18908TIP3    H278140   0.583   6.095   0.782  0.0570 -1.4409  2.0342
18909TIP3   OH278141   5.142   0.126   5.160 -0.4699  0.0288  0.2426
18909TIP3    H178142   5.081   0.135   5.233 -1.8197 -0.0077 -0.8444
18909TIP3    H278143   5.160   0.032   5.154 -1.2677 -0.0973 -0.1920
18910TIP3   OH278144   5.205   1.804  15.379  0.2083  0.5437 -0.2096
18910TIP3    H178145   5.288   1.840  15.411  1.0763 -2.2454  0.9910
18910TIP3    H278146   5.222   1.782  15.287  0.0220  1.9560 -0.6195
18911TIP3   OH278147   3.374   6.747   4.358 -0.0178  0.1248  0.5037
18911TIP3    H178148   3.333   6.744   4.445  0.3340 -0.1991  0.6606
18911TIP3    H278149   3.411   6.835   4.352  2.0692 -0.6000  1.6735
18912TIP3   OH278150   3.984   5.962  11.276 -0.0440 -0.1170  0.3284
18912TIP3    H178151   3.938   5.893  11.324 -0.6759 -1.9043 -2.5884
18912TIP3    H278152   4.075   5.932  11.273 -0.3110 -0.9157 -0.9041
18913TIP3   OH278153   1.893   5.891   4.688 -0.2891 -0.4070 -0.1304
18913TIP3    H178154   1.904   5.986   4.679  1.3711 -0.4716  0.7866
18913TIP3    H278155   1.802   5.875   4.663 -1.4104  1.7732  2.1176
18914TIP3   OH278156   1.327   3.526  13.365 -0.1902 -0.2067 -0.1352
18914TIP3    H178157   1.260   3.550  13.429 -0.3780  0.8907 -0.7140
18914TIP3    H278158   1.405   3.508  13.418 -0.1863  1.2153  0.3919
18915TIP3   OH278159   0.976   5.831   4.840  0.1904  0.1165  0.1806
18915TIP3    H178160   1.014   5.750   4.805  0.2793  1.1004 -2.1603
18915TIP3    H278161   0.882   5.812   4.846  0.2991 -0.3894  0.3898
18916TIP3   OH278162   5.450   3.630   1.829 -0.0744 -0.4987 -0.3504
18916TIP3    H178163   5.416   3.541   1.831 -0.3723 -0.3761  1.0233
18916TIP3    H278164   5.530   3.624   1.777 -0.1631 -1.5451 -0.3819
18917TIP3   OH278165   6.534   0.858   0.680  0.8257  0.5785 -0.1303
18917TIP3    H178166   6.526   0.762   0.686  0.1031  0.5867 -0.9061
18917TIP3    H278167   6.503   0.889   0.765  0.1984  0.1681 -0.2041
18918TIP3   OH278168   0.237   5.922   2.225 -0.0955  0.7409  0.2759
18918TIP3    H178169   0.293   5.874   2.164  0.6684  1.7259  0.1965
18918TIP3    H278170   0.212   5.856   2.290 -0.6606 -0.2432 -0.9010
18919TIP3   OH278171   3.590   5.752  12.125 -0.4422  0.1218 -0.1566
18919TIP3    H178172   3.630   5.828  12.083  0.4183 -0.0047  0.4013
18919TIP3    H278173   3.645   5.678  12.100  0.0722  0.0365  1.1220
18920TIP3   OH278174   2.508   4.443  15.995 -0.4180 -0.1650 -0.0965
18920TIP3    H178175   2.564   4.519  16.011  0.3248 -0.3078 -1.8044
18920TIP3    H278176   2.419   4.475  16.008 -0.0536  0.5659  0.7410
18921TIP3   OH278177   2.789   2.868  16.448 -0.2892 -1.0404 -1.0348
18921TIP3    H178178   2.797   2.850  16.541 -0.5076 -1.2085 -1.0478
18921TIP3    H278179   2.703   2.910  16.439  0.7208  1.2295 -0.8178
18922TIP3   OH278180   1.935   1.637   0.043  0.4080  0.1582 -0.4734
18922TIP3    H178181   1.870   1.619  -0.025  0.7609  0.2956 -0.8467
18922TIP3    H278182   1.885   1.632   0.125  0.0315 -0.2420 -0.7225
18923TIP3   OH278183   0.744   6.335   3.973 -0.0037 -0.5636 -0.5688
18923TIP3    H178184   0.803   6.342   4.048 -1.0840 -1.2161  0.3598
18923TIP3    H278185   0.752   6.244   3.944 -1.1022 -0.8760  0.0486
18924TIP3   OH278186   3.352   0.461   0.341 -0.1098 -0.4938  0.3834
18924TIP3    H178187   3.265   0.442   0.306  0.5460 -1.5384 -0.7788
18924TIP3    H278188   3.377   0.543   0.300 -0.2251 -0.5963  0.1055
18925TIP3   OH278189   0.677   1.179  13.309  0.6865  0.3525  0.0270
18925TIP3    H178190   0.692   1.096  13.354  3.6862  0.6415 -0.2545
18925TIP3    H278191   0.582   1.183  13.297  0.4231 -2.9960  0.1198
18926TIP3   OH278192   0.820   3.335   5.037  0.4097 -0.4089 -0.3476
18926TIP3    H178193   0.903   3.383   5.039 -0.2120  0.7502 -0.9736
18926TIP3    H278194   0.754   3.403   5.020 -0.4476 -1.5845 -1.9292
18927TIP3   OH278195   1.122   4.000   3.628  0.3400  0.1324 -0.0632
18927TIP3    H178196   1.155   3.970   3.713 -0.3292 -0.3049  0.0492
18927TIP3    H278197   1.120   4.095   3.635  0.5139  0.1104  0.3271
18928TIP3   OH278198   2.576   5.443  11.545 -0.3838 -0.5502 -0.0562
18928TIP3    H178199   2.633   5.514  11.516 -0.1575 -1.0846 -0.9688
18928TIP3    H278200   2.593   5.372  11.483  0.0808 -1.7385  1.3907
18929TIP3   OH278201   1.953   0.175  15.914 -0.1269  0.4367  0.1200
18929TIP3    H178202   1.861   0.156  15.896 -0.0815  1.4636 -1.4242
18929TIP3    H278203   2.001   0.112  15.861  0.0762 -0.2670  1.1245
18930TIP3   OH278204   3.053   3.940   5.741  1.1809 -0.1470  0.6671
18930TIP3    H178205   3.101   3.975   5.815  2.5234  2.0925 -1.1311
18930TIP3    H278206   3.116   3.942   5.668 -0.7892  0.2623 -1.1440
18931TIP3   OH278207   2.049   3.762  14.102 -0.8216  0.2332 -0.0603
18931TIP3    H178208   1.983   3.831  14.090 -1.7456 -0.7555 -0.8134
18931TIP3    H278209   2.000   3.681  14.101  0.2518 -0.4544  0.9131
18932TIP3   OH278210   2.010   0.284   3.158  0.1794 -0.1584  0.5381
18932TIP3    H178211   2.093   0.329   3.174  2.0996 -3.0878 -0.4656
18932TIP3    H278212   1.959   0.347   3.106  1.1278  2.2480  2.3206
18933TIP3   OH278213   4.667   4.381  10.736 -0.7046 -0.4909 -0.1004
18933TIP3    H178214   4.644   4.457  10.682 -0.1902 -0.0364  0.3017
18933TIP3    H278215   4.607   4.384  10.810 -1.2339 -0.9623 -0.4981
18934TIP3   OH278216   4.169   2.366  10.681  0.3841  0.6572  0.0299
18934TIP3    H178217   4.164   2.461  10.692 -2.3843  0.5934  0.0197
18934TIP3    H278218   4.096   2.344  10.623  0.1255 -1.6042  1.0807
18935TIP3   OH278219   1.334   4.066   2.567 -0.3799 -0.5654  0.1499
18935TIP3    H178220   1.245   4.089   2.591 -0.8694 -1.1939 -0.9988
18935TIP3    H278221   1.340   3.971   2.582 -0.7168 -0.9936 -2.0907
18936TIP3   OH278222   0.148   1.124   6.136 -0.1621  0.3659 -0.0108
18936TIP3    H178223   0.071   1.121   6.079  0.0960  0.0151 -0.3466
18936TIP3    H278224   0.115   1.101   6.222 -0.8265  2.2972  0.2952
18937TIP3   OH278225   5.933   2.458  12.209  0.0651 -0.3454  0.1968
18937TIP3    H178226   5.841   2.481  12.221 -0.3460 -0.6745 -1.9860
18937TIP3    H278227   5.954   2.404  12.286 -1.7207 -0.7358  0.4530
18938TIP3   OH278228   6.404   4.707   2.161 -0.2996 -0.6374  0.6454
18938TIP3    H178229   6.428   4.615   2.163 -2.2177 -1.1634  1.6949
18938TIP3    H278230   6.473   4.751   2.210  0.4262 -1.5546  0.4627
18939TIP3   OH278231   6.647   5.808  13.030 -0.0991 -0.0619  0.8070
18939TIP3    H178232   6.569   5.755  13.011  0.5418 -0.3391 -1.2339
18939TIP3    H278233   6.648   5.875  12.963 -0.0127  1.6330  2.4180
18940TIP3   OH278234   5.280   5.434  12.561  0.2537 -0.3146 -0.3839
18940TIP3    H178235   5.242   5.382  12.632  1.4390 -1.0228 -0.2495
18940TIP3    H278236   5.255   5.389  12.481 -0.7525  0.2679 -0.4140
18941TIP3   OH278237   0.241   2.931  16.055  0.0330 -0.0012  0.0028
18941TIP3    H178238   0.175   2.984  16.010 -0.7643 -0.9702  0.0155
18941TIP3    H278239   0.210   2.926  16.146 -0.2906 -1.0805 -0.1516
18942TIP3   OH278240   5.494   3.587   4.147  0.1790  0.6338 -0.0975
18942TIP3    H178241   5.524   3.629   4.066 -0.1609  0.0582 -0.5290
18942TIP3    H278242   5.574   3.576   4.198  0.3500  1.3179 -0.2024
18943TIP3   OH278243   6.364   6.721  14.579 -0.3296 -0.1628 -0.5907
18943TIP3    H178244   6.385   6.656  14.647  1.6090 -1.0193 -1.9100
18943TIP3    H278245   6.399   6.803  14.612 -0.3203 -0.3560 -0.1161
18944TIP3   OH278246   2.744   1.591   4.137  0.4973  0.8956  0.3481
18944TIP3    H178247   2.826   1.579   4.185  0.9690  1.6809 -0.2453
18944TIP3    H278248   2.695   1.656   4.187  0.3023  0.5478  0.6133
18945TIP3   OH278249   0.270   3.143  11.300  0.0595 -0.1516 -0.7764
18945TIP3    H178250   0.311   3.230  11.296 -1.3191  0.5205 -0.6588
18945TIP3    H278251   0.321   3.096  11.366 -2.6791  2.5320  3.7697
18946TIP3   OH278252   6.717   5.225  16.728  0.0003  0.0148  0.7156
18946TIP3    H178253   6.765   5.302  16.759  3.7430 -2.3635  1.4480
18946TIP3    H278254   6.665   5.258  16.655  0.9715  3.3228  1.3024
18947TIP3   OH278255   3.051   5.910  13.328  0.0255 -0.2939 -0.2210
18947TIP3    H178256   3.059   5.816  13.312  0.3113 -0.4044  0.4944
18947TIP3    H278257   3.128   5.930  13.382  0.3998  0.5085 -1.0329
18948TIP3   OH278258   3.664   4.281  10.368 -0.4475 -0.3499  0.4210
18948TIP3    H178259   3.738   4.246  10.318 -0.3454 -1.1675  1.1151
18948TIP3    H278260   3.643   4.212  10.431 -1.6983 -0.0559  0.3455
18949TIP3   OH278261   1.044   5.564  12.836  0.0504  0.0275  0.3584
18949TIP3    H178262   0.951   5.572  12.817 -0.2895 -0.3652  1.7261
18949TIP3    H278263   1.086   5.628  12.779 -1.1639  1.0074  0.5254
18950TIP3   OH278264   0.856   0.418  11.231 -0.2011  0.1566  0.5240
18950TIP3    H178265   0.794   0.473  11.184 -1.8115 -1.6018  0.4402
18950TIP3    H278266   0.913   0.479  11.277  0.1888  1.9129 -2.0683
18951TIP3   OH278267   5.798   3.538   3.920  0.7725  0.3911 -0.1568
18951TIP3    H178268   5.761   3.463   3.966 -1.6132  0.4975 -1.7465
18951TIP3    H278269   5.884   3.550   3.960  0.5959 -2.1885  1.2185
18952TIP3   OH278270   5.850   4.908  14.152  0.1300  0.5138 -0.4072
18952TIP3    H178271   5.873   4.888  14.061 -0.1055 -1.1180 -0.1278
18952TIP3    H278272   5.787   4.841  14.177  0.4252  0.7431  1.0630
18953TIP3   OH278273   4.458   0.294  13.484  0.0472  0.7058  0.1388
18953TIP3    H178274   4.548   0.323  13.465  0.2502 -0.9197 -1.7722
18953TIP3    H278275   4.463   0.198  13.482 -1.4504  0.5439  1.6405
18954TIP3   OH278276   3.911   4.973   2.166  0.1353  0.0523  0.1237
18954TIP3    H178277   3.985   4.939   2.115  1.6405  0.7769  1.7274
18954TIP3    H278278   3.850   4.900   2.170 -1.1435  0.5645 -4.4749
18955TIP3   OH278279   1.277   3.657  15.836 -0.0324 -0.5463 -0.1546
18955TIP3    H178280   1.225   3.737  15.831  0.0933 -0.3695  0.9348
18955TIP3    H278281   1.245   3.602  15.765 -1.7078 -0.4225  0.4500
18956TIP3   OH278282   3.139   2.919   2.457 -0.0191 -0.3395  0.4438
18956TIP3    H178283   3.079   2.893   2.386 -0.6049  2.5739 -0.2731
18956TIP3    H278284   3.207   2.852   2.456 -1.0520 -1.4831 -1.5529
18957TIP3   OH278285   3.705   1.662  13.077 -0.5549 -0.2074 -0.1118
18957TIP3    H178286   3.740   1.629  12.994 -0.2918  2.2822 -1.0807
18957TIP3    H278287   3.783   1.673  13.132 -0.3248  0.9510 -0.6324
18958TIP3   OH278288   4.661   3.735  16.981  0.0685  0.1024  0.1105
18958TIP3    H178289   4.600   3.662  16.969  0.8966 -0.3339 -2.0391
18958TIP3    H278290   4.616   3.810  16.943 -1.0349  0.9607  2.8620
18959TIP3   OH278291   5.927   4.429   1.467 -0.0460 -0.0113  0.0294
18959TIP3    H178292   5.975   4.459   1.544  0.5562  0.2327 -0.4329
18959TIP3    H278293   5.847   4.482   1.466 -0.1803 -0.1952  0.6239
18960TIP3   OH278294   3.809   3.563  14.986  0.5955  0.2462  0.1672
18960TIP3    H178295   3.856   3.521  14.914  0.1640 -1.4737  0.8322
18960TIP3    H278296   3.775   3.490  15.038  0.1833  1.4379  1.6508
18961TIP3   OH278297   3.532   3.176   5.796  0.0605 -0.4003  0.8807
18961TIP3    H178298   3.503   3.256   5.753  1.3839 -0.5632 -0.4148
18961TIP3    H278299   3.626   3.191   5.812  0.3407 -1.7093  0.5530
18962TIP3   OH278300   3.276   3.613   1.457  0.0840  0.0902 -0.2647
18962TIP3    H178301   3.196   3.665   1.454  0.9493  1.6328  1.4110
18962TIP3    H278302   3.283   3.574   1.370 -1.4523  1.5010 -1.0716
18963TIP3   OH278303   2.599   5.801   1.842 -0.2751 -0.2204 -0.0646
18963TIP3    H178304   2.518   5.783   1.794 -0.2126  1.2446 -0.7685
18963TIP3    H278305   2.577   5.875   1.898  0.3711 -0.3029  0.3023
18964TIP3   OH278306   4.401   1.848  10.471 -0.1237  0.0673  0.2669
18964TIP3    H178307   4.452   1.925  10.445  1.5043 -0.0023  2.8625
18964TIP3    H278308   4.321   1.884  10.509  0.9100  0.6060  2.0605
18965TIP3   OH278309   2.891   4.327   2.053 -0.8067 -0.0318 -0.1097
18965TIP3    H178310   2.798   4.342   2.069 -0.3362  2.2032  0.9164
18965TIP3    H278311   2.926   4.302   2.138  0.0602  2.5699  0.3951
18966TIP3   OH278312   6.659   4.208   3.586 -0.4512  0.2251  0.4503
18966TIP3    H178313   6.737   4.157   3.607 -0.6018  0.9952  3.2904
18966TIP3    H278314   6.621   4.164   3.510  2.0191 -0.9272 -0.1986
18967TIP3   OH278315   4.191   6.519  12.590 -0.0705  0.3301 -0.0415
18967TIP3    H178316   4.186   6.442  12.645  1.2887  0.3085  0.0888
18967TIP3    H278317   4.203   6.485  12.501 -3.1558  0.3388 -0.5601
18968TIP3   OH278318   5.867   5.706  16.763 -0.1923 -0.2998 -0.1032
18968TIP3    H178319   5.902   5.618  16.749 -3.5351 -2.1729  1.9955
18968TIP3    H278320   5.794   5.712  16.701 -1.5242 -0.0597  1.4437
18969TIP3   OH278321   1.971   1.140  12.217 -0.1998 -0.2410  0.1852
18969TIP3    H178322   2.016   1.134  12.301 -2.7884  0.6359  1.7487
18969TIP3    H278323   1.962   1.049  12.188  2.7238 -0.4574 -0.4133
18970TIP3   OH278324   3.256   5.799   5.231  0.4722 -0.0196  0.6992
18970TIP3    H178325   3.165   5.830   5.233  0.1878 -0.8535  1.0024
18970TIP3    H278326   3.250   5.705   5.249  1.3007 -0.3059 -0.3970
18971TIP3   OH278327   4.854   3.558   0.559  1.0588 -0.3524 -0.3886
18971TIP3    H178328   4.823   3.484   0.612 -0.1251  0.9881  0.8512
18971TIP3    H278329   4.938   3.583   0.599  0.7440 -0.1004  0.1245
18972TIP3   OH278330   3.095   0.973   0.400  0.6354  0.6523 -0.1971
18972TIP3    H178331   3.171   1.021   0.366  0.9039 -0.6151 -1.4651
18972TIP3    H278332   3.074   0.911   0.331 -0.5644 -0.1112  0.8357
18973TIP3   OH278333   0.305   0.439   5.898 -0.1321 -0.0865  0.3909
18973TIP3    H178334   0.242   0.492   5.850 -0.6345 -0.8318  0.2034
18973TIP3    H278335   0.377   0.425   5.837 -0.0077  0.3584  0.4347
18974TIP3   OH278336   5.084   0.048   4.203  0.1376 -0.1705  0.1507
18974TIP3    H178337   5.133   0.045   4.286 -2.5376  1.9906  1.9981
18974TIP3    H278338   5.151   0.062   4.136  2.2803 -0.4365  2.1094
18975TIP3   OH278339   6.658   2.570   3.671  0.1165  0.4649  0.2032
18975TIP3    H178340   6.744   2.551   3.634 -0.0524  0.2428 -0.0836
18975TIP3    H278341   6.600   2.577   3.594 -0.0819  0.8162  0.3805
18976TIP3   OH278342   6.633   6.223  16.320 -0.2967 -0.5145  0.5306
18976TIP3    H178343   6.555   6.180  16.356 -0.0290  0.3340  2.2261
18976TIP3    H278344   6.693   6.229  16.394  0.8817 -0.0000 -0.4378
18977TIP3   OH278345   3.444   6.177  14.637  0.4476  0.1063 -0.1649
18977TIP3    H178346   3.385   6.204  14.567 -2.8369 -1.2528  1.8079
18977TIP3    H278347   3.486   6.258  14.666  0.0888  1.0455 -2.1088
18978TIP3   OH278348   5.122   2.841   0.563 -0.0256  0.4795 -0.1749
18978TIP3    H178349   5.180   2.800   0.628  0.2961  2.4783  0.8699
18978TIP3    H278350   5.182   2.881   0.500 -0.3407 -0.7201 -1.2863
18979TIP3   OH278351   4.469   1.374  10.723  0.1256  0.0229  0.1859
18979TIP3    H178352   4.511   1.430  10.658  0.9096 -0.6824  0.0627
18979TIP3    H278353   4.376   1.385  10.707  0.2959  0.2918 -0.6904
18980TIP3   OH278354   6.426   4.657  13.465 -0.7784 -0.1897  0.1210
18980TIP3    H178355   6.498   4.707  13.502 -0.1278 -1.4163  0.5474
18980TIP3    H278356   6.464   4.611  13.390 -1.3185 -0.1855 -0.1619
18981TIP3   OH278357   3.487   6.335  16.266 -0.7540 -0.4069 -0.0391
18981TIP3    H178358   3.486   6.422  16.225  1.0897 -0.6450 -0.6726
18981TIP3    H278359   3.477   6.274  16.194  0.5675 -0.7764  0.0760
18982TIP3   OH278360   2.474   6.058  13.909 -0.1479  0.0623 -0.7049
18982TIP3    H178361   2.433   6.048  13.995 -0.2736 -0.8267 -0.8528
18982TIP3    H278362   2.409   6.107  13.858 -0.8584 -0.9401 -0.8033
18983TIP3   OH278363   3.076   1.538   2.517 -0.7666 -0.2419 -0.6602
18983TIP3    H178364   3.035   1.614   2.476  1.7856  0.7212 -1.5833
18983TIP3    H278365   3.114   1.572   2.598 -0.4856 -0.7846 -0.5579
18984TIP3   OH278366   3.833   1.231  16.515  0.1194  0.2309  0.0380
18984TIP3    H178367   3.806   1.195  16.431  2.3209  0.3972 -0.8039
18984TIP3    H278368   3.817   1.326  16.506 -1.5595  0.0498  0.6327
18985TIP3   OH278369   1.479   0.649   0.027 -0.6654 -0.0657  0.1953
18985TIP3    H178370   1.506   0.575   0.081  1.8943  0.4307 -0.2618
18985TIP3    H278371   1.447   0.714   0.089  0.5567 -0.1910  0.9935
18986TIP3   OH278372   1.780   1.360  13.520 -0.2384  0.0301 -0.0752
18986TIP3    H178373   1.705   1.301  13.527 -1.6030  1.7942  1.2917
18986TIP3    H278374   1.811   1.370  13.610  1.2122 -0.1000 -0.5332
18987TIP3   OH278375   5.099   2.378  12.133  0.0053  0.5679 -0.1347
18987TIP3    H178376   5.100   2.433  12.055 -0.1319  0.1853 -0.4132
18987TIP3    H278377   5.085   2.289  12.099  3.3474 -0.1366  0.0194
18988TIP3   OH278378   0.352   5.515  12.136  0.3783  0.2007  0.1528
18988TIP3    H178379   0.269   5.494  12.093  0.3795 -1.1233  0.7391
18988TIP3    H278380   0.380   5.597  12.097 -0.2839 -0.2883 -1.4082
18989TIP3   OH278381   3.749   4.541   4.838  0.1120  0.0931  0.6502
18989TIP3    H178382   3.664   4.514   4.803  0.5789  0.8942 -1.1807
18989TIP3    H278383   3.787   4.460   4.873 -1.0280 -0.4292  0.7457
18990TIP3   OH278384   4.942   6.302   1.675 -0.2309 -0.6073 -0.1736
18990TIP3    H178385   4.985   6.255   1.603 -0.2471  1.5087 -1.6484
18990TIP3    H278386   5.009   6.306   1.744  0.5170 -0.8552 -0.8725
18991TIP3   OH278387   1.755   4.653   3.808 -0.6292 -0.2925 -0.3082
18991TIP3    H178388   1.754   4.725   3.745  0.2693  0.6014  0.6482
18991TIP3    H278389   1.838   4.609   3.794 -1.7185 -2.0051 -1.7625
18992TIP3   OH278390   0.466   6.500  13.154  0.7472  0.5358  0.0765
18992TIP3    H178391   0.549   6.526  13.112  0.1965  2.2208 -0.0079
18992TIP3    H278392   0.406   6.572  13.136 -0.4969 -0.2563  0.9139
18993TIP3   OH278393   4.833   1.860  11.439 -0.0742 -0.3542  0.3316
18993TIP3    H178394   4.778   1.819  11.373  1.0746  0.0481 -0.9122
18993TIP3    H278395   4.787   1.941  11.462  1.6872  2.0380 -3.5737
18994TIP3   OH278396   5.894   2.834  16.758  0.3323  0.9973 -0.3638
18994TIP3    H178397   5.834   2.769  16.722 -0.0472  2.4686 -2.5341
18994TIP3    H278398   5.955   2.852  16.687  1.1483  2.1736  0.6003
18995TIP3   OH278399   6.286   4.468  14.003 -0.0357 -0.1889 -0.5262
18995TIP3    H178400   6.243   4.532  13.946  0.0010 -0.4321 -0.8261
18995TIP3    H278401   6.359   4.435  13.952  1.0897  0.8910  0.3043
18996TIP3   OH278402   3.046   6.525   1.901  0.0713 -0.1520  0.2665
18996TIP3    H178403   3.119   6.566   1.947  1.5898 -2.1192 -0.2294
18996TIP3    H278404   3.078   6.512   1.812 -2.1094  1.8272 -0.9069
18997TIP3   OH278405   3.007   3.858  11.631 -0.8944  0.0660  0.4132
18997TIP3    H178406   2.995   3.785  11.692 -1.6703 -0.2772 -0.1235
18997TIP3    H278407   2.920   3.871  11.593 -0.0372 -1.0980 -2.1492
18998TIP3   OH278408   2.337   4.302  16.531  0.0531 -0.3503 -0.4438
18998TIP3    H178409   2.246   4.274  16.522 -0.2212  0.8619 -1.8497
18998TIP3    H278410   2.387   4.220  16.529 -0.8787 -0.9340 -1.7968
18999TIP3   OH278411   0.740   2.189  14.431  0.3738  0.2814 -0.2051
18999TIP3    H178412   0.734   2.183  14.336 -1.6538  2.9602 -0.3466
18999TIP3    H278413   0.782   2.273  14.447 -0.2426  0.3317  1.2794
19000TIP3   OH278414   2.206   4.319  17.070  0.2353  0.2549 -0.0702
19000TIP3    H178415   2.224   4.347  16.981 -0.4037  2.0226  0.3168
19000TIP3    H278416   2.192   4.224  17.063  0.0996  0.3696 -1.8421
19001TIP3   OH278417   1.605   6.756  11.950  0.2600 -0.0660 -0.7201
19001TIP3    H178418   1.685   6.779  11.903 -0.0504  0.1698 -1.1410
19001TIP3    H278419   1.621   6.785  12.040  1.3776 -1.7073 -0.3310
19002TIP3   OH278420   4.940   3.444   1.336 -0.2647 -0.1586  0.4416
19002TIP3    H178421   4.997   3.487   1.400  0.9817  1.6272 -1.6891
19002TIP3    H278422   4.859   3.494   1.338  0.3982  1.0292 -0.4912
19003TIP3   OH278423   4.999   2.118   3.395 -0.3040  0.3174 -0.5219
19003TIP3    H178424   4.953   2.080   3.470 -2.0128 -0.0410 -1.6834
19003TIP3    H278425   5.048   2.045   3.357 -0.2341  0.2697 -0.3436
19004TIP3   OH278426   4.492   6.097   2.846  0.0266  0.1512  0.5691
19004TIP3    H178427   4.468   6.045   2.922 -0.1447  0.9827  1.0883
19004TIP3    H278428   4.474   6.187   2.871 -1.8991  0.3030 -1.1307
19005TIP3   OH278429   3.842   3.766   1.681  0.2638 -0.1006  0.1108
19005TIP3    H178430   3.904   3.745   1.612 -2.0931 -0.6716 -1.9584
19005TIP3    H278431   3.816   3.856   1.664 -0.6910 -0.3984 -0.0710
19006TIP3   OH278432   2.239   1.279   2.172  0.2181  0.7111  0.3873
19006TIP3    H178433   2.213   1.369   2.191 -0.1063  1.1643 -1.8356
19006TIP3    H278434   2.300   1.287   2.099 -0.1713 -0.8964 -0.1637
19007TIP3   OH278435   2.276   6.289  15.809 -0.2831  0.0940  0.1795
19007TIP3    H178436   2.239   6.354  15.749 -1.5051 -1.1225 -0.4414
19007TIP3    H278437   2.355   6.257  15.765 -0.2374  0.4302  0.0204
19008TIP3   OH278438   4.442   2.999   3.069 -0.1493 -0.5256 -0.1416
19008TIP3    H178439   4.519   3.052   3.050 -0.6253  0.0844 -0.3921
19008TIP3    H278440   4.444   2.988   3.165 -0.0379 -0.0737 -0.0899
19009TIP3   OH278441   2.703   4.549  12.452 -0.2133  0.2811  0.2691
19009TIP3    H178442   2.717   4.606  12.528 -1.1901  1.4601 -0.3927
19009TIP3    H278443   2.786   4.503  12.441 -0.8281 -1.9962  3.6635
19010TIP3   OH278444   4.461   2.512  13.343 -0.1713 -0.5625 -0.1279
19010TIP3    H178445   4.380   2.461  13.349 -1.2672  1.2182  0.8518
19010TIP3    H278446   4.432   2.600  13.321  1.1782  0.8162  2.9989
19011TIP3   OH278447   5.565   0.273   0.843 -0.9218 -0.3190 -0.3851
19011TIP3    H178448   5.648   0.290   0.887 -0.0884 -0.7448 -1.7380
19011TIP3    H278449   5.576   0.311   0.755 -1.9327 -0.8883 -0.7720
19012TIP3   OH278450   4.496   0.281   3.934  0.0433  0.4847 -0.4165
19012TIP3    H178451   4.444   0.357   3.961  0.0944  0.8056 -1.1982
19012TIP3    H278452   4.470   0.265   3.843 -0.1740 -0.6101 -0.1736
19013TIP3   OH278453   5.857   3.837   1.791 -0.3481  0.3601  0.0805
19013TIP3    H178454   5.830   3.835   1.883 -1.5494  0.3884 -0.2621
19013TIP3    H278455   5.849   3.929   1.765  0.4453  0.4339  0.0657
19014TIP3   OH278456   2.902   3.846   0.602 -0.3106 -0.2543  0.4125
19014TIP3    H178457   2.850   3.913   0.645 -0.2203  0.0843 -0.0021
19014TIP3    H278458   2.963   3.815   0.669 -0.2772  0.1581  0.5732
19015TIP3   OH278459   0.838   2.265  16.146  0.3472  0.1907  0.2805
19015TIP3    H178460   0.860   2.194  16.206  0.3238 -0.1166 -0.0720
19015TIP3    H278461   0.921   2.310  16.130  0.3479  0.2926  0.5632
19016TIP3   OH278462   0.309   4.340  12.257  0.1914 -0.0401  0.5559
19016TIP3    H178463   0.312   4.288  12.177 -1.0868  1.1309 -0.3229
19016TIP3    H278464   0.216   4.365  12.265  0.8883  3.1876  0.1268
19017TIP3   OH278465   4.840   5.455  12.342 -0.2419 -0.4730  0.3050
19017TIP3    H178466   4.777   5.396  12.384  0.0007 -0.7563  0.2702
19017TIP3    H278467   4.888   5.495  12.414 -1.9072  1.4052  0.4812
19018TIP3   OH278468   5.736   1.843  16.910  0.0192 -0.1514 -0.2403
19018TIP3    H178469   5.814   1.841  16.855  1.5433  0.4575  1.7757
19018TIP3    H278470   5.738   1.760  16.957  0.2143  0.4170  0.7769
19019TIP3   OH278471   1.798   6.522  10.997  0.0423  0.2628  0.0050
19019TIP3    H178472   1.710   6.548  11.025 -1.0871 -0.3698 -2.6006
19019TIP3    H278473   1.795   6.426  10.997  1.2047  0.2074  1.1511
19020TIP3   OH278474   2.639   0.800   2.626 -0.0607  0.4021  0.3532
19020TIP3    H178475   2.703   0.739   2.661 -1.4594 -0.7531  1.0034
19020TIP3    H278476   2.690   0.857   2.568  1.6148 -0.1426  1.2136
19021TIP3   OH278477   6.687   5.602   5.873 -0.1018 -0.2751 -0.1230
19021TIP3    H178478   6.748   5.538   5.910 -1.1391 -0.5270  1.2261
19021TIP3    H278479   6.725   5.626   5.789  2.0036 -0.2053  0.7962
19022TIP3   OH278480   5.369   0.622  13.593  0.0826 -0.2738  0.6831
19022TIP3    H178481   5.413   0.609  13.677 -1.5316 -1.7453  1.3666
19022TIP3    H278482   5.368   0.717  13.581  2.0727 -0.1348  1.3404
19023TIP3   OH278483   0.355   6.194  14.541 -0.4732 -0.4958  0.0630
19023TIP3    H178484   0.432   6.137  14.537 -0.0313  0.0459  0.7178
19023TIP3    H278485   0.367   6.246  14.621 -1.8848 -0.9243  0.5866
19024TIP3   OH278486   6.331   4.750   4.388 -0.3669 -0.2648  0.2660
19024TIP3    H178487   6.242   4.727   4.361  0.3500 -1.0881 -1.5908
19024TIP3    H278488   6.363   4.673   4.435 -0.3509 -0.2993  0.1990
19025TIP3   OH278489   0.582   4.970   3.999 -0.2319 -0.3404  0.1318
19025TIP3    H178490   0.490   4.963   3.972  0.2071  1.5686 -2.1633
19025TIP3    H278491   0.581   5.036   4.069 -0.5077  0.7101 -0.8255
19026TIP3   OH278492   1.867   3.289   2.788 -0.1388  0.3144  0.3310
19026TIP3    H178493   1.824   3.359   2.739 -1.3547 -0.4737  0.2096
19026TIP3    H278494   1.795   3.244   2.833  0.3935 -1.7074 -0.7016
19027TIP3   OH278495   5.386   2.122   0.374 -0.2930  0.1474  0.3607
19027TIP3    H178496   5.349   2.121   0.462 -0.3088 -0.4079  0.3521
19027TIP3    H278497   5.312   2.148   0.318 -0.4085  0.0214  0.4547
19028TIP3   OH278498   1.914   3.326   2.490  0.1843 -0.0709 -0.4577
19028TIP3    H178499   1.992   3.339   2.543  0.2748 -0.4493 -0.4930
19028TIP3    H278500   1.909   3.404   2.435 -0.3059  0.6605  0.5953
19029TIP3   OH278501   2.873   2.119  14.488 -0.2258  0.7290  0.2697
19029TIP3    H178502   2.783   2.107  14.460 -0.1366 -0.9148  0.5697
19029TIP3    H278503   2.921   2.144  14.409 -0.2726 -2.1685 -0.7899
19030TIP3   OH278504   4.302   6.394  15.001 -0.2915 -0.1507  0.0598
19030TIP3    H178505   4.286   6.479  15.041 -0.4671  0.8403 -1.9609
19030TIP3    H278506   4.398   6.387  14.999 -0.2266  0.6311 -0.8842
19031TIP3   OH278507   2.963   2.528  12.141 -0.2310 -0.8120  0.0388
19031TIP3    H178508   3.000   2.448  12.104 -2.1534 -1.2633 -1.0570
19031TIP3    H278509   3.022   2.598  12.111 -0.7735 -1.3683 -2.5889
19032TIP3   OH278510   4.609   1.089  14.033 -0.1909  0.2278  0.0564
19032TIP3    H178511   4.637   1.000  14.054 -1.9608 -0.2680  0.4509
19032TIP3    H278512   4.691   1.136  14.014  0.8328 -1.2611  0.6126
19033TIP3   OH278513   5.986   2.314   5.679 -0.1552 -0.0059  0.4172
19033TIP3    H178514   6.016   2.234   5.722 -0.0557  1.3468  3.0345
19033TIP3    H278515   6.041   2.383   5.716  0.2154  1.2661 -2.2519
19034TIP3   OH278516   2.050   0.296  12.753 -0.2343  0.5057 -0.2219
19034TIP3    H178517   2.125   0.262  12.705 -0.4514  1.0560 -0.9791
19034TIP3    H278518   2.082   0.310  12.842 -0.4805 -2.9253  0.5404
19035TIP3   OH278519   5.890   0.420   0.330  0.1281  0.1838  0.0662
19035TIP3    H178520   5.918   0.371   0.253 -2.0423  0.5614 -1.0437
19035TIP3    H278521   5.921   0.509   0.314  1.4249 -0.1451  0.6300
19036TIP3   OH278522   4.820   4.280   2.266 -0.1951 -0.1313 -0.3470
19036TIP3    H178523   4.868   4.360   2.246  1.3243 -0.8027  0.4439
19036TIP3    H278524   4.876   4.209   2.235 -0.7502 -0.9496  0.4395
19037TIP3   OH278525   6.055   6.160  11.917 -0.1397 -0.4021  0.0310
19037TIP3    H178526   6.012   6.095  11.861 -0.1563 -0.1557 -0.2448
19037TIP3    H278527   6.149   6.149  11.898 -0.2217  0.6682 -1.1544
19038TIP3   OH278528   0.519   5.198  12.013  0.0053 -0.2049  0.4981
19038TIP3    H178529   0.450   5.236  11.958 -1.0094 -0.9864  1.2087
19038TIP3    H278530   0.511   5.244  12.097 -0.2129 -0.8967  0.8588
19039TIP3   OH278531   2.832   6.373  16.699 -0.6729 -0.0482  0.1137
19039TIP3    H178532   2.837   6.322  16.618 -0.4410  1.6192 -0.9920
19039TIP3    H278533   2.844   6.309  16.769  0.8699 -1.3221 -1.2250
19040TIP3   OH278534   3.605   6.023   6.215 -0.4245 -0.5780 -0.3004
19040TIP3    H178535   3.559   6.104   6.237 -0.0517 -1.2008  3.3021
19040TIP3    H278536   3.585   5.964   6.287  5.1541 -1.2009  1.2210
19041TIP3   OH278537   1.623   6.545  14.009  0.0919 -0.4264 -0.5355
19041TIP3    H178538   1.601   6.590  13.927  0.9711  1.3103  0.1089
19041TIP3    H278539   1.704   6.498  13.989  1.1180  1.1805 -0.3228
19042TIP3   OH278540   1.949   3.521  16.568  0.1961  0.5062 -0.2481
19042TIP3    H178541   1.993   3.509  16.484  1.3981  1.2070  0.2346
19042TIP3    H278542   1.859   3.542  16.546 -0.4585 -2.8555 -1.2509
19043TIP3   OH278543   3.792   5.648   6.500 -0.3064 -0.1357 -1.3299
19043TIP3    H178544   3.810   5.718   6.564  0.7539 -0.5986 -1.0995
19043TIP3    H278545   3.708   5.672   6.462 -0.3694  0.8151 -0.6400
19044TIP3   OH278546   2.207   0.960  15.747 -0.2206 -0.1382  0.1012
19044TIP3    H178547   2.165   0.992  15.827 -0.4322  0.9247 -0.4215
19044TIP3    H278548   2.160   1.004  15.676 -0.1336 -1.1763 -0.6248
19045TIP3   OH278549   5.653   2.516   1.106 -0.5113 -0.8002  0.0003
19045TIP3    H178550   5.665   2.602   1.146  1.5670 -0.7669 -0.5371
19045TIP3    H278551   5.741   2.493   1.075 -1.3462 -2.4025 -1.2994
19046TIP3   OH278552   2.486   2.998   0.681 -0.4792 -0.3044  0.2798
19046TIP3    H178553   2.532   2.928   0.727 -1.2963 -0.5724  0.7144
19046TIP3    H278554   2.438   2.953   0.611 -0.4128 -0.0778  0.0858
19047TIP3   OH278555   4.648   1.752   4.461 -0.0481 -0.2319  0.6290
19047TIP3    H178556   4.691   1.831   4.431 -0.2323 -0.3064  0.1591
19047TIP3    H278557   4.612   1.712   4.382  0.1094 -0.8241  0.8487
19048TIP3   OH278558   3.587   2.625  15.080 -0.2089 -0.0611  0.1698
19048TIP3    H178559   3.612   2.533  15.090 -0.0615 -0.1026 -0.5102
19048TIP3    H278560   3.619   2.668  15.159  2.3798 -0.0226 -0.8325
19049TIP3   OH278561   2.765   4.950   4.262 -0.0479 -0.3828  0.3155
19049TIP3    H178562   2.674   4.976   4.277 -0.4072 -0.9224 -0.8243
19049TIP3    H278563   2.773   4.943   4.167  0.9067 -1.3547  0.4455
19050TIP3   OH278564   6.238   4.941  16.054 -0.1524  0.2883  0.0293
19050TIP3    H178565   6.247   5.033  16.028 -0.7045  0.4508  0.3940
19050TIP3    H278566   6.271   4.891  15.979  0.6924  0.7913  0.0521
19051TIP3   OH278567   1.666   2.406   0.139 -0.4514  0.2444  0.1307
19051TIP3    H178568   1.637   2.497   0.147 -0.9253  0.0736  0.3486
19051TIP3    H278569   1.761   2.413   0.128 -0.6847  0.8785 -1.9276
19052TIP3   OH278570   0.046   5.665  12.317  0.0711 -0.2055 -0.2581
19052TIP3    H178571  -0.034   5.653  12.369  1.0477  0.9563  1.5893
19052TIP3    H278572   0.036   5.751  12.278  1.7287  1.4351  2.6005
19053TIP3   OH278573   0.359   0.608   6.126 -0.3121 -0.1022 -0.1505
19053TIP3    H178574   0.306   0.687   6.118  0.7439  0.5782 -0.4939
19053TIP3    H278575   0.338   0.557   6.047  0.9440  1.0461 -1.2790
19054TIP3   OH278576   0.569   5.355   0.870  0.3560  0.0932  0.0956
19054TIP3    H178577   0.657   5.330   0.841  0.3536  0.5277 -0.2946
19054TIP3    H278578   0.525   5.272   0.887 -0.2397 -0.3153 -2.9111
19055TIP3   OH278579   3.762   1.380   1.287  0.3141  0.0025  0.3345
19055TIP3    H178580   3.841   1.415   1.329 -0.2229  1.1613  0.4328
19055TIP3    H278581   3.795   1.317   1.223  1.4124  1.3138 -0.4482
19056TIP3   OH278582   1.087   5.993  14.880  0.4363  0.3421 -0.0783
19056TIP3    H178583   1.085   5.906  14.919  0.8794  1.2866  2.2564
19056TIP3    H278584   1.009   6.037  14.915  0.9951  1.3192 -0.0058
19057TIP3   OH278585   6.660   5.914   3.485  0.0690  0.1217  0.2068
19057TIP3    H178586   6.585   5.859   3.508  0.9484 -0.7631  1.0466
19057TIP3    H278587   6.634   6.002   3.512 -0.8563 -0.0799  0.0287
19058TIP3   OH278588   4.185   1.842  11.193 -0.3325  0.0647  0.0445
19058TIP3    H178589   4.201   1.811  11.104  0.1988  1.9796 -0.5538
19058TIP3    H278590   4.149   1.765  11.238  0.6877 -1.3388 -1.4167
19059TIP3   OH278591   5.925   3.103   3.103 -0.5015 -0.1060  0.6225
19059TIP3    H178592   5.953   3.028   3.052 -1.4001  0.4925 -0.8102
19059TIP3    H278593   6.006   3.141   3.138  0.0088 -1.2873  0.7368
19060TIP3   OH278594   1.624   5.011   2.134  0.3947 -0.2220 -0.3720
19060TIP3    H178595   1.556   5.007   2.067  0.1240  1.5541 -0.2565
19060TIP3    H278596   1.578   4.995   2.216  0.5835 -1.5640 -0.5083
19061TIP3   OH278597   0.620   2.865  14.719 -0.4377 -0.0493  0.0426
19061TIP3    H178598   0.613   2.804  14.646  0.3126  0.8567 -0.8234
19061TIP3    H278599   0.537   2.913  14.719 -0.2659  0.2620 -0.5265
19062TIP3   OH278600   1.360   2.863   4.902 -0.1791  0.7143 -0.3569
19062TIP3    H178601   1.345   2.802   4.974  2.0401 -0.1025 -0.5211
19062TIP3    H278602   1.283   2.852   4.846  0.0877 -1.9562 -0.3485
19063TIP3   OH278603   4.358   6.634  15.177 -0.1616  0.2902 -0.4848
19063TIP3    H178604   4.280   6.625  15.233 -0.5266  0.2804 -0.9838
19063TIP3    H278605   4.431   6.612  15.234 -0.4952  0.6329  0.0846
19064TIP3   OH278606   3.907   3.751   2.194 -0.2269  0.5895  0.2873
19064TIP3    H178607   3.927   3.746   2.287 -0.4793  1.3866  0.3979
19064TIP3    H278608   3.980   3.802   2.157  0.1441 -0.1709 -0.0450
19065TIP3   OH278609   2.010   1.411   6.364  0.0122  0.4971 -0.1387
19065TIP3    H178610   2.032   1.368   6.281 -0.2186  0.2412 -0.0710
19065TIP3    H278611   1.926   1.372   6.389  0.2102  0.3753  0.3510
19066TIP3   OH278612   4.594   2.478  13.811 -0.4295 -0.4278  0.5992
19066TIP3    H178613   4.558   2.536  13.744 -0.1401  0.6387  1.3335
19066TIP3    H278614   4.591   2.391  13.772 -1.3857  0.0009 -0.3288
19067TIP3   OH278615   0.168   3.225  14.427  0.2400  0.1912  0.1659
19067TIP3    H178616   0.083   3.260  14.398  0.7970  0.6967 -0.8977
19067TIP3    H278617   0.173   3.139  14.386 -0.8083 -0.9178  2.2003
19068TIP3   OH278618   1.328   6.109   6.737 -0.2030  0.3328  0.1492
19068TIP3    H178619   1.275   6.182   6.771 -0.4930  0.4161 -0.4737
19068TIP3    H278620   1.288   6.087   6.653  0.1700 -0.2417  0.1171
19069TIP3   OH278621   5.847   5.428   5.510 -0.0571 -0.3365 -0.7132
19069TIP3    H178622   5.829   5.381   5.591  0.2671  0.3322 -0.2463
19069TIP3    H278623   5.766   5.473   5.489 -0.2837 -0.8693 -1.0151
19070TIP3   OH278624   1.000   1.111   3.916 -0.9045 -0.1368  0.4191
19070TIP3    H178625   1.006   1.074   4.004 -0.8533  0.3756  0.6371
19070TIP3    H278626   1.086   1.152   3.902 -0.2245 -1.7933 -0.6026
19071TIP3   OH278627   3.887   2.857   5.340 -0.4965  0.0093 -0.4901
19071TIP3    H178628   3.930   2.771   5.344 -0.8104 -0.2652 -2.1983
19071TIP3    H278629   3.888   2.880   5.247 -0.2254  1.9755 -0.0522
19072TIP3   OH278630   5.260   0.239   5.685 -0.0463 -0.2752  0.1520
19072TIP3    H178631   5.267   0.180   5.610  1.6982  0.5536 -0.4049
19072TIP3    H278632   5.235   0.323   5.646 -0.9646 -0.2576  0.7460
19073TIP3   OH278633   1.542   1.282   2.788 -0.1387 -0.2785 -0.4158
19073TIP3    H178634   1.543   1.368   2.830 -0.9190 -0.1886 -0.5656
19073TIP3    H278635   1.483   1.293   2.713 -0.3403 -0.9810 -0.3625
19074TIP3   OH278636   4.730   5.801  11.862  0.2023 -0.0542  0.3061
19074TIP3    H178637   4.661   5.864  11.882  0.3066  0.8051 -1.8314
19074TIP3    H278638   4.683   5.720  11.842 -0.3068  0.7194 -1.8744
19075TIP3   OH278639   3.128   2.382   4.624  0.1906 -0.3683 -0.1207
19075TIP3    H178640   3.148   2.302   4.673  0.2147  0.1058  0.6641
19075TIP3    H278641   3.126   2.355   4.533 -0.0245 -1.3139  0.1569
19076TIP3   OH278642   5.116   4.275   1.778 -0.3071  0.2996  0.1247
19076TIP3    H178643   5.175   4.224   1.723 -0.4504  1.3723 -1.0545
19076TIP3    H278644   5.170   4.346   1.813 -0.3431 -0.0794  0.9917
19077TIP3   OH278645   2.326   3.709   5.319  0.5352  0.1601  0.2982
19077TIP3    H178646   2.376   3.630   5.338 -1.2514 -0.6046  2.3854
19077TIP3    H278647   2.392   3.776   5.302  2.1499 -1.3774  0.1940
19078TIP3   OH278648   1.875   0.102  10.754 -0.0128  0.2870  0.2684
19078TIP3    H178649   1.842   0.146  10.833 -0.1395  0.9963 -0.1702
19078TIP3    H278650   1.963   0.136  10.743 -0.0783  0.3574 -0.0247
19079TIP3   OH278651   1.338   0.446   0.519  0.3808  0.0210 -0.5073
19079TIP3    H178652   1.255   0.493   0.526  0.3360 -0.0053 -0.8741
19079TIP3    H278653   1.313   0.356   0.499  0.5061  0.0572 -0.8241
19080TIP3   OH278654   4.639   2.918  14.817  0.5618  0.7831 -0.4317
19080TIP3    H178655   4.696   2.895  14.745 -0.8207 -0.8133 -1.0923
19080TIP3    H278656   4.560   2.954  14.775 -0.1569  0.0644  0.2698
19081TIP3   OH278657   2.182   4.071   4.804  0.1678  0.4428 -0.4341
19081TIP3    H178658   2.115   4.136   4.781 -1.4945 -0.7596  0.8013
19081TIP3    H278659   2.209   4.095   4.892  1.3609  0.8728 -0.8958
19082TIP3   OH278660   1.161   6.190  15.307 -0.4114 -0.4686  0.3507
19082TIP3    H178661   1.098   6.148  15.248 -0.6518  0.1909  0.1394
19082TIP3    H278662   1.148   6.144  15.391  0.5721 -2.0459 -0.3087
19083TIP3   OH278663   0.891   2.237  16.732 -0.5553 -0.3059  0.2369
19083TIP3    H178664   0.807   2.218  16.774  0.2870 -0.0926  2.1102
19083TIP3    H278665   0.917   2.321  16.768  0.5745 -0.4706 -0.1645
19084TIP3   OH278666   1.556   4.294   4.273  0.0089  0.5725 -0.0986
19084TIP3    H178667   1.514   4.370   4.233  1.0300  1.1231 -0.1515
19084TIP3    H278668   1.649   4.316   4.274  0.5411 -1.3424 -1.5868
19085TIP3   OH278669   5.490   5.523  12.826 -0.0691 -0.4190  0.8388
19085TIP3    H178670   5.527   5.472  12.754  1.0037 -0.4502  1.3918
19085TIP3    H278671   5.445   5.596  12.783  0.3939 -0.5389  0.1338
19086TIP3   OH278672   0.258   4.261  11.022  0.0819  0.2873  0.1955
19086TIP3    H178673   0.351   4.243  11.008 -0.1363 -1.3187  0.5658
19086TIP3    H278674   0.224   4.182  11.065 -1.1366  1.4594  1.5119
19087TIP3   OH278675   3.672   1.020   4.620  0.9901 -0.0601  0.1070
19087TIP3    H178676   3.655   0.926   4.617 -0.7666  0.1627  1.6181
19087TIP3    H278677   3.741   1.030   4.686  1.9763 -0.3368 -0.8421
19088TIP3   OH278678   4.667   2.315  10.855  0.6762 -0.0460  0.6839
19088TIP3    H178679   4.752   2.350  10.829  0.4317 -0.0768 -0.1999
19088TIP3    H278680   4.674   2.221  10.839  0.0578  0.1081 -0.6749
19089TIP3   OH278681   6.148   1.943   5.969  0.0211 -0.2092 -0.0627
19089TIP3    H178682   6.170   1.938   6.062  1.5007  0.4333 -0.3541
19089TIP3    H278683   6.143   1.852   5.940 -0.7459 -0.4217  0.6896
19090TIP3   OH278684   0.688   1.661   1.968 -0.1556  0.3424  0.3827
19090TIP3    H178685   0.633   1.711   2.028 -0.1487  1.8661 -0.7900
19090TIP3    H278686   0.675   1.704   1.883  1.4599 -0.3818 -0.2794
19091TIP3   OH278687   5.845   6.078   1.925 -0.5720  0.3194  0.0062
19091TIP3    H178688   5.930   6.081   1.881 -0.0663  2.9964  0.9685
19091TIP3    H278689   5.866   6.069   2.018 -1.4221 -0.3061  0.1496
19092TIP3   OH278690   6.166   1.241  13.793 -1.1560 -0.0392 -0.1858
19092TIP3    H178691   6.122   1.251  13.708  0.4221  0.1584 -1.0351
19092TIP3    H278692   6.188   1.331  13.818 -1.6940 -0.0924  0.4786
19093TIP3   OH278693   5.964   4.565  15.925 -0.2308  0.3405 -0.1050
19093TIP3    H178694   5.882   4.549  15.970 -0.0644  0.2167  0.1556
19093TIP3    H278695   6.016   4.618  15.986 -1.9925  4.9317 -2.1503
19094TIP3   OH278696   4.088   2.607  16.537 -0.3817 -0.0525  0.0251
19094TIP3    H178697   4.151   2.536  16.550  0.2101  0.4940  0.1832
19094TIP3    H278698   4.093   2.658  16.618 -0.7945  0.1754 -0.0940
19095TIP3   OH278699   6.095   6.448   4.267 -0.5942  0.5594 -0.3435
19095TIP3    H178700   6.040   6.526   4.274 -0.3093  0.6788  0.7893
19095TIP3    H278701   6.137   6.456   4.181  0.0603  2.0838  0.0916
19096TIP3   OH278702   2.059   5.155   5.364 -0.1685  0.4896 -0.5137
19096TIP3    H178703   2.073   5.104   5.443 -0.0389  0.2208 -0.7097
19096TIP3    H278704   2.026   5.239   5.395  0.8861  0.7689 -0.1042
19097TIP3   OH278705   5.668   4.125   1.237 -0.0101  0.3696  0.2104
19097TIP3    H178706   5.740   4.064   1.219  0.8266  1.0806  1.0865
19097TIP3    H278707   5.675   4.191   1.168 -0.0455  0.2644  0.1033
19098TIP3   OH278708   4.715   5.592   5.961  0.1510 -0.2435 -0.3073
19098TIP3    H178709   4.769   5.581   5.883  0.0753 -0.6757 -0.3044
19098TIP3    H278710   4.760   5.543   6.029  1.7960  2.4937  0.7373
19099TIP3   OH278711   2.755   4.782  13.482  0.3240  0.3728  0.3117
19099TIP3    H178712   2.750   4.876  13.496 -0.8070  0.4416 -0.4630
19099TIP3    H278713   2.673   4.748  13.519  0.1191 -0.1477 -0.6012
19100TIP3   OH278714   4.903   1.167   0.368  0.5101  0.0198  0.1971
19100TIP3    H178715   4.854   1.235   0.415  1.4122  0.5157  0.4467
19100TIP3    H278716   4.839   1.097   0.353 -0.3558  0.7960  0.2047
19101TIP3   OH278717   6.223   0.201   4.042 -0.1986  0.0772  0.2151
19101TIP3    H178718   6.314   0.222   4.061 -0.2117  1.9869 -1.4966
19101TIP3    H278719   6.226   0.113   4.005  1.4486  1.2253 -2.7336
19102TIP3   OH278720   4.223   5.173   1.931 -0.1430 -0.0369 -0.0722
19102TIP3    H178721   4.238   5.213   2.017  0.8996 -1.7576  0.6005
19102TIP3    H278722   4.128   5.171   1.922 -0.2878 -0.2651  1.2794
19103TIP3   OH278723   5.955   0.306   2.355 -0.2548 -0.6213 -0.1984
19103TIP3    H178724   6.025   0.364   2.386 -0.4885  0.7751 -2.0718
19103TIP3    H278725   5.912   0.356   2.286 -0.7353 -2.8874 -1.6561
19104TIP3   OH278726   4.953   1.066  11.786 -0.0990 -0.2730  0.2971
19104TIP3    H178727   4.943   1.160  11.801 -1.4246 -0.3084 -0.2544
19104TIP3    H278728   4.874   1.041  11.737  0.5080 -1.5635 -0.0581
19105TIP3   OH278729   3.238   6.062   0.634  0.0482  0.3157 -0.2587
19105TIP3    H178730   3.186   6.139   0.612 -0.3016  0.1950  0.1364
19105TIP3    H278731   3.326   6.097   0.649 -0.1040  0.6400 -0.0917
19106TIP3   OH278732   3.503   4.878  12.615  0.1591  0.6071  0.2460
19106TIP3    H178733   3.532   4.820  12.544 -1.7334  0.8864 -0.8169
19106TIP3    H278734   3.568   4.866  12.684  1.2826 -0.7481 -0.9884
19107TIP3   OH278735   3.639   5.703  12.846  0.2613 -0.4732 -0.0818
19107TIP3    H178736   3.700   5.763  12.802  2.0133 -1.7551  0.4575
19107TIP3    H278737   3.584   5.668  12.776  0.8245 -0.0236 -0.7608
19108TIP3   OH278738   3.800   0.671   2.566  0.0324 -0.0681 -0.0359
19108TIP3    H178739   3.837   0.693   2.481 -0.0258  1.9962  0.4297
19108TIP3    H278740   3.859   0.712   2.629  0.3268 -1.9236  0.9831
19109TIP3   OH278741   6.636   2.658  16.249 -1.0438 -0.0471 -0.2954
19109TIP3    H178742   6.680   2.685  16.168  0.3758 -0.2893  0.3611
19109TIP3    H278743   6.547   2.637  16.222 -0.8571  0.7590 -1.6306
19110TIP3   OH278744   3.764   4.413   0.346 -0.1648 -0.4793 -0.4281
19110TIP3    H178745   3.771   4.435   0.439 -0.2417  1.9198 -0.9277
19110TIP3    H278746   3.671   4.425   0.327 -0.3274 -1.9333 -0.6237
19111TIP3   OH278747   4.815   2.855  14.239 -0.1052 -0.2531 -0.2177
19111TIP3    H178748   4.758   2.778  14.248 -0.5713 -0.3183 -2.8153
19111TIP3    H278749   4.818   2.870  14.144  2.3689  1.1689  0.0301
19112TIP3   OH278750   1.669   6.590   5.987 -0.2155  0.2594 -0.0952
19112TIP3    H178751   1.603   6.659   5.981  0.6256  1.3073  1.7406
19112TIP3    H278752   1.695   6.572   5.897  0.5518  3.4046 -0.5973
19113TIP3   OH278753   1.267   0.132   1.678  0.3615  0.3488  0.1265
19113TIP3    H178754   1.281   0.042   1.651 -0.9991  0.3441 -0.6723
19113TIP3    H278755   1.286   0.133   1.771 -1.7088 -1.3006  0.6473
19114TIP3   OH278756   2.840   0.848   1.509 -0.5386 -0.6739  0.3555
19114TIP3    H178757   2.746   0.864   1.521 -0.2317  1.1953  0.5865
19114TIP3    H278758   2.879   0.936   1.510  1.1425 -1.3863 -0.3787
19115TIP3   OH278759   2.785   2.899  14.230 -0.2185 -0.3598  0.0978
19115TIP3    H178760   2.853   2.892  14.298 -0.8199 -0.9109  0.6616
19115TIP3    H278761   2.831   2.934  14.154  0.5743 -0.1716  0.6458
19116TIP3   OH278762   0.212   4.160   1.677 -0.0539  0.2940  0.0494
19116TIP3    H178763   0.184   4.249   1.693 -0.0517  0.3313 -0.1433
19116TIP3    H278764   0.160   4.106   1.737 -1.7733  0.1893 -1.4490
19117TIP3   OH278765   5.295   5.036  16.909 -0.2325  0.0205  0.2385
19117TIP3    H178766   5.320   4.958  16.960 -1.2720 -0.2900  0.2955
19117TIP3    H278767   5.205   5.018  16.881 -1.0742  1.8570  1.5563
19118TIP3   OH278768   5.119   3.809   4.502 -0.4835  0.0548  0.5385
19118TIP3    H178769   5.156   3.897   4.508 -2.3782  0.9608 -0.1433
19118TIP3    H278770   5.076   3.807   4.416  0.3861 -1.9121  0.0941
19119TIP3   OH278771   1.125   4.536  12.215  0.0510 -0.2152  0.3027
19119TIP3    H178772   1.187   4.607  12.229  2.1211 -1.7121 -0.8251
19119TIP3    H278773   1.080   4.558  12.133  1.2293 -0.5430 -0.4486
19120TIP3   OH278774   1.392   5.199  12.269 -0.5581  0.1198 -0.2296
19120TIP3    H178775   1.403   5.270  12.206  0.0314  1.3763  1.2258
19120TIP3    H278776   1.480   5.164  12.281 -0.7930 -0.6334 -0.6765
19121TIP3   OH278777   2.571   0.359   3.015 -0.4961  0.0996 -0.2934
19121TIP3    H178778   2.534   0.361   3.104 -0.9910 -0.1760 -0.4915
19121TIP3    H278779   2.530   0.284   2.974  0.6227 -0.4787 -0.3830
19122TIP3   OH278780   5.585   6.191  16.459  0.1288 -0.0923  0.8553
19122TIP3    H178781   5.558   6.282  16.474  0.5308  0.3006 -0.6929
19122TIP3    H278782   5.503   6.143  16.448 -0.0479  0.3990 -0.0309
19123TIP3   OH278783   6.438   6.259   4.969 -0.4248 -0.2102 -0.0496
19123TIP3    H178784   6.489   6.203   4.910 -1.4999  0.0486 -1.2566
19123TIP3    H278785   6.463   6.348   4.947  0.1074 -0.1413  0.7815
19124TIP3   OH278786   5.726   1.716  12.475  0.2330  0.5597 -0.6606
19124TIP3    H178787   5.669   1.726  12.552 -0.1146  3.6728 -1.1971
19124TIP3    H278788   5.669   1.680  12.407 -0.1532  0.3094 -0.2127
19125TIP3   OH278789   1.922   1.841  11.984  0.2256  0.5238  0.3915
19125TIP3    H178790   2.013   1.824  11.962  0.0126  0.8510 -0.8176
19125TIP3    H278791   1.925   1.890  12.066  1.1015  0.0574  0.6488
19126TIP3   OH278792   4.751   1.094   1.994  0.1435  0.3347 -0.0203
19126TIP3    H178793   4.681   1.140   1.948  0.6208  0.7959 -0.2989
19126TIP3    H278794   4.788   1.036   1.927  0.7305  0.8861 -0.1883
19127TIP3   OH278795   3.572   3.127  11.680 -0.3014 -0.3161 -0.0242
19127TIP3    H178796   3.573   3.131  11.776  1.6214  1.0605 -0.0508
19127TIP3    H278797   3.547   3.216  11.653  3.5546  0.7404 -0.7263
19128TIP3   OH278798   3.281   5.891  15.466  0.2898  0.5668 -0.1721
19128TIP3    H178799   3.276   5.798  15.447  2.3238  0.3777  0.0392
19128TIP3    H278800   3.231   5.902  15.547 -0.6558 -0.1757 -0.6403
19129TIP3   OH278801   4.357   5.319   4.758 -0.8173  0.1390  0.0623
19129TIP3    H178802   4.368   5.412   4.776 -0.1102  0.7206 -2.8087
19129TIP3    H278803   4.437   5.293   4.711 -1.4004 -1.6626 -0.0336
19130TIP3   OH278804   3.841   6.204  12.402  0.2124  0.6320  0.4460
19130TIP3    H178805   3.831   6.255  12.322  2.9574 -2.0175 -1.8457
19130TIP3    H278806   3.795   6.122  12.385  1.7174 -0.4027  1.0389
19131TIP3   OH278807   1.731   4.306  16.222  0.0976  0.6124  0.6564
19131TIP3    H178808   1.764   4.272  16.305 -0.6020  1.4325  1.2877
19131TIP3    H278809   1.766   4.395  16.218  1.4250  0.0640 -0.6947
19132TIP3   OH278810   0.599   0.028  12.830  0.4054 -0.1635 -0.1606
19132TIP3    H178811   0.673  -0.025  12.861  0.4086 -0.1160 -0.0856
19132TIP3    H278812   0.639   0.092  12.770  0.2551 -0.9312 -1.1028
19133TIP3   OH278813   3.185   4.416   4.987  0.0092 -0.1209 -0.5828
19133TIP3    H178814   3.183   4.326   5.020  0.4362  0.0168 -0.1843
19133TIP3    H278815   3.093   4.437   4.969 -0.4302  0.3196  1.8882
19134TIP3   OH278816   0.425   5.139  15.391 -0.6185  0.8966 -0.1503
19134TIP3    H178817   0.492   5.193  15.350 -0.3384  1.5479  1.0943
19134TIP3    H278818   0.350   5.198  15.402 -0.7137  0.7171  0.1857
19135TIP3   OH278819   5.637   3.706  15.118 -0.1517 -0.1463 -0.4504
19135TIP3    H178820   5.550   3.672  15.141 -0.7391 -0.1896 -2.5664
19135TIP3    H278821   5.620   3.790  15.075  0.8488 -0.2037 -0.9893
19136TIP3   OH278822   4.247   6.362   6.146 -0.1930 -0.2473 -0.2828
19136TIP3    H178823   4.187   6.428   6.113 -0.3884 -0.3906 -0.2145
19136TIP3    H278824   4.248   6.294   6.079  1.6108  0.7703 -1.3586
19137TIP3   OH278825   2.719   1.505   0.437 -0.4466 -0.4218  0.0468
19137TIP3    H178826   2.772   1.567   0.386 -1.4415  1.9402  1.6954
19137TIP3    H278827   2.629   1.533   0.421 -0.9901 -2.0053  0.2252
19138TIP3   OH278828   1.498   4.137  14.461 -0.7013 -0.3788  0.3076
19138TIP3    H178829   1.511   4.200  14.390 -2.3837 -0.2405  0.0833
19138TIP3    H278830   1.523   4.185  14.540 -2.6441  0.8727  0.2267
19139TIP3   OH278831   3.647   1.580  15.855 -0.1306 -0.3912  0.4370
19139TIP3    H178832   3.673   1.590  15.763  0.2915 -1.5985  0.4062
19139TIP3    H278833   3.556   1.551  15.851 -0.0108 -0.7713  0.3769
19140TIP3   OH278834   5.215   3.171   5.659 -0.5535 -0.0235 -0.2531
19140TIP3    H178835   5.176   3.085   5.674 -0.2813  0.1944  2.1844
19140TIP3    H278836   5.268   3.160   5.580  1.2573 -2.7847  1.1774
19141TIP3   OH278837   3.630   3.208   4.527 -0.3027 -0.1538  0.0205
19141TIP3    H178838   3.535   3.194   4.531 -0.3577  0.1507 -0.1291
19141TIP3    H278839   3.657   3.160   4.449 -0.7236  1.7394 -1.3654
19142TIP3   OH278840   0.163   5.593  15.531 -0.1682  0.3836 -0.4156
19142TIP3    H178841   0.107   5.670  15.540 -0.4470  0.0709  0.6470
19142TIP3    H278842   0.107   5.527  15.490 -0.5702  0.1126  0.5294
19143TIP3   OH278843   2.164   3.847   5.755 -0.1562  0.4429 -0.4250
19143TIP3    H178844   2.210   3.928   5.776 -0.4747  0.8235 -1.1966
19143TIP3    H278845   2.101   3.871   5.688  0.3265 -0.6124 -1.2825
19144TIP3   OH278846   5.490   6.459  12.211  0.4530  0.1958  0.2395
19144TIP3    H178847   5.417   6.403  12.237  1.0848 -1.1707 -0.8000
19144TIP3    H278848   5.566   6.401  12.211  1.5161  1.5343  1.0657
19145TIP3   OH278849   2.970   4.519  12.786 -0.2780  0.3217 -0.0787
19145TIP3    H178850   3.028   4.581  12.742 -0.0463 -0.7398 -1.3220
19145TIP3    H278851   2.889   4.569  12.802  0.7764  1.6831  1.2959
19146TIP3   OH278852   6.344   0.910  16.287 -0.0233 -0.5571 -0.3944
19146TIP3    H178853   6.285   0.917  16.362 -0.7506 -1.5209 -0.8405
19146TIP3    H278854   6.303   0.843  16.232  2.0403 -2.0616 -0.2128
19147TIP3   OH278855   2.602   2.644   3.353 -0.0082  0.5376  0.3156
19147TIP3    H178856   2.659   2.597   3.292 -0.0639 -0.2639  0.8679
19147TIP3    H278857   2.514   2.633   3.318 -0.0956 -0.3185  0.7659
19148TIP3   OH278858   6.698   3.306  11.857  0.8286 -0.1759 -0.5522
19148TIP3    H178859   6.785   3.338  11.879 -0.3449  3.1313 -0.0994
19148TIP3    H278860   6.683   3.334  11.767  0.1879 -0.6711 -0.6152
19149TIP3   OH278861   5.266   1.800   2.658 -0.3569  0.1675  0.0911
19149TIP3    H178862   5.311   1.872   2.702  0.2503 -0.8994  1.2997
19149TIP3    H278863   5.174   1.824   2.659 -0.0659  1.3261 -0.3202
19150TIP3   OH278864   3.420   6.447  12.965 -0.6786  0.1276 -0.1581
19150TIP3    H178865   3.351   6.404  13.015 -1.3904  0.0195 -1.2178
19150TIP3    H278866   3.489   6.464  13.030 -0.8994 -1.4624  0.5514
19151TIP3   OH278867   6.053   1.978  13.542 -0.1615  0.1567  0.9116
19151TIP3    H178868   5.991   1.928  13.489  0.0641  0.5982  0.2232
19151TIP3    H278869   6.119   2.008  13.480  1.7607 -1.7831  1.8642
19152TIP3   OH278870   1.252   5.785  14.391  0.3996  0.2995 -0.3019
19152TIP3    H178871   1.256   5.691  14.411  0.1065  0.1514 -0.9060
19152TIP3    H278872   1.235   5.827  14.475 -2.1312 -0.3950 -0.3828
19153TIP3   OH278873   0.903   2.820  14.837  0.2152  0.1117  0.2008
19153TIP3    H178874   0.826   2.856  14.793  0.4901  0.3422 -0.1011
19153TIP3    H278875   0.957   2.783  14.767  1.3486  1.7692  0.1233
19154TIP3   OH278876   6.646   1.519   1.675  0.5252  0.0945 -0.0879
19154TIP3    H178877   6.609   1.530   1.588 -1.4175 -2.8944  0.2018
19154TIP3    H278878   6.611   1.593   1.726 -1.1923 -0.0395 -1.0159
19155TIP3   OH278879   1.617   3.855   0.650 -0.1032  0.0370 -0.1948
19155TIP3    H178880   1.570   3.895   0.577 -2.0637 -1.0328  0.4012
19155TIP3    H278881   1.620   3.762   0.628  0.4290 -0.1147  0.4953
19156TIP3   OH278882   0.714   3.635   2.000 -0.0139 -0.1394  0.0694
19156TIP3    H178883   0.746   3.603   2.084 -0.4693 -1.0969 -0.1108
19156TIP3    H278884   0.660   3.564   1.966  1.4428 -0.4688 -1.7720
19157TIP3   OH278885   1.594   0.411  12.094 -0.0948  0.4404  0.3249
19157TIP3    H178886   1.625   0.483  12.039  2.5136  0.5684  1.8205
19157TIP3    H278887   1.632   0.332  12.056 -0.2587  0.2438  0.5628
19158TIP3   OH278888   5.032   5.430  13.193  0.2493  0.1830 -0.0761
19158TIP3    H178889   5.058   5.493  13.260 -0.0011  0.3821 -0.1637
19158TIP3    H278890   5.060   5.468  13.111  0.6262 -0.0985 -0.0786
19159TIP3   OH278891   5.267   5.569  12.166 -0.1437 -0.1113  0.1055
19159TIP3    H178892   5.218   5.614  12.097 -0.1292 -0.6096 -0.2318
19159TIP3    H278893   5.260   5.476  12.145 -0.0794 -0.2673  0.7367
19160TIP3   OH278894   0.949   1.154  11.634  0.3710 -0.1857 -0.0961
19160TIP3    H178895   0.908   1.122  11.553  0.4043  1.1159 -0.6484
19160TIP3    H278896   1.037   1.181  11.607 -0.2161  1.9279 -0.0381
19161TIP3   OH278897   1.192   4.114  13.254  0.4246  0.4855  0.1952
19161TIP3    H178898   1.109   4.151  13.283  0.4680 -1.2553  2.7889
19161TIP3    H278899   1.208   4.155  13.169 -2.5369  1.6542  0.1100
19162TIP3   OH278900   4.668   0.302  16.972 -0.1345  0.3636  0.2727
19162TIP3    H178901   4.610   0.329  17.043 -0.5219  1.8024 -0.5440
19162TIP3    H278902   4.622   0.231  16.929  0.0994 -0.5189  1.4200
19163TIP3   OH278903   0.284   1.193   2.494 -0.4272 -0.0516 -0.5816
19163TIP3    H178904   0.289   1.240   2.411 -0.9850 -0.0797 -0.6383
19163TIP3    H278905   0.309   1.258   2.560 -2.1583  0.6492 -0.5608
19164TIP3   OH278906   0.910   4.224   4.622  0.4626  0.0400  0.1153
19164TIP3    H178907   1.001   4.199   4.637  0.3084 -0.4382  0.2954
19164TIP3    H278908   0.915   4.305   4.571  0.9868  0.5345  0.9329
19165TIP3   OH278909   4.119   0.861   0.432 -0.1782  0.0266  0.1830
19165TIP3    H178910   4.188   0.924   0.410  1.2900 -1.4047  0.4907
19165TIP3    H278911   4.165   0.791   0.477 -1.9808 -0.6477  1.0484
19166TIP3   OH278912   2.198   2.645   2.993  0.8535  0.1073 -0.2762
19166TIP3    H178913   2.208   2.562   2.947 -1.7307 -0.3052 -0.2820
19166TIP3    H278914   2.104   2.663   2.989  1.1317  2.2520  1.0960
19167TIP3   OH278915   5.173   3.926   2.953  0.3403  0.0423  0.4161
19167TIP3    H178916   5.208   4.015   2.966  1.0223  0.4128 -2.9677
19167TIP3    H278917   5.248   3.875   2.924 -0.2182 -1.4967  1.5575
19168TIP3   OH278918   2.628   3.236   2.555  0.4171 -0.2190 -0.3333
19168TIP3    H178919   2.604   3.282   2.636  1.5365 -0.1684 -0.0081
19168TIP3    H278920   2.624   3.304   2.487 -0.9068 -0.3508 -0.3990
19169TIP3   OH278921   2.006   4.570  14.040  0.2496  0.1002 -0.2663
19169TIP3    H178922   2.037   4.503  14.101  1.1536  0.1855 -0.6200
19169TIP3    H278923   2.086   4.612  14.007 -0.1823 -0.3676 -1.9928
19170TIP3   OH278924   6.114   2.599  16.694 -0.3125 -0.0131 -0.0682
19170TIP3    H178925   6.028   2.583  16.733 -0.8844 -0.6652 -1.5565
19170TIP3    H278926   6.138   2.517  16.652  1.2282  0.0411  0.6407
19171TIP3   OH278927   5.649   3.747   2.108 -0.7186  0.0988 -0.4908
19171TIP3    H178928   5.677   3.793   2.187 -0.7808 -0.9336  0.1611
19171TIP3    H278929   5.726   3.698   2.080 -0.7727  0.2595 -0.9295
19172TIP3   OH278930   3.375   1.943  13.804 -0.1717  0.1001 -0.0016
19172TIP3    H178931   3.347   1.852  13.813 -1.2359  0.2732 -1.2478
19172TIP3    H278932   3.467   1.937  13.775  0.2383 -0.5256  1.3541
19173TIP3   OH278933   1.666   6.484  11.375 -0.0640 -0.4642  0.4859
19173TIP3    H178934   1.651   6.422  11.303 -0.5338 -0.7962  0.8668
19173TIP3    H278935   1.703   6.561  11.332 -3.1475  0.5561 -0.5772
19174TIP3   OH278936   3.548   5.448  14.756 -0.3349 -0.7814  0.2325
19174TIP3    H178937   3.535   5.405  14.671  0.5244 -1.2504  0.3283
19174TIP3    H278938   3.480   5.515  14.759  0.6470  0.3711 -1.5461
19175TIP3   OH278939   3.300   2.711   5.565 -0.0463  0.2199  0.1935
19175TIP3    H178940   3.358   2.703   5.640  0.4417  1.6445  0.0077
19175TIP3    H278941   3.340   2.658   5.497  2.6122  3.1512 -0.7886
19176TIP3   OH278942   0.376   0.842  15.122 -0.5772  0.2158 -0.1140
19176TIP3    H178943   0.390   0.810  15.032  1.4267 -0.4393  0.3732
19176TIP3    H278944   0.431   0.920  15.128 -2.1152  1.3314  0.0334
19177TIP3   OH278945   4.788   2.237  13.906 -0.3191 -0.3968 -0.5399
19177TIP3    H178946   4.830   2.322  13.896  2.0387 -1.5693 -1.3206
19177TIP3    H278947   4.778   2.204  13.817  1.5931 -2.1453 -0.1901
19178TIP3   OH278948   6.020   3.904  11.457 -1.0443  0.2388 -0.1804
19178TIP3    H178949   6.041   3.978  11.514 -0.0184  0.6652 -1.0780
19178TIP3    H278950   5.990   3.836  11.517 -1.7293  1.2690  0.6946
19179TIP3   OH278951   4.173   4.337  13.821 -0.5488  0.5120  0.3374
19179TIP3    H178952   4.225   4.260  13.799 -1.4013  0.5689 -2.1840
19179TIP3    H278953   4.104   4.339  13.755 -2.4436  1.7019  2.2270
19180TIP3   OH278954   3.637   1.153  13.404 -0.4217  0.6685  0.5161
19180TIP3    H178955   3.606   1.079  13.350  0.0754  0.7096  0.1711
19180TIP3    H278956   3.559   1.180  13.453 -0.9440  0.7736 -0.3490
19181TIP3   OH278957   5.620   2.757  13.336  0.5533  0.0133 -0.0710
19181TIP3    H178958   5.583   2.819  13.400  2.5002  0.9808  0.1953
19181TIP3    H278959   5.680   2.704  13.387  1.8914  0.5774 -1.0048
19182TIP3   OH278960   0.617   5.804  13.518 -0.2115 -0.3437  0.2367
19182TIP3    H178961   0.605   5.713  13.543 -0.9823 -0.8175 -1.6796
19182TIP3    H278962   0.638   5.849  13.600  1.1021 -2.3704  1.0944
19183TIP3   OH278963   4.457   2.367  15.576  0.0642  0.2972 -0.6736
19183TIP3    H178964   4.402   2.417  15.516  0.9552  1.8486 -0.2473
19183TIP3    H278965   4.547   2.393  15.554  0.5552 -1.0145 -0.3298
19184TIP3   OH278966   2.756   4.904  12.333 -0.5406 -0.3609 -0.0075
19184TIP3    H178967   2.834   4.959  12.322 -0.1404 -0.6736  1.0916
19184TIP3    H278968   2.781   4.820  12.295 -0.7104 -0.1581 -0.5737
19185TIP3   OH278969   4.843   0.783   3.768 -0.1740 -0.0467 -0.1569
19185TIP3    H178970   4.846   0.792   3.863 -0.0296 -0.6661 -0.0957
19185TIP3    H278971   4.868   0.691   3.752  0.1915  0.1577 -0.8088
19186TIP3   OH278972   5.562   6.256   2.104  0.7776 -0.0787 -0.0315
19186TIP3    H178973   5.630   6.307   2.060  2.5239 -1.0667  1.3359
19186TIP3    H278974   5.569   6.169   2.066  1.7387 -0.7213  1.4882
19187TIP3   OH278975   1.280   0.802   6.153 -0.5244  0.1213 -0.7432
19187TIP3    H178976   1.277   0.716   6.196  2.8752 -1.4481 -3.2359
19187TIP3    H278977   1.352   0.848   6.196 -0.8646  0.8621 -0.9443
19188TIP3   OH278978   4.319   4.383   1.638 -0.1258 -0.6256  0.4523
19188TIP3    H178979   4.393   4.437   1.612  0.5144 -1.7445 -0.1181
19188TIP3    H278980   4.271   4.368   1.556 -1.0658  0.1741  0.8315
19189TIP3   OH278981   5.365   6.068   1.565  0.4431  0.2684  0.0015
19189TIP3    H178982   5.406   6.103   1.486 -1.4796 -0.1851 -1.2677
19189TIP3    H278983   5.410   6.111   1.637 -0.8223  4.3739 -1.3948
19190TIP3   OH278984   6.487   2.898  16.979  0.0636 -0.4956 -0.4970
19190TIP3    H178985   6.415   2.958  17.001 -0.8030 -1.5696 -0.3110
19190TIP3    H278986   6.515   2.925  16.892 -0.2548  0.2334 -0.3787
19191TIP3   OH278987   4.388   5.456  16.131  0.6624 -0.7168 -0.0692
19191TIP3    H178988   4.379   5.483  16.039 -0.2163  2.3461  0.7835
19191TIP3    H278989   4.408   5.363  16.127 -0.5499 -0.9721 -3.3307
19192TIP3   OH278990   5.264   0.549  14.181  0.3434  0.0050 -0.5107
19192TIP3    H178991   5.221   0.497  14.248  1.9089  0.0994  0.6141
19192TIP3    H278992   5.194   0.570  14.119 -1.0153 -0.6205  0.7398
19193TIP3   OH278993   2.513   0.541  16.115  0.0988  0.3092 -0.3380
19193TIP3    H178994   2.432   0.592  16.119 -0.2288 -0.1688 -0.8012
19193TIP3    H278995   2.581   0.603  16.141 -0.3870  0.7801 -0.1705
19194TIP3   OH278996   2.333   3.204   4.634 -0.3802  0.2644 -0.6585
19194TIP3    H178997   2.261   3.167   4.583  0.8873  0.1180 -2.4349
19194TIP3    H278998   2.383   3.128   4.664 -0.3803  0.3980 -0.3169
19195TIP3   OH278999   5.172   3.106   1.193 -0.3685  0.2707 -0.4464
19195TIP3    H179000   5.144   3.017   1.217 -1.2606  0.3916 -1.0323
19195TIP3    H279001   5.267   3.105   1.208 -0.5439 -0.3954  0.7586
19196TIP3   OH279002   4.209   3.865  16.465 -0.1411 -0.5001  0.1035
19196TIP3    H179003   4.228   3.919  16.389 -0.8849 -2.0397 -1.2320
19196TIP3    H279004   4.126   3.898  16.500  1.6899  2.2957  2.2963
19197TIP3   OH279005   2.023   2.338   1.580 -0.1566  0.2375  0.5894
19197TIP3    H179006   2.096   2.355   1.521  0.7630 -0.8239  1.3857
19197TIP3    H279007   2.030   2.405   1.647 -0.2190  0.4455  0.3880
19198TIP3   OH279008   5.000   3.494  13.544  0.2677 -0.4172 -0.1246
19198TIP3    H179009   5.005   3.523  13.635  1.4699 -2.4238  0.5295
19198TIP3    H279010   5.040   3.564  13.493 -1.4046  1.2205  0.7360
19199TIP3   OH279011   3.954   6.588   0.191  0.4871 -0.7484 -0.6188
19199TIP3    H179012   3.894   6.520   0.163  2.2568 -1.7649 -2.1195
19199TIP3    H279013   3.959   6.649   0.117  0.8026 -0.3207 -0.2585
19200TIP3   OH279014   2.706   4.613  14.920 -0.1868 -0.1933 -0.0767
19200TIP3    H179015   2.650   4.581  14.849  1.5660 -2.5616 -0.5196
19200TIP3    H279016   2.648   4.667  14.974 -2.2681 -0.6093 -1.7610
19201TIP3   OH279017   2.823   0.633  11.847 -0.8994  0.2433  0.0706
19201TIP3    H179018   2.835   0.728  11.847 -1.4150  0.3282 -1.3541
19201TIP3    H279019   2.751   0.618  11.909 -2.1076  0.9907 -1.1090
19202TIP3   OH279020   4.742   5.962  14.851 -0.0583  0.6923 -0.4490
19202TIP3    H179021   4.701   6.036  14.805 -0.1839  1.4891  0.8909
19202TIP3    H279022   4.745   5.990  14.943  0.5779 -0.6759 -0.0334
19203TIP3   OH279023   5.723   3.463  14.525  0.0712  0.3000 -0.0431
19203TIP3    H179024   5.706   3.557  14.525 -0.3806  0.2340 -1.4270
19203TIP3    H279025   5.708   3.436  14.616 -1.0248  1.3425  0.1107
19204TIP3   OH279026   0.784   4.529  12.351 -0.0727 -0.4289  0.1517
19204TIP3    H179027   0.728   4.571  12.286 -0.3309 -0.9208  0.0542
19204TIP3    H279028   0.726   4.510  12.424  0.2622  0.3308  0.6382
19205TIP3   OH279029   1.765   2.624   3.888 -0.1602 -0.2482 -0.1732
19205TIP3    H179030   1.802   2.668   3.811 -0.9393 -0.2759 -0.5701
19205TIP3    H279031   1.743   2.536   3.856 -0.8681 -0.1236 -0.0310
19206TIP3   OH279032   4.070   6.546   3.961  0.2419 -0.0729  0.6926
19206TIP3    H179033   4.127   6.611   4.000 -0.1384  0.9777 -0.4267
19206TIP3    H279034   3.995   6.540   4.020  1.0562 -0.7801  1.6837
19207TIP3   OH279035   2.682   6.324   2.776  0.2638 -0.0183  0.1678
19207TIP3    H179036   2.617   6.275   2.827  1.3837 -1.2679  0.4379
19207TIP3    H279037   2.656   6.310   2.685 -0.8006  0.8821  0.3096
19208TIP3   OH279038   3.303   3.917   2.855 -0.5192  0.6457  0.4946
19208TIP3    H179039   3.212   3.943   2.836 -0.5449 -0.3017 -0.8464
19208TIP3    H279040   3.299   3.823   2.869  0.1862  0.6839  1.0093
19209TIP3   OH279041   6.650   2.273   5.433 -0.1597  0.2998 -0.4992
19209TIP3    H179042   6.561   2.237   5.435  0.5297 -1.6188 -1.2284
19209TIP3    H279043   6.691   2.240   5.513  0.1165  0.5289 -0.5464
19210TIP3   OH279044   1.001   5.576   4.715  0.1573 -0.9342  0.6546
19210TIP3    H179045   0.938   5.547   4.650  0.9198  0.3162 -0.7029
19210TIP3    H279046   1.087   5.559   4.675  0.6396  1.0368  0.7244
19211TIP3   OH279047   4.977   2.667   2.249  0.1356 -0.4867  0.1045
19211TIP3    H179048   4.910   2.666   2.318  0.3710  0.3934  0.3606
19211TIP3    H279049   5.027   2.587   2.263  0.2862 -0.2370  1.0696
19212TIP3   OH279050   6.000   4.485  13.854  0.4439 -0.2578 -0.1229
19212TIP3    H179051   6.082   4.500  13.807 -0.4646  0.6242 -1.4733
19212TIP3    H279052   5.956   4.417  13.804  0.0516 -0.2748  0.2409
19213TIP3   OH279053   3.780   1.426   3.598 -0.0120  0.1632  0.2189
19213TIP3    H179054   3.689   1.443   3.572 -0.1076  0.2979  0.6404
19213TIP3    H279055   3.804   1.346   3.552 -0.0162  0.6680 -0.6866
19214TIP3   OH279056   2.122   0.885  14.149 -0.4506  0.0780 -0.3132
19214TIP3    H179057   2.128   0.979  14.166 -0.7049 -0.0105  0.2699
19214TIP3    H279058   2.171   0.872  14.067 -0.3075  0.6950 -0.3248
19215TIP3   OH279059   4.565   1.877   3.678  0.3979 -0.0952  0.0069
19215TIP3    H179060   4.617   1.845   3.604 -1.2805 -1.8220 -0.5026
19215TIP3    H279061   4.488   1.917   3.638  0.3831  0.7083  0.8012
19216TIP3   OH279062   0.333   5.316   1.391  0.0539 -0.4308  0.1617
19216TIP3    H179063   0.292   5.287   1.472 -2.0449  1.0801 -0.2708
19216TIP3    H279064   0.284   5.395   1.367  2.2940  0.6380 -1.2259
19217TIP3   OH279065   6.041   3.298   3.405  0.8618  0.6185  0.1967
19217TIP3    H179066   6.059   3.377   3.355  1.8484 -0.0014 -0.4703
19217TIP3    H279067   5.948   3.282   3.391  0.8445  1.1809 -0.3770
19218TIP3   OH279068   2.962   3.338  10.592  0.3595 -0.8066  0.1528
19218TIP3    H179069   2.879   3.304  10.626 -0.3073  0.2733 -0.3500
19218TIP3    H279070   2.943   3.360  10.501  0.9514  0.2848  0.2787
19219TIP3   OH279071   4.445   2.967  11.086  0.4134  0.1600 -0.0177
19219TIP3    H179072   4.435   2.917  11.167  1.6385 -2.7872 -1.5199
19219TIP3    H279073   4.382   2.928  11.026  0.8516  0.9588 -1.0270
19220TIP3   OH279074   3.021   0.264  11.307  0.8431  0.0750 -0.0390
19220TIP3    H179075   3.061   0.309  11.382  1.8067 -0.9229  0.0706
19220TIP3    H279076   3.081   0.192  11.288  0.7484  0.4596 -1.9504
19221TIP3   OH279077   4.409   3.224  16.839  0.5419  0.2666 -0.0075
19221TIP3    H179078   4.397   3.148  16.896 -0.4139 -1.4988 -2.3933
19221TIP3    H279079   4.350   3.290  16.874 -1.0613 -1.2544  0.2746
19222TIP3   OH279080   3.448   1.321  11.996 -0.2265 -0.1432 -0.4219
19222TIP3    H179081   3.474   1.343  11.906  0.7603  3.1007  0.5126
19222TIP3    H279082   3.357   1.352  12.002 -0.2040 -0.1201 -0.2131
19223TIP3   OH279083   6.342   6.248   4.155  0.1266 -0.0336 -0.1844
19223TIP3    H179084   6.281   6.266   4.084 -1.1225  0.4048  0.9505
19223TIP3    H279085   6.359   6.154   4.149  0.2693  0.0497 -1.2210
19224TIP3   OH279086   2.403   4.991  12.852  0.1041  0.1436  0.0264
19224TIP3    H179087   2.361   5.006  12.936  0.5175  0.3364  0.2027
19224TIP3    H279088   2.402   4.895  12.841  1.3934 -0.0078  0.9655
19225TIP3   OH279089   4.921   2.656   6.115 -0.0558 -0.2229 -0.3078
19225TIP3    H179090   4.944   2.664   6.022 -1.8385 -0.7836 -0.8259
19225TIP3    H279091   4.828   2.677   6.119  0.0457  0.0634  1.4166
19226TIP3   OH279092   0.063   2.414  13.440  0.0911  0.1252  0.0624
19226TIP3    H179093   0.076   2.464  13.359 -0.3589  3.5501  1.8937
19226TIP3    H279094   0.139   2.435  13.494 -1.0146  0.3298  1.6010
19227TIP3   OH279095   0.970   5.406  15.768 -0.4734  0.2688 -0.1497
19227TIP3    H179096   0.929   5.435  15.686  0.5093  1.7037 -0.1848
19227TIP3    H279097   1.056   5.373  15.741 -1.1996 -1.8951  0.0181
19228TIP3   OH279098   4.926   2.750   2.673 -0.1484  0.3414  0.0543
19228TIP3    H179099   4.933   2.843   2.651  2.4941  0.0775 -0.5256
19228TIP3    H279100   4.921   2.748   2.769  0.3628  1.0667  0.0995
19229TIP3   OH279101   6.750   2.645  15.924  0.0868  0.1457 -0.0040
19229TIP3    H179102   6.825   2.644  15.865  0.1690 -1.1738  0.0920
19229TIP3    H279103   6.683   2.694  15.877  1.4755  2.7844  0.5650
19230TIP3   OH279104   6.106   0.947  15.427 -0.2744 -0.1899  0.5764
19230TIP3    H179105   6.162   0.891  15.480 -2.0895 -0.7116  2.0556
19230TIP3    H279106   6.045   0.887  15.385 -0.2915  0.4319 -0.3041
19231TIP3   OH279107   4.445   6.754  14.369  0.0547  0.2308 -0.2462
19231TIP3    H179108   4.479   6.780  14.454 -0.8513 -0.0891  0.2164
19231TIP3    H279109   4.499   6.679  14.344  0.4312  0.4274 -0.0387
19232TIP3   OH279110   0.281   5.829  14.333  0.0266  0.9002  0.8448
19232TIP3    H179111   0.273   5.822  14.238  2.2064  0.7695  0.6286
19232TIP3    H279112   0.239   5.913  14.355 -0.1521  1.1127 -0.2818
19233TIP3   OH279113   3.922   5.812   4.002 -0.5963  0.1657 -0.4764
19233TIP3    H179114   4.008   5.806   3.959 -1.4459  1.4654 -2.5153
19233TIP3    H279115   3.872   5.872   3.947 -2.5281  0.2013  1.1963
19234TIP3   OH279116   1.916   2.953  11.953  0.8755  0.4370  0.0440
19234TIP3    H179117   1.867   2.998  11.883  0.5385  0.6572  0.4152
19234TIP3    H279118   1.929   3.020  12.020  2.0147  0.4758 -0.2060
19235TIP3   OH279119   0.976   2.871  13.991  0.6017  0.6580 -0.0530
19235TIP3    H179120   0.890   2.906  14.012  0.1591 -1.2216  1.6552
19235TIP3    H279121   1.019   2.859  14.076  1.6654 -0.5276 -0.7095
19236TIP3   OH279122   2.722   1.911  16.880 -0.1085  0.3402 -0.0724
19236TIP3    H179123   2.794   1.907  16.942  0.7419 -0.7908 -1.0960
19236TIP3    H279124   2.666   1.837  16.902 -0.8846  1.1071  0.6013
19237TIP3   OH279125   4.843   3.425  14.330 -0.2647 -0.2031  0.1247
19237TIP3    H179126   4.787   3.463  14.399  0.6941  0.2629  0.6726
19237TIP3    H279127   4.820   3.332  14.329  1.0272 -0.6427  2.4581
19238TIP3   OH279128   4.805   5.314   6.499  0.1103 -0.3303 -0.0062
19238TIP3    H179129   4.744   5.371   6.453 -2.7498 -0.3391  3.3661
19238TIP3    H279130   4.833   5.365   6.575 -2.5696 -3.0624  3.1577
19239TIP3   OH279131   3.726   5.342  13.749 -0.4740 -0.2150 -0.4377
19239TIP3    H179132   3.696   5.259  13.712  1.1524 -0.3980 -1.3978
19239TIP3    H279133   3.770   5.318  13.831  1.2378 -0.5000 -1.4001
19240TIP3   OH279134   4.257   6.234   5.176  0.3750  0.3599 -0.0316
19240TIP3    H179135   4.343   6.216   5.214  0.0817  1.0434  1.0025
19240TIP3    H279136   4.251   6.329   5.174 -1.2094  0.3810  1.9954
19241TIP3   OH279137   5.657   1.329  12.419 -0.0750  0.7294  0.1394
19241TIP3    H179138   5.664   1.375  12.335  0.7492 -1.8270 -1.2814
19241TIP3    H279139   5.747   1.304  12.440 -0.5978 -1.1216  0.3002
19242TIP3   OH279140   6.189   4.331   3.914  0.5295  0.3026  0.1561
19242TIP3    H179141   6.178   4.364   4.003  1.6924 -3.9566  2.1579
19242TIP3    H279142   6.273   4.365   3.885  0.8219  0.5881  1.3111
19243TIP3   OH279143   3.162   1.007  15.416  0.0086  0.5549 -0.2754
19243TIP3    H179144   3.097   1.040  15.478 -1.3257  0.3154 -1.4904
19243TIP3    H279145   3.192   1.084  15.369 -0.7250  0.4671 -0.9114
19244TIP3   OH279146   0.119   1.335   4.239  0.1451 -0.1238  0.1369
19244TIP3    H179147   0.026   1.317   4.252 -0.0927  0.6000 -0.4459
19244TIP3    H279148   0.138   1.298   4.152 -0.1302  1.5409 -0.6688
19245TIP3   OH279149   5.619   1.376  13.624  0.2269  0.4113  0.5243
19245TIP3    H179150   5.708   1.341  13.625  0.5370  1.2022  1.1800
19245TIP3    H279151   5.618   1.444  13.691 -0.4546  1.4354 -0.4722
19246TIP3   OH279152   1.559   4.594   1.560  0.0129  0.1957 -0.2671
19246TIP3    H179153   1.632   4.613   1.619 -1.2842  1.5351  1.0203
19246TIP3    H279154   1.489   4.563   1.618 -0.9398  0.4659 -1.2359
19247TIP3   OH279155   0.095   5.428  16.887  0.0522 -0.5678 -0.3187
19247TIP3    H179156   0.085   5.522  16.875 -0.5584 -0.8043 -2.0211
19247TIP3    H279157   0.156   5.419  16.960  1.7936  1.1861 -1.4592
19248TIP3   OH279158   5.913   2.821  12.127 -0.3460 -0.2733  0.4246
19248TIP3    H179159   5.940   2.781  12.044 -0.5143  1.8507 -0.7192
19248TIP3    H279160   5.939   2.758  12.194  1.1367 -1.3882 -1.1258
19249TIP3   OH279161   1.198   2.775  17.129 -0.0361  0.1920 -0.5491
19249TIP3    H179162   1.118   2.730  17.102  0.1399 -0.5504  0.1377
19249TIP3    H279163   1.252   2.778  17.050 -0.3548 -0.1498 -0.7830
19250TIP3   OH279164   4.311   5.670  16.562  0.1346  0.6341 -0.0703
19250TIP3    H179165   4.282   5.599  16.621  1.2166 -0.5647 -0.9313
19250TIP3    H279166   4.301   5.633  16.474  4.4399 -0.0178 -0.4637
19251TIP3   OH279167   5.006   5.948   4.002  0.5358 -0.3600 -0.3165
19251TIP3    H179168   4.921   5.934   4.044  0.1500 -1.7765 -1.4884
19251TIP3    H279169   5.068   5.956   4.074 -0.3901 -0.7850  0.5452
19252TIP3   OH279170   5.558   6.119   3.778  0.1547  0.1326 -0.0356
19252TIP3    H179171   5.498   6.093   3.848  1.2470 -2.8428 -0.0542
19252TIP3    H279172   5.554   6.214   3.778 -2.5920  0.1492  1.6518
19253TIP3   OH279173   1.535   1.771   2.951 -0.3438  0.1478  0.2787
19253TIP3    H179174   1.461   1.784   3.010  0.3015  1.0326  0.9016
19253TIP3    H279175   1.597   1.840   2.973 -0.2046  0.7051 -1.6340
19254TIP3   OH279176   5.715   4.325  12.249 -0.4866 -0.1501  0.0288
19254TIP3    H179177   5.804   4.318  12.215 -0.0535 -1.8321  1.3419
19254TIP3    H279178   5.685   4.412  12.222  1.2134  0.0950 -1.2084
19255TIP3   OH279179   3.870   3.625  16.174  0.3415 -0.1961  0.1696
19255TIP3    H179180   3.782   3.607  16.141  0.8264  1.4723 -2.2560
19255TIP3    H279181   3.900   3.540  16.207 -2.3806 -0.6634  1.7487
19256TIP3   OH279182   6.313   3.563   0.740  0.0023 -0.2741  0.4867
19256TIP3    H179183   6.320   3.654   0.709 -1.7232 -0.1834  0.2645
19256TIP3    H279184   6.396   3.523   0.715  0.3100  0.9265 -0.5226
19257TIP3   OH279185   4.052   1.745   2.739  0.1735  0.3796  0.2403
19257TIP3    H179186   3.975   1.745   2.796  0.0675  0.7260  0.0999
19257TIP3    H279187   4.108   1.675   2.774 -0.7296 -0.6729 -0.3752
19258TIP3   OH279188   6.080   0.360  16.098 -0.4162  0.2971  0.2590
19258TIP3    H179189   6.029   0.376  16.019 -0.6301  1.6009  0.6375
19258TIP3    H279190   6.059   0.270  16.122 -1.0287  0.1796 -0.6758
19259TIP3   OH279191   0.657   1.914  10.923  0.4991 -0.3028  0.0505
19259TIP3    H179192   0.700   1.883  11.003 -0.4493 -0.9582  0.3256
19259TIP3    H279193   0.717   1.979  10.888  1.2148 -0.4289  0.9815
19260TIP3   OH279194   4.756   1.214  11.530 -0.0383  0.4700  0.3906
19260TIP3    H179195   4.768   1.145  11.465  2.7465  1.4824 -0.3274
19260TIP3    H279196   4.661   1.226  11.535 -0.4477 -1.1676 -1.8295
19261TIP3   OH279197   4.010   1.153   0.333  0.0415  0.5784  0.2208
19261TIP3    H179198   3.948   1.206   0.284 -0.2155 -1.0662 -1.3418
19261TIP3    H279199   3.958   1.112   0.402 -0.4694 -0.1338 -0.5660
19262TIP3   OH279200   1.674   1.121  14.779  0.2359 -0.7325  0.5116
19262TIP3    H179201   1.640   1.142  14.692 -1.3105 -0.6649  1.1062
19262TIP3    H279202   1.722   1.039  14.767  2.3358  0.6187 -0.9090
19263TIP3   OH279203   1.295   0.842   1.031  0.3271 -0.7248 -0.3109
19263TIP3    H179204   1.301   0.768   1.092 -0.4993 -0.5702 -0.0305
19263TIP3    H279205   1.248   0.910   1.079  2.9400  0.8150  0.1942
19264TIP3   OH279206   4.411   1.616  14.663 -0.1230 -0.1924  0.3186
19264TIP3    H179207   4.470   1.686  14.635 -0.0771 -1.0407 -1.8944
19264TIP3    H279208   4.463   1.563  14.723  1.0315 -0.3098 -0.7595
19265TIP3   OH279209   1.981   0.616  17.152 -0.3911  0.2892  0.1427
19265TIP3    H179210   2.040   0.649  17.084 -0.3917 -0.0521 -0.0277
19265TIP3    H279211   1.969   0.690  17.211 -0.9156  0.8076 -0.5857
19266TIP3   OH279212   4.889   3.951  12.349  0.4044  0.1242 -0.3171
19266TIP3    H179213   4.929   3.979  12.431 -0.5360  1.1121 -0.1769
19266TIP3    H279214   4.886   4.030  12.295  0.8275 -0.4674 -1.2427
19267TIP3   OH279215   5.163   2.587  12.352  0.3749 -0.1635  0.1523
19267TIP3    H179216   5.093   2.590  12.286  0.0427 -2.0975  0.3544
19267TIP3    H279217   5.122   2.619  12.432  0.0950 -0.0793 -0.0229
19268TIP3   OH279218   4.797   0.534  14.735  0.3948  0.1789 -0.6354
19268TIP3    H179219   4.755   0.461  14.780  1.3397 -1.0385 -1.6384
19268TIP3    H279220   4.760   0.612  14.776 -1.2929 -0.8386 -0.1114
19269TIP3   OH279221   3.303   5.179   3.150  0.0924 -0.4329  1.1054
19269TIP3    H179222   3.383   5.198   3.201  0.7471  0.0124 -0.0604
19269TIP3    H279223   3.334   5.169   3.060 -1.4512  2.1039  0.1943
19270TIP3   OH279224   1.362   2.813  15.681  0.0936 -0.2643  0.2525
19270TIP3    H179225   1.386   2.740  15.625  0.0237 -0.9582  1.1010
19270TIP3    H279226   1.442   2.866  15.688 -0.3468  0.7673 -1.8333
19271TIP3   OH279227   0.435   1.365  12.744  0.5085 -0.0335 -0.3172
19271TIP3    H179228   0.399   1.430  12.683  1.0036 -0.0817 -0.6678
19271TIP3    H279229   0.366   1.300  12.753  1.0403 -0.9156 -2.1704
19272TIP3   OH279230   4.824   3.970  17.152 -0.1063  0.0939  0.0131
19272TIP3    H179231   4.738   3.948  17.187  0.7183 -0.7293  1.6080
19272TIP3    H279232   4.831   3.918  17.072 -1.2748  0.5691 -0.4231
19273TIP3   OH279233   6.149   4.775  15.498  0.7144 -0.2668 -0.0825
19273TIP3    H179234   6.119   4.857  15.537  1.3944 -0.0994  0.0849
19273TIP3    H279235   6.115   4.707  15.556  0.7059 -0.0747  0.1379
19274TIP3   OH279236   6.599   6.691  13.069 -0.2024  0.1853  0.5130
19274TIP3    H179237   6.531   6.632  13.101  0.1503  0.5741  2.0467
19274TIP3    H279238   6.597   6.679  12.974 -1.7596 -0.5062  0.5898
19275TIP3   OH279239   4.478   0.415   0.126 -0.4601 -0.0618  0.0281
19275TIP3    H179240   4.390   0.451   0.138  0.1584  1.4020  0.3697
19275TIP3    H279241   4.528   0.486   0.085  0.7485 -0.6018  0.5156
19276TIP3   OH279242   0.515   4.278  17.264  0.8695 -0.0495 -0.0135
19276TIP3    H179243   0.481   4.236  17.185 -1.9440  1.3448  0.3172
19276TIP3    H279244   0.470   4.232  17.336  1.6275  0.2176  0.6372
19277TIP3   OH279245   4.266   4.392  14.381  0.1269 -0.1187 -0.1101
19277TIP3    H179246   4.228   4.316  14.426 -0.7463 -0.3603 -1.2037
19277TIP3    H279247   4.292   4.451  14.452 -0.3049 -0.9076  0.7325
19278TIP3   OH279248   5.709   3.527   4.437 -0.4740 -0.0108 -0.3267
19278TIP3    H179249   5.642   3.464   4.413  0.6618 -1.0530 -0.9213
19278TIP3    H279250   5.789   3.474   4.447  0.3039  1.2009  0.1161
19279TIP3   OH279251   0.007   2.905  13.866 -0.2602  0.4554  0.1659
19279TIP3    H179252  -0.040   2.851  13.802 -1.5683  1.0108  0.6379
19279TIP3    H279253  -0.025   2.994  13.852  2.3527  1.2992 -1.0428
19280TIP3   OH279254   2.086   4.983   1.311  0.0096  0.0606 -0.0535
19280TIP3    H179255   2.135   4.926   1.252  1.2010  0.8156  0.1765
19280TIP3    H279256   2.052   4.924   1.379  1.8019 -0.3153  0.5755
19281TIP3   OH279257   6.263   0.876   6.160 -0.4753  0.1002  0.6796
19281TIP3    H179258   6.189   0.818   6.178 -0.9911  0.6286  0.2757
19281TIP3    H279259   6.340   0.822   6.180 -0.9065 -1.1702 -0.8736
19282TIP3   OH279260   2.577   4.067   0.982  0.0786 -0.6384 -0.0562
19282TIP3    H179261   2.658   4.067   1.034 -0.9828  0.4614  1.6781
19282TIP3    H279262   2.571   3.978   0.947  0.8139 -1.4539  1.7660
19283TIP3   OH279263   6.420   4.004   5.738  0.1285 -0.0510 -0.3263
19283TIP3    H179264   6.460   4.086   5.767 -0.3723  0.0740  0.0123
19283TIP3    H279265   6.451   3.938   5.800  0.0988 -0.0229 -0.2826
19284TIP3   OH279266   5.356   6.430   4.748 -0.6064 -0.1929 -0.2920
19284TIP3    H179267   5.368   6.347   4.702  3.0423 -0.8817  1.5485
19284TIP3    H279268   5.418   6.490   4.708  0.4148  0.0923  1.5993
19285TIP3   OH279269   1.593   4.963   2.704 -0.3942  0.1354 -0.4619
19285TIP3    H179270   1.681   4.960   2.665 -1.5548 -0.2859 -3.3399
19285TIP3    H279271   1.574   4.872   2.727  0.3889  0.4191  1.4990
19286TIP3   OH279272   4.312   3.680   4.128 -0.0357  0.0254 -0.1028
19286TIP3    H179273   4.366   3.738   4.075  0.9745  1.2758  2.1468
19286TIP3    H279274   4.225   3.718   4.125  0.5245  1.4673  0.9935
19287TIP3   OH279275   6.645   1.122  14.686  0.3112 -0.0191 -0.0021
19287TIP3    H179276   6.576   1.149  14.747  0.7471  0.3271  0.3387
19287TIP3    H279277   6.723   1.168  14.716 -0.0392  2.3841 -2.4474
19288TIP3   OH279278   1.449   1.032   5.893 -0.2551  0.4555 -0.0612
19288TIP3    H179279   1.525   1.031   5.836  0.3642 -2.0937  0.6995
19288TIP3    H279280   1.478   1.078   5.972  0.7096 -0.9211  0.4205
19289TIP3   OH279281   0.716   1.043   3.408 -0.0332  0.3983  0.0064
19289TIP3    H179282   0.648   1.005   3.352 -0.7725  1.2351  0.3069
19289TIP3    H279283   0.708   0.996   3.491  0.1801  0.0671 -0.1578
19290TIP3   OH279284   0.445   5.291   4.421 -0.4490  0.0575  0.0187
19290TIP3    H179285   0.502   5.214   4.412 -0.2987  0.2933 -1.2000
19290TIP3    H279286   0.391   5.271   4.497  0.3001 -0.7933  0.3562
19291TIP3   OH279287   1.235   3.010  15.846 -0.2767  0.0592 -0.0358
19291TIP3    H179288   1.302   3.059  15.894 -0.2665  2.2857 -2.1216
19291TIP3    H279289   1.281   2.975  15.770 -1.3820  1.5248 -1.4408
19292TIP3   OH279290   6.019   0.170  16.967  0.6237 -0.5186 -0.9161
19292TIP3    H179291   5.968   0.131  16.896 -0.3992  0.4469 -0.7401
19292TIP3    H279292   5.998   0.117  17.044  0.7335 -0.7871 -1.0732
19293TIP3   OH279293   6.348   6.500  15.698 -0.0310 -0.0262 -0.0346
19293TIP3    H179294   6.364   6.481  15.790  2.7569  0.0732 -0.3993
19293TIP3    H279295   6.334   6.595  15.695 -2.6571 -0.3251  0.4952
19294TIP3   OH279296   1.777   6.153  13.790  0.2424 -0.4541 -0.2203
19294TIP3    H179297   1.697   6.205  13.791 -0.7404 -1.9145 -0.3959
19294TIP3    H279298   1.799   6.143  13.883  0.2271 -0.0633 -0.1699
19295TIP3   OH279299   0.667   5.574   2.909 -0.5173  0.6906  0.4430
19295TIP3    H179300   0.635   5.543   2.994  0.2932 -0.1401  0.4631
19295TIP3    H279301   0.716   5.500   2.874 -2.0429  0.5123 -1.4078
19296TIP3   OH279302   5.254   3.094  12.200  0.3609 -0.2573  0.1572
19296TIP3    H179303   5.214   3.017  12.159 -0.2826  0.6027 -0.8877
19296TIP3    H279304   5.271   3.067  12.290  0.3885 -1.7019 -0.2594
19297TIP3   OH279305   1.738   1.905  11.587  0.6932  0.1629  0.1161
19297TIP3    H179306   1.709   1.824  11.544 -0.9074 -0.4158  2.0767
19297TIP3    H279307   1.830   1.889  11.607  0.8821 -0.4230 -1.1203
19298TIP3   OH279308   3.670   4.278   3.139  0.0367 -0.8764 -0.1491
19298TIP3    H179309   3.748   4.262   3.085  0.0127 -0.4332 -0.3143
19298TIP3    H279310   3.598   4.277   3.076 -0.0089 -0.5194 -0.1004
19299TIP3   OH279311   2.844   0.479   1.237  0.4746  1.1458  0.1044
19299TIP3    H179312   2.872   0.447   1.151 -1.1784 -1.3115  0.3959
19299TIP3    H279313   2.918   0.459   1.295  0.3858 -0.1147 -0.1820
19300TIP3   OH279314   5.766   1.300   5.240  0.0092  0.0274 -0.6579
19300TIP3    H179315   5.701   1.250   5.289 -0.4132  2.1081  1.0742
19300TIP3    H279316   5.838   1.238   5.226 -0.3356 -1.0362  1.6780
19301TIP3   OH279317   5.047   5.478   5.973  0.9295  0.8441  0.6685
19301TIP3    H179318   4.984   5.495   6.044  1.0326  1.7326  0.5583
19301TIP3    H279319   4.993   5.453   5.899  0.6173  2.3337  0.3530
19302TIP3   OH279320   5.952   2.330  12.452 -0.8011 -0.4198 -0.5620
19302TIP3    H179321   5.881   2.272  12.481  1.7241 -2.6518  1.7312
19302TIP3    H279322   5.969   2.386  12.528  0.5154 -0.6455 -0.6712
19303TIP3   OH279323   5.745   4.814  11.058  0.2581 -0.1361 -0.1081
19303TIP3    H179324   5.689   4.739  11.037 -0.8411  1.0597 -1.6666
19303TIP3    H279325   5.834   4.779  11.048 -0.1889 -1.6768  0.9446
19304TIP3   OH279326   6.179   4.580   5.396  0.0034  0.8190 -0.1010
19304TIP3    H179327   6.132   4.654   5.357 -0.6287  0.5100  0.0675
19304TIP3    H279328   6.124   4.504   5.378  0.1880  0.5307  0.5355
19305TIP3   OH279329   4.217   0.892  16.054 -0.0856 -0.2264 -0.1399
19305TIP3    H179330   4.295   0.848  16.020  0.0683 -0.4019  0.4243
19305TIP3    H279331   4.174   0.928  15.977  0.6580  0.0353 -0.4392
19306TIP3   OH279332   5.927   1.686   6.793  0.1523  0.1431  0.4988
19306TIP3    H179333   5.926   1.749   6.720  0.4890 -0.9832 -0.5035
19306TIP3    H279334   6.012   1.643   6.787  0.6447  0.7801  2.2492
19307TIP3   OH279335   5.092   0.149   2.925  0.3492  0.7984  0.4078
19307TIP3    H179336   5.128   0.119   3.008  1.2583  1.1192  0.1392
19307TIP3    H279337   5.119   0.083   2.861  0.0291  0.7806  0.2896
19308TIP3   OH279338   1.866   5.779  15.014  0.2422  0.0644  0.4865
19308TIP3    H179339   1.885   5.692  15.047  2.1511  0.0320 -0.5442
19308TIP3    H279340   1.790   5.809  15.065  0.5940 -1.5175  2.0064
19309TIP3   OH279341   2.200   2.468   1.396  0.2086  0.5511  0.1206
19309TIP3    H179342   2.260   2.427   1.334 -1.2298  0.7349 -1.4622
19309TIP3    H279343   2.233   2.557   1.407  1.0417  0.2081  0.4082
19310TIP3   OH279344   4.405   0.765   4.481  0.2725 -0.1994  0.2147
19310TIP3    H179345   4.383   0.780   4.573 -1.6564 -2.4060  0.2243
19310TIP3    H279346   4.483   0.710   4.484 -0.4776 -1.2727  0.6137
19311TIP3   OH279347   0.448   0.073  14.500  0.1502  0.2705  0.6582
19311TIP3    H179348   0.493   0.130  14.562  1.6687  0.0722 -0.2077
19311TIP3    H279349   0.412   0.132  14.435 -1.5625  0.4905  1.7413
19312TIP3   OH279350   5.917   5.377   5.816  0.0953 -0.0498  0.2611
19312TIP3    H179351   5.987   5.312   5.822 -0.7338 -0.8574  2.3726
19312TIP3    H279352   5.845   5.331   5.775 -0.2720 -0.2817  1.1440
19313TIP3   OH279353   6.108   2.709  13.165 -0.0881  0.5779  0.4416
19313TIP3    H179354   6.199   2.735  13.182  0.0892  0.5260 -0.4215
19313TIP3    H279355   6.115   2.631  13.110 -0.6467 -0.1404  1.3582
19314TIP3   OH279356   2.349   2.469  16.068  0.0223  0.1632 -0.2113
19314TIP3    H179357   2.351   2.531  16.141  1.7784 -0.2210  0.1051
19314TIP3    H279358   2.304   2.515  15.998 -2.7409  0.1725  1.4078
19315TIP3   OH279359   4.387   2.935  14.688 -0.4413 -0.3078  0.0425
19315TIP3    H179360   4.300   2.921  14.727 -0.9563  0.4471 -0.8056
19315TIP3    H279361   4.402   2.856  14.635 -0.2003 -0.8532  0.8997
19316TIP3   OH279362   0.680   6.192  15.762 -0.4630  0.1082 -0.5683
19316TIP3    H179363   0.659   6.117  15.818 -0.4326 -0.1048 -0.8385
19316TIP3    H279364   0.679   6.156  15.673 -0.8409  0.5174 -0.7305
19317TIP3   OH279365   0.891   6.594  12.540 -0.3974 -0.4825 -0.0351
19317TIP3    H179366   0.835   6.552  12.475  0.9117 -1.1890 -0.7604
19317TIP3    H279367   0.892   6.686  12.516  0.1942 -0.7587 -1.1523
19318TIP3   OH279368   6.591   4.492   3.578  0.4124 -0.5336 -0.0678
19318TIP3    H179369   6.582   4.399   3.557  0.4609 -0.4893 -0.2930
19318TIP3    H279370   6.522   4.509   3.641 -1.0817 -0.2194 -1.7084
19319TIP3   OH279371   1.220   5.210  14.800  0.4731 -0.1057 -0.1531
19319TIP3    H179372   1.275   5.137  14.827 -0.2008 -0.8154 -0.6416
19319TIP3    H279373   1.136   5.194  14.843  0.2039  0.1797 -0.5608
19320TIP3   OH279374   3.901   3.188   2.943 -0.6304  0.7055  0.6945
19320TIP3    H179375   3.957   3.133   2.888  1.1540  1.3182  1.8098
19320TIP3    H279376   3.817   3.189   2.898 -0.6502 -2.6276  0.4143
19321TIP3   OH279377   0.880   0.837  16.674 -0.1498 -0.9395 -0.0160
19321TIP3    H179378   0.901   0.922  16.714 -0.6643 -0.5350 -0.5816
19321TIP3    H279379   0.880   0.775  16.747 -3.6071  0.2021  1.1217
19322TIP3   OH279380   3.921   3.336  13.076 -0.1812 -0.4695 -0.2150
19322TIP3    H179381   3.836   3.319  13.035 -0.0874 -0.9137 -0.2329
19322TIP3    H279382   3.982   3.282  13.026  0.5283  1.6570 -1.7968
19323TIP3   OH279383   1.719   3.719  14.545 -0.4296  0.0746  0.5546
19323TIP3    H179384   1.777   3.766  14.604  0.0263 -0.0723  0.2337
19323TIP3    H279385   1.774   3.649  14.509 -0.4896  0.5747 -0.5544
19324TIP3   OH279386   0.354   3.040   5.528  0.4691 -0.0343 -0.2673
19324TIP3    H179387   0.338   3.134   5.528  2.3575  0.3240 -0.9430
19324TIP3    H279388   0.421   3.027   5.462  0.5330 -1.8182  0.0976
19325TIP3   OH279389   1.600   5.814  11.162  0.0355  0.0314 -1.3180
19325TIP3    H179390   1.624   5.839  11.073 -0.1385  2.1219 -0.8388
19325TIP3    H279391   1.555   5.891  11.197 -0.9447 -1.1772  0.1905
19326TIP3   OH279392   3.597   1.490  12.183  0.0605 -0.5253 -0.4754
19326TIP3    H179393   3.681   1.446  12.178  0.1293 -0.5663  0.8138
19326TIP3    H279394   3.543   1.446  12.117  0.8917 -0.8142 -0.9784
19327TIP3   OH279395   1.147   3.838   4.487 -0.8093  0.3227 -0.2435
19327TIP3    H179396   1.154   3.754   4.534 -0.1819  2.0034  2.9430
19327TIP3    H279397   1.234   3.851   4.449 -0.8630 -0.3711 -0.6202
19328TIP3   OH279398   6.201   4.225  11.534  0.2633  0.2917  0.1966
19328TIP3    H179399   6.190   4.194  11.624 -0.8933  1.0494  0.3385
19328TIP3    H279400   6.153   4.307  11.531  0.1980  0.2300 -1.1458
19329TIP3   OH279401   6.553   0.079  12.071 -0.1711 -0.4453 -0.1709
19329TIP3    H179402   6.553   0.132  12.151  1.1589  1.7101 -1.4945
19329TIP3    H279403   6.642   0.044  12.066 -0.2499 -0.5656 -0.7043
19330TIP3   OH279404   5.091   5.944  14.431  0.0247  0.7268 -0.1775
19330TIP3    H179405   5.163   5.884  14.414 -0.0756  0.8962 -1.2813
19330TIP3    H279406   5.066   5.927  14.522  2.9809  2.2970  1.0605
19331TIP3   OH279407   0.587   0.686   5.582 -0.2361 -0.3469 -0.2827
19331TIP3    H179408   0.575   0.601   5.539 -0.2484 -0.1986 -0.5772
19331TIP3    H279409   0.499   0.725   5.582 -0.3733 -0.6409  0.5135
19332TIP3   OH279410   3.953   4.661  13.699 -0.0796 -0.1563 -0.2949
19332TIP3    H179411   3.943   4.681  13.793 -2.3828 -0.1656 -0.4747
19332TIP3    H279412   4.028   4.602  13.695 -0.2420 -0.5677  1.6221
19333TIP3   OH279413   3.117   2.712  16.554  0.4010 -0.0421  0.1306
19333TIP3    H179414   3.141   2.715  16.462 -0.4837  0.2911 -0.1055
19333TIP3    H279415   3.085   2.800  16.573  4.8876  1.4670  2.0324
19334TIP3   OH279416   5.226   5.796   0.211  0.7920 -0.5266  0.2500
19334TIP3    H179417   5.168   5.721   0.200  1.1093 -0.5961 -1.1414
19334TIP3    H279418   5.302   5.775   0.157  0.4998  1.1700 -0.9039
19335TIP3   OH279419   1.702   2.420   4.733  0.9552  0.8921 -0.3601
19335TIP3    H179420   1.662   2.347   4.780  0.6066 -0.4816 -2.6388
19335TIP3    H279421   1.660   2.498   4.770 -2.2381 -0.3465 -1.0533
19336TIP3   OH279422   4.169   3.031   4.917 -0.2161 -0.7131  0.1889
19336TIP3    H179423   4.218   2.974   4.857  0.3121 -1.2826  1.1517
19336TIP3    H279424   4.220   3.030   4.998 -1.2525 -0.4367  0.8523
19337TIP3   OH279425   3.343   2.400   5.272  0.7267  0.2116  0.1126
19337TIP3    H179426   3.304   2.360   5.195  1.3898 -0.1539 -0.0409
19337TIP3    H279427   3.322   2.493   5.265 -0.6445 -0.0640  0.3643
19338TIP3   OH279428   4.636   3.074   4.331  0.0624  0.1765  0.6772
19338TIP3    H179429   4.698   3.034   4.392  0.7255 -1.1809 -0.8181
19338TIP3    H279430   4.686   3.146   4.291  0.9400 -1.2432 -0.9138
19339TIP3   OH279431   6.166   0.428  17.096  0.6436 -0.1901 -0.7079
19339TIP3    H179432   6.097   0.377  17.053 -0.1057 -1.1120  1.4394
19339TIP3    H279433   6.205   0.479  17.025 -2.7027  0.9628 -1.9704
19340TIP3   OH279434   5.240   2.593  16.770 -0.1099 -0.2032 -0.0569
19340TIP3    H179435   5.236   2.498  16.767  1.8043 -0.3141 -0.4311
19340TIP3    H279436   5.262   2.613  16.861  1.4862 -0.2767 -0.3896
19341TIP3   OH279437   0.034   5.419  16.175 -0.3103 -1.5119  0.2343
19341TIP3    H179438   0.028   5.349  16.240  0.7118 -1.0923  0.8106
19341TIP3    H279439   0.082   5.380  16.102  1.8573 -0.9523  1.2847
19342TIP3   OH279440   6.492   1.304   4.130 -0.0150  0.4609  0.2127
19342TIP3    H179441   6.498   1.275   4.221  0.1261 -1.9516 -0.5087
19342TIP3    H279442   6.532   1.234   4.080 -0.6225  1.4719 -1.7833
19343TIP3   OH279443   6.757   0.116   4.752  0.1499  0.3583  0.0985
19343TIP3    H179444   6.844   0.078   4.763 -0.8025 -1.9707  0.1174
19343TIP3    H279445   6.713   0.099   4.835 -0.3739  1.4540  0.0604
19344TIP3   OH279446   4.177   5.759   5.011 -0.0707  0.2008 -0.0266
19344TIP3    H179447   4.235   5.835   5.012 -1.0623  1.0470 -1.4142
19344TIP3    H279448   4.187   5.722   4.924  0.1816 -1.1145  0.5395
19345TIP3   OH279449   0.305   0.274   3.448 -0.0266 -0.5137 -0.0613
19345TIP3    H179450   0.377   0.262   3.386 -1.5472 -1.0960 -1.8350
19345TIP3    H279451   0.231   0.230   3.406 -1.9067  1.6761  0.7587
19346TIP3   OH279452   5.654   0.445  15.572 -0.2099  0.1112 -0.0476
19346TIP3    H179453   5.650   0.386  15.497 -0.0341  0.0177  0.0177
19346TIP3    H279454   5.575   0.424  15.622 -1.0755  1.1324 -0.9196
19347TIP3   OH279455   1.322   2.964   1.027  0.1326 -0.7201 -0.0163
19347TIP3    H179456   1.338   2.882   1.072  0.4162  0.3054  1.8324
19347TIP3    H279457   1.393   3.022   1.054  0.1615  0.0471 -1.5720
19348TIP3   OH279458   4.049   4.051  13.757  0.0191 -0.0888  0.0596
19348TIP3    H179459   4.083   4.098  13.681  2.2655 -1.0181  0.4362
19348TIP3    H279460   4.067   3.959  13.739 -3.0125 -0.7733 -0.0119
19349TIP3   OH279461   4.263   5.307  16.479 -0.0014 -0.6103 -0.0040
19349TIP3    H179462   4.318   5.383  16.496  1.4524 -1.5083 -0.4289
19349TIP3    H279463   4.176   5.333  16.506  0.6334  0.8859  0.7038
19350TIP3   OH279464   5.503   1.656   4.094  0.3546 -0.2150 -0.2630
19350TIP3    H179465   5.587   1.701   4.083  0.0529  0.7043  0.9922
19350TIP3    H279466   5.525   1.563   4.085  1.1536  0.0934 -1.9263
19351TIP3   OH279467   5.691   5.356  14.121  0.1752 -0.4537 -0.2825
19351TIP3    H179468   5.664   5.398  14.040  0.2682  0.8610  0.3358
19351TIP3    H279469   5.662   5.265  14.112  1.2375 -0.6532 -2.2626
19352TIP3   OH279470   4.603   1.483  15.366  0.3925  0.8709 -0.2069
19352TIP3    H179471   4.689   1.524  15.374  1.4334 -1.2142 -0.0221
19352TIP3    H279472   4.566   1.489  15.454  1.7187 -0.9359  0.5415
19353TIP3   OH279473   5.341   2.611  15.627 -0.0678 -0.7035  0.4632
19353TIP3    H179474   5.362   2.517  15.624 -0.8382 -0.8763  0.0524
19353TIP3    H279475   5.336   2.637  15.535 -1.4987 -0.6623  0.5270
19354TIP3   OH279476   5.534   1.406   4.388  0.0240 -0.6806  0.2047
19354TIP3    H179477   5.528   1.419   4.293 -1.3450 -2.2073  0.0290
19354TIP3    H279478   5.480   1.475   4.425  2.0295  1.0824  0.0374
19355TIP3   OH279479   2.245   5.987  13.610 -0.1934  0.0304 -0.2974
19355TIP3    H179480   2.329   6.016  13.575 -0.1248  0.6595  0.3585
19355TIP3    H279481   2.220   5.912  13.556  1.4993 -1.0979  0.4125
19356TIP3   OH279482   0.793   4.464  16.013  0.3734  0.1499  0.5985
19356TIP3    H179483   0.731   4.415  15.960  0.7489 -1.0086  1.2031
19356TIP3    H279484   0.864   4.486  15.953  1.4456 -2.3167  0.8461
19357TIP3   OH279485   2.645   2.233   2.267 -0.0625 -0.2445  0.5832
19357TIP3    H179486   2.623   2.152   2.220 -0.4677  1.1980 -1.8899
19357TIP3    H279487   2.712   2.274   2.213 -1.1710  1.9360  0.7565
19358TIP3   OH279488   6.009   1.004   4.417 -0.0766  0.2798  0.0368
19358TIP3    H179489   6.041   0.961   4.338  0.7363  0.0658  0.4796
19358TIP3    H279490   6.063   1.083   4.425 -0.2376  0.3598  0.3216
19359TIP3   OH279491   4.894   2.389   1.757 -0.0689  0.5957 -0.0815
19359TIP3    H179492   4.951   2.447   1.708  0.4019 -2.0245 -2.9501
19359TIP3    H279493   4.953   2.327   1.800 -0.5677 -1.0457 -1.6239
19360TIP3   OH279494   2.982   6.122   3.617 -0.3627  0.2000 -0.9434
19360TIP3    H179495   2.959   6.207   3.578 -2.8380  0.7401  1.3533
19360TIP3    H279496   2.916   6.109   3.685  1.8111 -2.1374  0.8966
19361TIP3   OH279497   4.087   2.077  13.118  0.0236 -0.0974  0.5734
19361TIP3    H179498   4.039   2.048  13.040  0.0476  1.2032  0.0566
19361TIP3    H279499   4.019   2.096  13.182 -0.0359 -0.3402  0.5859
19362TIP3   OH279500   6.111   0.922  16.445 -0.2381  0.1915 -0.0413
19362TIP3    H179501   6.062   0.949  16.368  1.3332  2.5741 -0.2843
19362TIP3    H279502   6.132   1.003  16.490 -0.0235 -1.0540  2.2721
19363TIP3   OH279503   4.615   2.467   2.248  0.1623  0.3123 -0.2354
19363TIP3    H179504   4.572   2.437   2.168  1.0303  0.6840 -0.8547
19363TIP3    H279505   4.544   2.505   2.300 -0.6718 -1.3155 -0.1338
19364TIP3   OH279506   5.790   3.544   3.454  0.1953  0.0776 -0.1353
19364TIP3    H179507   5.701   3.558   3.422  0.2300 -1.9213 -1.3482
19364TIP3    H279508   5.796   3.595   3.534 -1.9352  0.5012 -0.1905
19365TIP3   OH279509   6.238   4.095   1.112  0.5595 -0.3440 -0.1655
19365TIP3    H179510   6.184   4.059   1.042  0.1411 -0.6621  0.3164
19365TIP3    H279511   6.318   4.125   1.068 -0.2460  0.6751 -0.9878
19366TIP3   OH279512   4.288   3.266  14.550 -0.0168 -0.0123 -0.0458
19366TIP3    H179513   4.273   3.174  14.530  0.2197 -0.0652  0.0227
19366TIP3    H279514   4.352   3.296  14.485  0.3345 -0.0443  0.2819
19367TIP3   OH279515   4.327   1.269   5.897 -0.5499  0.0267 -0.2213
19367TIP3    H179516   4.345   1.360   5.919  1.2404 -0.3855  0.1576
19367TIP3    H279517   4.301   1.229   5.980  0.3028 -0.1711 -0.0425
19368TIP3   OH279518   0.295   3.837  12.885 -0.2965  0.0563 -0.2147
19368TIP3    H179519   0.228   3.893  12.846 -0.4543 -0.9533 -1.4729
19368TIP3    H279520   0.370   3.845  12.827 -0.2722 -0.9115 -0.3310
19369TIP3   OH279521   3.762   4.416  16.708 -0.4142 -0.6801 -0.4440
19369TIP3    H179522   3.829   4.368  16.757 -1.3118 -2.6935 -1.0684
19369TIP3    H279523   3.797   4.504  16.698  1.5489 -1.3244  0.3588
19370TIP3   OH279524   3.914   0.030   3.754 -0.2017  0.3655  0.3108
19370TIP3    H179525   3.975  -0.033   3.714  0.1628  1.5796 -1.1543
19370TIP3    H279526   3.959   0.059   3.833  1.0010  0.9475 -0.5403
19371TIP3   OH279527   3.644   6.314  11.937 -0.2948  0.2309  0.1025
19371TIP3    H179528   3.714   6.268  11.890 -0.9501 -0.7789  0.0683
19371TIP3    H279529   3.577   6.246  11.951 -0.8056  0.9156  1.0611
19372TIP3   OH279530   1.470   5.703   2.676 -0.1242  0.0120 -0.0203
19372TIP3    H179531   1.481   5.610   2.694  0.2394  0.0584 -0.0086
19372TIP3    H279532   1.533   5.722   2.606 -1.3754 -0.1257 -1.2429
19373TIP3   OH279533   0.529   0.278  12.965  0.4481  0.2056 -0.0374
19373TIP3    H179534   0.557   0.209  12.904  2.4573  0.9951 -0.0729
19373TIP3    H279535   0.446   0.309  12.930 -0.7775 -2.4463  0.2088
19374TIP3   OH279536   1.493   5.066   5.971 -0.1811 -0.6434  0.1098
19374TIP3    H179537   1.408   5.100   6.000  0.3999  0.9518 -0.0115
19374TIP3    H279538   1.489   5.070   5.876  1.2738  2.8024  0.0727
19375TIP3   OH279539   2.057   3.603  13.620  0.2940  0.4743 -0.5286
19375TIP3    H179540   2.008   3.550  13.556  0.6049  1.0437 -1.2538
19375TIP3    H279541   1.990   3.640  13.676 -0.0082  0.1755 -0.6864
19376TIP3   OH279542   1.961   0.814  13.204 -0.3030  0.1242  0.5293
19376TIP3    H179543   1.904   0.809  13.127 -0.5981  0.6549  0.7027
19376TIP3    H279544   2.047   0.837  13.168 -0.3648  0.0430  0.3268
19377TIP3   OH279545   3.534   0.212  12.994  0.4414  0.2951  0.5246
19377TIP3    H179546   3.608   0.173  13.041  3.0445 -0.9306 -3.9921
19377TIP3    H279547   3.497   0.140  12.943 -2.4533  1.4404  0.7775
19378TIP3   OH279548   5.238   6.613  14.553 -0.0989 -0.1454  0.1158
19378TIP3    H179549   5.273   6.525  14.571  0.5190  0.2872  1.0704
19378TIP3    H279550   5.289   6.643  14.478 -1.4315 -1.2183 -1.3112
19379TIP3   OH279551   1.420   4.143   4.012  0.8171  0.2643 -0.4082
19379TIP3    H179552   1.400   4.150   3.919  0.0300 -1.1924 -0.3778
19379TIP3    H279553   1.502   4.192   4.023  0.6901  0.8193 -1.7706
19380TIP3   OH279554   6.601   5.894  11.823  0.3195 -0.5254 -0.5700
19380TIP3    H179555   6.527   5.953  11.832  0.2077 -0.9867  2.6242
19380TIP3    H279556   6.561   5.807  11.810  0.3634 -0.5330 -0.6588
19381TIP3   OH279557   2.549   3.457  15.867 -0.4533 -0.1559 -0.5147
19381TIP3    H179558   2.563   3.527  15.804  2.2541  0.4861  0.6926
19381TIP3    H279559   2.517   3.384  15.814 -0.8563  1.1741 -2.1892
19382TIP3   OH279560   1.950   1.768  13.215  0.2994 -0.6674  0.2597
19382TIP3    H179561   1.862   1.801  13.235  0.6377  0.7952 -0.4784
19382TIP3    H279562   1.972   1.712  13.289 -0.0335  1.4088  2.0511
19383TIP3   OH279563   3.541   1.692  17.171 -0.1504 -0.0311 -0.4128
19383TIP3    H179564   3.503   1.702  17.259  0.4072  0.0961 -0.1845
19383TIP3    H279565   3.554   1.598  17.161 -0.1701 -0.0412 -0.3422
19384TIP3   OH279566   3.601   5.106   5.699 -0.4904 -0.6357  0.7368
19384TIP3    H179567   3.566   5.018   5.714  1.8595 -2.1835 -1.9108
19384TIP3    H279568   3.670   5.116   5.765  2.0800 -2.6662 -1.4218
19385TIP3   OH279569   3.842   4.720   0.440  0.1687 -0.0860  0.2331
19385TIP3    H179570   3.831   4.778   0.365 -1.9632  0.1122  0.6333
19385TIP3    H279571   3.835   4.778   0.516  0.7927 -0.4998  0.6193
19386TIP3   OH279572   0.956   1.976   5.540  0.8093 -0.5729 -0.4842
19386TIP3    H179573   0.954   1.881   5.551 -0.1810 -0.2797  2.8568
19386TIP3    H279574   0.901   1.992   5.463 -1.4796 -2.5838  0.6026
19387TIP3   OH279575   3.093   1.482   0.817  0.3469  0.2228  0.3834
19387TIP3    H179576   3.012   1.462   0.863  0.7672 -0.7004  0.7360
19387TIP3    H279577   3.145   1.532   0.881  0.9080 -1.0122  0.9310
19388TIP3   OH279578   5.358   4.151  11.683 -0.0954  0.3584  0.6754
19388TIP3    H179579   5.263   4.146  11.672 -0.2017  1.3355  1.0253
19388TIP3    H279580   5.387   4.060  11.690 -0.4519 -0.3153 -3.8145
19389TIP3   OH279581   3.210   6.520  15.259 -0.0711  0.0256  0.4285
19389TIP3    H179582   3.190   6.613  15.260  0.1133  0.0637  0.5123
19389TIP3    H279583   3.255   6.506  15.176  2.3374  0.5174  1.5787
19390TIP3   OH279584   4.913   0.506   0.963 -0.0818  0.2851 -0.1319
19390TIP3    H179585   4.996   0.526   1.006 -0.6934  0.9203  0.7857
19390TIP3    H279586   4.883   0.426   1.005 -0.5917  0.8080  0.5271
19391TIP3   OH279587   0.923   3.947   4.940 -0.4518  0.0406 -0.7866
19391TIP3    H179588   0.833   3.978   4.932 -0.9123 -0.9432  0.1743
19391TIP3    H279589   0.924   3.863   4.895 -0.3681 -0.5429  0.2518
19392TIP3   OH279590   0.059   6.225  11.772 -0.4536 -0.1191 -0.7979
19392TIP3    H179591   0.056   6.296  11.708 -0.8820  0.4680 -0.1370
19392TIP3    H279592   0.115   6.158  11.731 -0.6771  0.2664 -1.7512
19393TIP3   OH279593   3.881   6.128  16.869  0.3442 -0.1781  0.4419
19393TIP3    H179594   3.805   6.105  16.922  0.6797  1.3059  1.6161
19393TIP3    H279595   3.848   6.190  16.804  0.8998  2.3478  2.4319
19394TIP3   OH279596   6.430   1.678  13.748 -0.1776  0.2672 -0.3437
19394TIP3    H179597   6.503   1.685  13.687 -1.1184  1.7536 -1.3842
19394TIP3    H279598   6.467   1.700  13.833  0.8815 -0.4935 -0.5991
19395TIP3   OH279599   2.751   1.471   0.916  0.0666 -0.4512 -0.4566
19395TIP3    H179600   2.733   1.427   0.833  1.1825 -1.0930 -0.3861
19395TIP3    H279601   2.830   1.428   0.949  1.8473  2.2749 -0.8686
19396TIP3   OH279602   1.855   5.139  13.101  0.3926 -0.5220 -0.5898
19396TIP3    H179603   1.854   5.152  13.006  2.1660 -0.8864 -0.6989
19396TIP3    H279604   1.897   5.218  13.135  2.1855 -1.4831 -0.3953
19397TIP3   OH279605   4.602   1.222  10.924  0.3828 -0.1513  0.6449
19397TIP3    H179606   4.537   1.227  10.994  0.2550  0.7659  0.4694
19397TIP3    H279607   4.558   1.261  10.848  1.6426  1.9039  0.9128
19398TIP3   OH279608   4.238   6.536  11.835 -0.5687  0.0047  0.0773
19398TIP3    H179609   4.296   6.612  11.825  2.2872 -1.9998 -0.0909
19398TIP3    H279610   4.160   6.570  11.878 -0.0588  3.2544 -1.2875
19399TIP3   OH279611   0.065   1.861   6.159  0.5983 -0.4244  0.1683
19399TIP3    H179612  -0.021   1.819   6.158  1.3706 -2.1093 -1.5240
19399TIP3    H279613   0.098   1.847   6.248  0.1599 -2.0402  0.1103
19400TIP3   OH279614   3.450   6.542   3.099 -0.7269  0.1289  0.1344
19400TIP3    H179615   3.417   6.613   3.044 -1.9944  0.1063  0.8342
19400TIP3    H279616   3.465   6.583   3.184  2.2704  0.4185 -0.4371
19401TIP3   OH279617   0.773   3.924  12.697 -0.5896  0.3333  0.9137
19401TIP3    H179618   0.864   3.929  12.667 -1.2743  2.3900 -1.0858
19401TIP3    H279619   0.777   3.951  12.789  1.1312 -2.5555  1.8178
19402TIP3   OH279620   2.354   1.644  13.077 -0.1668 -0.0054 -0.2273
19402TIP3    H179621   2.402   1.676  13.001 -0.7522  0.6675 -0.3261
19402TIP3    H279622   2.262   1.650  13.052 -0.3201 -1.0620  0.0442
19403TIP3   OH279623   4.707   4.568   4.351 -0.4511 -0.4932  0.4003
19403TIP3    H179624   4.693   4.635   4.284  0.7593 -0.0594  0.5600
19403TIP3    H279625   4.775   4.512   4.315 -0.7536 -1.0532  0.6937
19404TIP3   OH279626   5.162   1.308  16.468 -0.0115 -0.3117 -0.1656
19404TIP3    H179627   5.095   1.305  16.536 -0.9399 -0.3228 -1.0632
19404TIP3    H279628   5.244   1.318  16.516 -0.7847  1.3057  0.8950
19405TIP3   OH279629   6.730   1.178  12.463 -0.3719 -0.2787  0.1333
19405TIP3    H179630   6.759   1.127  12.387 -0.1277  0.6892 -0.4460
19405TIP3    H279631   6.778   1.141  12.536 -0.9346 -1.5197 -0.0942
19406TIP3   OH279632   1.035   3.587   3.994  0.3570 -0.4344 -0.1871
19406TIP3    H179633   1.085   3.650   4.046  0.1808  0.1895 -0.7533
19406TIP3    H279634   0.945   3.596   4.024  0.1754  0.2602 -0.8951
19407TIP3   OH279635   5.686   6.088   0.740  0.2182 -0.3632 -0.1728
19407TIP3    H179636   5.714   6.154   0.804  0.3855  0.2725 -0.8795
19407TIP3    H279637   5.604   6.123   0.704  0.1052 -0.7320 -0.2800
19408TIP3   OH279638   0.085   3.299   4.992 -0.5877 -0.2040  0.0890
19408TIP3    H179639   0.106   3.392   4.980  0.0217 -0.4174 -0.5475
19408TIP3    H279640  -0.009   3.298   5.013 -0.9153  0.4554 -1.2924
19409TIP3   OH279641   6.409   3.294   4.567 -0.1270  0.0354 -0.2443
19409TIP3    H179642   6.400   3.373   4.514 -2.4219 -0.3211 -0.4515
19409TIP3    H279643   6.326   3.249   4.558  1.1314 -2.4795 -0.1791
19410TIP3   OH279644   1.630   5.818   0.671  0.3272  0.3842  0.4906
19410TIP3    H179645   1.677   5.787   0.749 -1.5594  0.1725  1.5949
19410TIP3    H279646   1.680   5.895   0.643  1.9324 -0.4438  0.9573
19411TIP3   OH279647   6.138   0.055   6.141  0.6009  0.2114 -0.1684
19411TIP3    H179648   6.059   0.101   6.112 -0.1530  0.7589  2.4179
19411TIP3    H279649   6.201   0.125   6.159  0.7562 -0.0353  0.2664
19412TIP3   OH279650   6.140   0.207  10.820 -0.1486  0.2672  0.4682
19412TIP3    H179651   6.138   0.301  10.803  1.4783  0.3924  0.8075
19412TIP3    H279652   6.053   0.176  10.793  0.1120  1.4491 -2.0343
19413TIP3   OH279653   2.444   1.547  12.518 -0.3046 -0.3869 -0.6426
19413TIP3    H179654   2.478   1.475  12.464 -0.5319 -2.3104  1.6197
19413TIP3    H279655   2.478   1.626  12.477 -1.4046 -1.5821 -4.2648
19414TIP3   OH279656   6.608   4.512  16.109 -0.2359 -0.0450 -0.4238
19414TIP3    H179657   6.535   4.540  16.053  0.0626  0.6865 -0.4606
19414TIP3    H279658   6.660   4.454  16.053  0.0132  0.6160 -0.8978
19415TIP3   OH279659   5.910   4.907   0.026  0.0591 -0.1829  0.2288
19415TIP3    H179660   5.984   4.925   0.084 -1.2681  0.9676  1.6681
19415TIP3    H279661   5.949   4.875  -0.055  2.2528  2.1869  0.2480
19416TIP3   OH279662   5.290   3.483   5.675 -0.5603 -0.2616 -0.8163
19416TIP3    H179663   5.270   3.477   5.768 -1.7222  1.9023 -0.8581
19416TIP3    H279664   5.252   3.403   5.637 -3.6379  0.6353  0.0719
19417TIP3   OH279665   2.145   3.275  13.284 -0.6741  0.1149 -0.6438
19417TIP3    H179666   2.098   3.233  13.211  0.0948 -2.0541  0.0107
19417TIP3    H279667   2.109   3.233  13.362  0.2373  0.6274  0.0614
19418TIP3   OH279668   4.425   5.191   5.589 -0.5100  0.7915  0.4627
19418TIP3    H179669   4.414   5.175   5.495  2.1004 -1.9619  0.4669
19418TIP3    H279670   4.392   5.111   5.630 -0.7719  1.5978  1.8597
19419TIP3   OH279671   4.012   3.466  16.518 -0.6094  0.1386  0.2308
19419TIP3    H179672   3.987   3.463  16.426  1.2821 -1.9052 -0.3197
19419TIP3    H279673   4.107   3.475  16.517 -0.4653 -0.7181  1.9521
19420TIP3   OH279674   1.829   1.101   4.981  0.5356 -0.0451  0.1543
19420TIP3    H179675   1.781   1.020   4.966  0.1366  0.3349 -0.7498
19420TIP3    H279676   1.836   1.141   4.894  1.4032  0.5118  0.4629
19421TIP3   OH279677   1.499   6.490   2.690  0.2632  0.3512 -0.2398
19421TIP3    H179678   1.505   6.395   2.679 -0.3478  0.1779  0.7562
19421TIP3    H279679   1.573   6.512   2.747 -0.8426  0.1146  1.3696
19422TIP3   OH279680   4.572   5.642   3.494 -0.0757 -0.7970  0.2604
19422TIP3    H179681   4.503   5.576   3.504  0.2310 -1.2271 -0.3380
19422TIP3    H279682   4.526   5.719   3.460 -0.6499 -0.2478  2.2044
19423TIP3   OH279683   1.959   6.449   2.139  0.1256 -0.3015  0.4871
19423TIP3    H179684   2.037   6.492   2.174  1.6145 -2.1198 -0.4406
19423TIP3    H279685   1.888   6.479   2.196  1.5447  1.0557  1.6456
19424TIP3   OH279686   0.063   0.980   4.983  0.4469  0.3914  0.4110
19424TIP3    H179687   0.032   0.925   4.912 -0.1280  1.6572 -0.3511
19424TIP3    H279688   0.096   1.059   4.940 -0.8772  1.6403  1.5820
19425TIP3   OH279689   6.140   0.783   2.464  0.3323  0.4187 -0.4288
19425TIP3    H179690   6.060   0.731   2.478  0.6911  0.5607  3.0449
19425TIP3    H279691   6.211   0.727   2.495  1.2131  1.4482 -0.5407
19426TIP3   OH279692   6.419   5.984   1.988  0.6379 -0.4450 -0.5640
19426TIP3    H179693   6.372   6.068   1.992  2.6741  0.7261  0.3074
19426TIP3    H279694   6.434   5.970   1.894  3.3081  2.0818 -0.6903
19427TIP3   OH279695   1.426   0.555  14.489  0.1221 -0.0911  0.0336
19427TIP3    H179696   1.515   0.521  14.486  0.2038  0.1368 -0.2297
19427TIP3    H279697   1.388   0.529  14.405  0.5610  1.4403 -0.6952
19428TIP3   OH279698   3.746   5.678   0.821  0.5607  0.2988  0.3329
19428TIP3    H179699   3.797   5.721   0.890  2.1670 -0.9442 -0.0134
19428TIP3    H279700   3.720   5.749   0.762  2.2014  0.9488  0.3517
19429TIP3   OH279701   0.330   1.555   5.885 -0.3063  0.0235  0.0802
19429TIP3    H179702   0.363   1.616   5.952  0.2277 -0.9897  0.7660
19429TIP3    H279703   0.401   1.549   5.821 -0.1625 -0.2423  0.2631
19430TIP3   OH279704   2.191   1.364   0.082 -0.0756 -0.1374 -0.0495
19430TIP3    H179705   2.240   1.371   0.000  1.6379  0.4886  0.9664
19430TIP3    H279706   2.259   1.360   0.150 -1.4473 -0.0822  1.3807
19431TIP3   OH279707   2.518   1.959   3.859  0.1787  0.4115  0.3439
19431TIP3    H179708   2.597   2.012   3.870 -0.4941  1.1816  1.5812
19431TIP3    H279709   2.507   1.953   3.764 -0.6044  3.8663  0.0884
19432TIP3   OH279710   2.525   6.691  13.128 -0.3371 -0.0630 -0.1019
19432TIP3    H179711   2.601   6.740  13.097  1.2440 -0.2201  3.1469
19432TIP3    H279712   2.450   6.748  13.107  1.0923  2.0741  0.3125
19433TIP3   OH279713   1.413   0.762   3.337  0.1585 -0.2747 -0.4107
19433TIP3    H179714   1.399   0.857   3.337 -1.5379 -0.4356 -2.5362
19433TIP3    H279715   1.427   0.739   3.429 -1.9646  1.6926  0.4948
19434TIP3   OH279716   6.371   3.153   1.592  0.5649  0.5006  0.0064
19434TIP3    H179717   6.409   3.141   1.678  0.8311 -0.3249 -0.2242
19434TIP3    H279718   6.425   3.101   1.533  0.8317  1.6315 -0.7869
19435TIP3   OH279719   0.298   4.028  13.915 -0.1944 -0.4700  0.5949
19435TIP3    H179720   0.294   3.933  13.906 -1.3313 -0.4423  0.7534
19435TIP3    H279721   0.390   4.049  13.897 -0.0803 -1.5183 -0.1666
19436TIP3   OH279722   3.294   4.893  15.625 -0.5441  0.0257 -0.2686
19436TIP3    H179723   3.245   4.929  15.552 -0.8066  2.5205  1.0234
19436TIP3    H279724   3.372   4.949  15.631  0.3814 -1.2641  0.2878
19437TIP3   OH279725   3.684   4.193  17.150  0.0159 -0.0235 -0.0296
19437TIP3    H179726   3.708   4.134  17.222 -0.9693 -1.2522 -0.6702
19437TIP3    H279727   3.734   4.272  17.167  0.2967 -0.5154  1.6608
19438TIP3   OH279728   4.991   4.156   3.891 -0.0373 -0.2260  0.1941
19438TIP3    H179729   4.996   4.107   3.972  0.4077  0.2750  0.4715
19438TIP3    H279730   4.955   4.094   3.827 -0.5216 -0.5769  0.8012
19439TIP3   OH279731   2.450   0.776   0.646 -0.2509 -0.4198  0.1372
19439TIP3    H179732   2.438   0.771   0.741  0.3035 -1.3617  0.1706
19439TIP3    H279733   2.403   0.855   0.620  0.2824  0.3189  1.3099
19440TIP3   OH279734   0.093   0.062  13.951 -0.7260  0.5221 -0.4751
19440TIP3    H179735   0.152   0.125  13.910 -0.7529  1.4614  0.8350
19440TIP3    H279736   0.123  -0.023  13.921  1.5662  0.9302  0.4068
19441TIP3   OH279737   6.137   2.284  17.276  0.0637 -0.1160  0.0074
19441TIP3    H179738   6.166   2.206  17.324  2.3141  1.3796  1.2828
19441TIP3    H279739   6.077   2.328  17.337 -2.5057 -1.5266 -1.3329
19442TIP3   OH279740   0.187   4.460  15.257 -0.6483  0.4586  0.3726
19442TIP3    H179741   0.198   4.553  15.238 -1.2122  0.7974  1.6302
19442TIP3    H279742   0.185   4.419  15.171  0.1090  1.5397 -0.1924
19443TIP3   OH279743   4.343   4.305   5.171 -0.0339  0.4004 -0.3073
19443TIP3    H179744   4.313   4.224   5.130 -0.7595  0.3807  0.2428
19443TIP3    H279745   4.295   4.374   5.125  0.7498  0.5481 -0.9286
19444TIP3   OH279746   4.546   3.119   4.048  0.1239 -0.3849  0.4697
19444TIP3    H179747   4.608   3.168   4.101 -0.5928  0.8359  0.2073
19444TIP3    H279748   4.543   3.166   3.964 -1.2363 -0.3387  0.5217
19445TIP3   OH279749   1.755   5.786  15.531  0.2433  0.1462  0.7298
19445TIP3    H179750   1.763   5.881  15.521  0.1285  0.1430  0.6120
19445TIP3    H279751   1.825   5.751  15.476 -1.8659  0.0413 -2.0854
19446TIP3   OH279752   6.601   0.410  14.361  0.1851 -0.4691 -0.3271
19446TIP3    H179753   6.522   0.370  14.325  0.1202 -0.0704 -0.6360
19446TIP3    H279754   6.573   0.450  14.444  0.0365 -0.2421 -0.4841
19447TIP3   OH279755   1.512   1.896  17.224 -0.1474 -0.4743 -0.0748
19447TIP3    H179756   1.583   1.888  17.288 -0.7498 -2.1623  0.4437
19447TIP3    H279757   1.543   1.848  17.147 -1.3396 -2.8543  0.7968
19448TIP3   OH279758   0.969   6.676  11.445  0.0552  0.1769 -0.3782
19448TIP3    H179759   0.971   6.598  11.501  0.6488 -0.3051 -1.0592
19448TIP3    H279760   0.935   6.645  11.361  0.5767  0.5916 -0.7480
19449TIP3   OH279761   6.227   1.920  12.169 -0.7771 -0.1807  0.7107
19449TIP3    H179762   6.176   2.001  12.173  0.5045  0.7059 -0.1112
19449TIP3    H279763   6.233   1.901  12.076  3.7542  2.0648  0.2639
19450TIP3   OH279764   2.352   2.854   5.584  0.1741 -0.5170  0.2872
19450TIP3    H179765   2.298   2.846   5.505 -0.8808 -0.1620  0.9392
19450TIP3    H279766   2.435   2.813   5.562  0.0308 -0.0791 -1.1336
19451TIP3   OH279767   0.365   2.242  15.381  0.4213  0.3595  0.0767
19451TIP3    H179768   0.333   2.174  15.440 -0.1630  0.5467 -0.0181
19451TIP3    H279769   0.401   2.194  15.306  1.5952  0.1019  0.7733
19452TIP3   OH279770   3.972   5.763  13.992  0.0877 -0.2258  0.4189
19452TIP3    H179771   4.033   5.815  13.939  0.4972  0.2188  1.2862
19452TIP3    H279772   3.959   5.683  13.943  0.5869  0.1037 -0.2686
19453TIP3   OH279773   3.118   2.138  11.758 -0.0510 -0.4644  0.0069
19453TIP3    H179774   3.042   2.106  11.709 -0.9254 -0.9085  1.5964
19453TIP3    H279775   3.157   2.203  11.700 -1.8560  0.0534 -0.7178
19454TIP3   OH279776   4.267   4.157  15.262  0.6478  0.0003  0.0453
19454TIP3    H179777   4.188   4.165  15.316  0.6764 -2.2771  0.5543
19454TIP3    H279778   4.236   4.127  15.177  0.9438 -1.0652  0.2969
19455TIP3   OH279779   1.777   1.809  17.131  0.7039 -0.5652  0.0078
19455TIP3    H179780   1.704   1.759  17.094  0.2601 -0.4650  0.7240
19455TIP3    H279781   1.848   1.798  17.068  0.2642 -1.1747 -0.3932
19456TIP3   OH279782   4.454   6.358  16.376 -0.1818 -0.1234 -0.8709
19456TIP3    H179783   4.544   6.372  16.407 -0.6379 -0.3171  0.6379
19456TIP3    H279784   4.464   6.313  16.293  1.1233  0.0581 -0.8401
19457TIP3   OH279785   3.712   2.642  10.959 -0.1315  0.5394  0.0324
19457TIP3    H179786   3.722   2.732  10.989 -0.2180  0.9054 -1.0008
19457TIP3    H279787   3.792   2.598  10.987 -0.3714  0.7480  1.1225
19458TIP3   OH279788   4.268   4.588  16.578  0.4111  0.1360 -0.0299
19458TIP3    H179789   4.305   4.553  16.497 -0.6980  2.3838 -1.6301
19458TIP3    H279790   4.314   4.542  16.648  1.2614 -2.0702 -1.9026
19459TIP3   OH279791   3.665   6.585  11.915 -0.2164  0.3211  0.0498
19459TIP3    H179792   3.605   6.589  11.989 -0.1468 -0.4377  0.1557
19459TIP3    H279793   3.654   6.497  11.880  1.0245  0.0738  0.2352
19460TIP3   OH279794   6.379   0.401  12.452 -0.2536  0.0006  0.2648
19460TIP3    H179795   6.295   0.429  12.416  0.3937  1.1063 -0.4383
19460TIP3    H279796   6.416   0.481  12.489  0.0583 -0.6817  1.4677
19461TIP3   OH279797   1.288   2.256   3.640  0.4642 -0.2279 -0.1153
19461TIP3    H179798   1.241   2.333   3.609  0.1956 -0.9236 -1.5296
19461TIP3    H279799   1.232   2.219   3.709 -3.0291 -2.9219 -3.8986
19462TIP3   OH279800   2.975   5.085  12.219 -0.4221 -0.6817 -0.2111
19462TIP3    H179801   2.959   5.016  12.154 -0.3843 -0.6174 -0.2884
19462TIP3    H279802   2.928   5.161  12.186  0.8978 -0.1652 -0.9990
19463TIP3   OH279803   5.327   4.179  12.820  0.1956  0.3706  0.5988
19463TIP3    H179804   5.309   4.214  12.733 -1.3056 -0.6229  0.4910
19463TIP3    H279805   5.394   4.112  12.805 -0.4161 -0.1457  0.1297
19464TIP3   OH279806   6.640   3.608   1.599  0.0264 -0.1782 -0.2397
19464TIP3    H179807   6.604   3.697   1.594  0.9927  0.4859  2.5988
19464TIP3    H279808   6.735   3.621   1.595  0.3422 -0.6548  2.9868
19465TIP3   OH279809   2.447   1.369  11.813 -0.0716  0.3713  0.0272
19465TIP3    H179810   2.427   1.366  11.906  0.7074 -0.8479  0.1771
19465TIP3    H279811   2.543   1.376  11.809 -0.2006  2.4969 -0.6906
19466TIP3   OH279812   0.305   4.926  16.440  0.0522  0.1461 -0.3683
19466TIP3    H179813   0.371   4.907  16.373 -0.9054  1.5463 -1.7892
19466TIP3    H279814   0.315   5.020  16.458  0.3999 -0.2272  1.6353
19467TIP3   OH279815   3.276   4.486  10.935 -0.7387 -0.0132  0.4998
19467TIP3    H179816   3.259   4.465  10.843  0.3304  2.1881 -0.2729
19467TIP3    H279817   3.325   4.569  10.932 -1.2747  0.4845  3.0825
19468TIP3   OH279818   6.444   5.415  14.585  0.3280 -0.3085  0.4532
19468TIP3    H179819   6.350   5.410  14.605 -0.2592  0.7873 -1.7173
19468TIP3    H279820   6.462   5.509  14.579  0.8838 -0.4957 -1.7939
19469TIP3   OH279821   5.073   0.766   4.488 -0.8416  0.1534  0.9628
19469TIP3    H179822   5.062   0.742   4.396  0.7257  0.4542  0.6654
19469TIP3    H279823   5.130   0.698   4.524 -1.9372 -0.3022  1.8973
19470TIP3   OH279824   5.736   5.218   5.683  0.3404 -0.2629 -0.3908
19470TIP3    H179825   5.676   5.164   5.734  0.9989 -0.6219  0.0331
19470TIP3    H279826   5.774   5.158   5.619 -0.4795  0.1878 -1.3102
19471TIP3   OH279827   5.714   3.688  14.346  0.3078 -0.3496  0.1854
19471TIP3    H179828   5.695   3.654  14.258 -0.2609 -0.9619  0.5457
19471TIP3    H279829   5.672   3.774  14.347  1.1798  0.0999 -0.4905
19472TIP3   OH279830   0.449   5.790  14.000  0.4853  0.1259  0.2232
19472TIP3    H179831   0.536   5.793  14.039  1.1045  1.1675 -1.1860
19472TIP3    H279832   0.460   5.826  13.912 -0.5710 -3.4125 -1.5511
19473TIP3   OH279833   3.345   4.186   0.963 -0.0557  0.0873  0.4026
19473TIP3    H179834   3.260   4.186   0.919 -0.2758 -0.2287  0.8350
19473TIP3    H279835   3.408   4.174   0.891 -0.1875  2.7036 -0.2575
19474TIP3   OH279836   6.424   6.411  13.967  0.1218 -0.0424  0.7650
19474TIP3    H179837   6.461   6.323  13.974 -0.3093 -0.1972  1.1148
19474TIP3    H279838   6.354   6.402  13.902 -0.3101 -0.0918  1.2332
19475TIP3   OH279839   4.749   1.056  16.759 -0.3616 -0.0129  0.1849
19475TIP3    H179840   4.742   0.961  16.767  0.0585 -0.0149  0.5962
19475TIP3    H279841   4.710   1.076  16.674 -3.0551 -0.2478  1.2695
19476TIP3   OH279842   2.026   5.141   2.589 -0.0526  0.2169 -0.0414
19476TIP3    H179843   2.114   5.119   2.620 -0.2907 -1.6661 -0.5913
19476TIP3    H279844   2.033   5.233   2.561  1.5831  0.2641  0.4107
19477TIP3   OH279845   2.832   5.324  12.446 -0.1667 -0.4133  0.1273
19477TIP3    H179846   2.815   5.284  12.532 -0.5923 -0.8024 -0.1279
19477TIP3    H279847   2.805   5.256  12.383  0.3626 -0.2187 -0.3115
19478TIP3   OH279848   2.220   2.269   1.987 -0.6740  0.4198  0.3171
19478TIP3    H179849   2.278   2.342   2.009  0.6295 -0.1250 -1.0748
19478TIP3    H279850   2.258   2.231   1.908 -1.0210 -2.0809  1.2380
19479TIP3   OH279851   1.613   5.894  13.573 -0.6268  0.0808  0.1821
19479TIP3    H179852   1.542   5.918  13.514 -1.8130 -1.3163  0.9911
19479TIP3    H279853   1.685   5.870  13.514 -1.2071  0.3310 -0.6609
19480TIP3   OH279854   4.894   3.920  14.936  0.0880  0.8250 -0.0168
19480TIP3    H179855   4.981   3.904  14.973  0.4215 -0.6496 -1.3266
19480TIP3    H279856   4.911   3.958  14.850 -0.4792 -0.8258 -0.8964
19481TIP3   OH279857   1.499   4.862   0.427 -0.0762 -0.4752  0.7112
19481TIP3    H179858   1.579   4.872   0.376 -1.1722 -0.9072 -1.1661
19481TIP3    H279859   1.523   4.803   0.498  1.3747 -0.2116  0.4627
19482TIP3   OH279860   6.506   2.027   1.486 -0.2014  0.5890  0.6134
19482TIP3    H179861   6.584   2.046   1.538 -0.8874  0.7128  1.6362
19482TIP3    H279862   6.539   1.984   1.407  0.8043 -0.4570  1.5732
19483TIP3   OH279863   0.518   0.289   2.529 -0.0359  0.0850 -0.4889
19483TIP3    H179864   0.576   0.213   2.523 -0.0333  0.0104  0.4141
19483TIP3    H279865   0.545   0.333   2.609 -1.9393 -0.5474  0.5472
19484TIP3   OH279866   5.690   3.424   3.158  0.4768 -0.6840 -0.2936
19484TIP3    H179867   5.605   3.437   3.199  0.2394  0.8007 -1.2027
19484TIP3    H279868   5.722   3.341   3.194 -1.1531 -1.0428  0.3753
19485TIP3   OH279869   6.549   1.605   0.881 -0.2842 -0.1464 -0.7673
19485TIP3    H179870   6.469   1.582   0.834 -1.3535 -1.2893  1.4619
19485TIP3    H279871   6.526   1.683   0.930  0.1125 -0.2001 -0.4921
19486TIP3   OH279872   5.780   4.638   0.003 -0.1190 -0.5834  0.2849
19486TIP3    H179873   5.811   4.601   0.085  0.5815  0.4146  0.4799
19486TIP3    H279874   5.802   4.731   0.008  0.3840 -0.5923 -1.2382
19487TIP3   OH279875   4.413   0.023   2.350 -0.0820  0.4582  0.0051
19487TIP3    H179876   4.414  -0.070   2.329  3.2493  0.1093  1.0990
19487TIP3    H279877   4.340   0.059   2.298 -0.2053 -2.3844 -2.0103
19488TIP3   OH279878   5.701   6.230  16.723  0.5335 -0.1466 -0.2860
19488TIP3    H179879   5.730   6.154  16.774 -0.7937  0.5042  1.5717
19488TIP3    H279880   5.620   6.202  16.681  0.3897  0.0286 -0.1311
19489TIP3   OH279881   0.740   4.329   3.181 -0.2116  0.2356 -0.2623
19489TIP3    H179882   0.733   4.413   3.226 -0.5963 -0.1182  0.3515
19489TIP3    H279883   0.774   4.351   3.094 -1.5450  1.1668 -0.5760
19490TIP3   OH279884   0.941   1.700   5.560 -0.1467 -0.4217 -0.2969
19490TIP3    H179885   0.951   1.624   5.617  0.0807  0.7086  1.2623
19490TIP3    H279886   0.846   1.715   5.558 -0.1404 -0.3456 -0.0472
19491TIP3   OH279887   2.628   6.637  11.662 -0.3708 -0.6493  0.4553
19491TIP3    H179888   2.628   6.685  11.579  2.0000 -0.8036  0.2945
19491TIP3    H279889   2.650   6.704  11.728  3.0517 -1.3483  0.2189
19492TIP3   OH279890   3.303   3.525  17.149 -0.3414  0.1290 -0.2905
19492TIP3    H179891   3.388   3.546  17.112  0.9685 -3.6288  0.1965
19492TIP3    H279892   3.300   3.574  17.231  1.6900 -0.2093  0.0343
19493TIP3   OH279893   1.281   0.800  16.100  0.0482  0.5813 -0.1125
19493TIP3    H179894   1.264   0.713  16.134 -0.9963  0.4384 -0.9653
19493TIP3    H279895   1.293   0.855  16.178 -1.8618  0.1848  0.5047
19494TIP3   OH279896   0.269   3.206   4.783  0.4890  0.5447  0.0231
19494TIP3    H179897   0.220   3.260   4.845  0.2271 -0.3759  0.6445
19494TIP3    H279898   0.292   3.128   4.833  3.1661  1.1779 -0.0284
19495TIP3   OH279899   2.807   4.203   5.149 -0.7505 -0.1822 -0.4727
19495TIP3    H179900   2.712   4.209   5.137 -0.7708 -1.0271 -0.7778
19495TIP3    H279901   2.827   4.110   5.137  0.4802  0.3419 -3.2580
19496TIP3   OH279902   2.458   3.273   0.739  0.0106  0.3186  0.3210
19496TIP3    H179903   2.539   3.322   0.727 -0.2978  1.0968  1.3066
19496TIP3    H279904   2.483   3.182   0.724  1.2725  0.4483  1.4880
19497TIP3   OH279905   5.502   5.804   1.813 -0.0610  0.0191  0.2706
19497TIP3    H179906   5.460   5.745   1.751 -0.1054  2.3265 -2.1073
19497TIP3    H279907   5.575   5.754   1.849 -0.5187 -1.6922 -1.0519
19498TIP3   OH279908   1.232   1.337  16.927 -0.2635 -0.1631 -0.5323
19498TIP3    H179909   1.326   1.330  16.942 -0.3077 -0.1702 -0.2558
19498TIP3    H279910   1.195   1.357  17.013 -0.3975  1.0136 -0.8421
19499TIP3   OH279911   4.851   5.525   0.353 -0.2890 -0.2753  0.6401
19499TIP3    H179912   4.929   5.494   0.309  0.5639  1.4231  0.8593
19499TIP3    H279913   4.783   5.526   0.285  0.2530 -0.4388  0.0920
19500TIP3   OH279914   5.906   0.608  12.163 -0.3654 -0.1296 -0.0804
19500TIP3    H179915   5.921   0.553  12.240 -0.6798  0.3259  0.3091
19500TIP3    H279916   5.811   0.615  12.157 -0.3590 -0.5110 -0.7619
19501TIP3   OH279917   5.860   0.448  11.562  0.3953 -0.4373 -0.0937
19501TIP3    H179918   5.876   0.472  11.471  1.0041 -0.8483 -0.1047
19501TIP3    H279919   5.856   0.531  11.609  1.1844 -0.2589 -0.3277
19502TIP3   OH279920   0.686   5.760   0.554  0.0307  0.2290  0.1143
19502TIP3    H179921   0.743   5.833   0.579  1.2083 -0.5115 -0.3346
19502TIP3    H279922   0.647   5.731   0.636 -0.4773  1.3673  0.2984
19503TIP3   OH279923   0.955   2.524   2.611 -0.0776  0.2461 -0.1484
19503TIP3    H179924   0.928   2.493   2.697  0.1874 -0.5396 -0.3445
19503TIP3    H279925   0.956   2.446   2.556  0.8792  0.5493 -0.5816
19504TIP3   OH279926   1.682   6.045   2.514 -0.3143 -0.7254  0.4158
19504TIP3    H179927   1.634   6.087   2.585  0.0466  3.3347 -1.4912
19504TIP3    H279928   1.635   6.071   2.435  2.8109  0.3387 -1.2479
19505TIP3   OH279929   6.591   1.718  15.294 -0.5574 -0.3755 -0.3248
19505TIP3    H179930   6.540   1.784  15.248 -0.8685 -0.3671  0.0236
19505TIP3    H279931   6.526   1.667  15.343 -0.0743  1.3227  2.3073
19506TIP3   OH279932   4.680   6.309   0.081 -0.1418 -0.1306  0.1994
19506TIP3    H179933   4.724   6.271   0.158 -1.9301 -0.2599  1.2055
19506TIP3    H279934   4.707   6.401   0.082 -0.4978 -0.0150  1.2836
19507TIP3   OH279935   0.121   3.492   1.255  0.2961 -0.3167 -0.2883
19507TIP3    H179936   0.031   3.458   1.258  0.6035 -1.0669  1.6207
19507TIP3    H279937   0.121   3.565   1.318  0.3749  1.4772 -2.2602
19508TIP3   OH279938   6.397   5.948  12.767  0.8072  0.2172 -0.3774
19508TIP3    H179939   6.388   5.853  12.775 -2.1964  0.3129 -1.3575
19508TIP3    H279940   6.350   5.970  12.687  1.3047  2.5737 -0.0983
19509TIP3   OH279941   4.230   0.021  12.602  0.9153  0.3431  0.0760
19509TIP3    H179942   4.222  -0.075  12.605  0.1626  0.3971  0.0461
19509TIP3    H279943   4.176   0.047  12.528  1.9368  0.7259 -0.5514
19510TIP3   OH279944   5.484   1.527  14.863  0.0738 -0.1733 -0.1225
19510TIP3    H179945   5.508   1.562  14.949  0.5931  1.4656 -0.8829
19510TIP3    H279946   5.388   1.525  14.864  0.0877 -1.8957  1.1119
19511TIP3   OH279947   0.330   0.623  11.155 -0.2019  0.5495 -0.3385
19511TIP3    H179948   0.376   0.565  11.216 -0.9857 -0.4509 -0.6743
19511TIP3    H279949   0.391   0.696  11.142  1.3314 -0.7400 -0.7824
19512TIP3   OH279950   6.712   6.058  10.756 -0.2717  0.3809 -0.6912
19512TIP3    H179951   6.787   6.038  10.813  0.4114 -1.9053 -2.2375
19512TIP3    H279952   6.642   6.082  10.816  1.4153  1.7723  0.8597
19513TIP3   OH279953   4.847   1.855  14.073  0.2410 -0.1968 -1.2813
19513TIP3    H179954   4.931   1.899  14.060  0.2022 -0.3812 -2.2637
19513TIP3    H279955   4.856   1.771  14.028  0.0589 -0.9035 -0.0428
19514TIP3   OH279956   3.308   5.929  15.832 -0.0742 -0.2184  0.5786
19514TIP3    H179957   3.279   5.968  15.915  0.9138  0.4502  0.6321
19514TIP3    H279958   3.230   5.928  15.777 -0.6926 -0.4735  1.4413
19515TIP3   OH279959   5.734   6.149  14.325 -0.0041 -0.0016  0.1725
19515TIP3    H179960   5.753   6.057  14.343  0.4502  0.0219 -0.1748
19515TIP3    H279961   5.772   6.165  14.239  3.8878  1.5995  1.9266
19516TIP3   OH279962   0.718   3.500  11.664  0.1559 -0.0522 -0.1397
19516TIP3    H179963   0.654   3.436  11.634  0.8356 -1.0052  0.3735
19516TIP3    H279964   0.674   3.585  11.654 -1.2282 -0.6813  0.3440
19517TIP3   OH279965   4.808   3.457  12.865  0.5528  0.2173 -0.4169
19517TIP3    H179966   4.795   3.363  12.874 -0.1988  0.3482 -0.0716
19517TIP3    H279967   4.902   3.467  12.849  0.7427 -0.5462  0.1570
19518TIP3   OH279968   3.707   3.607   3.658  0.0754 -0.5998  0.1870
19518TIP3    H179969   3.790   3.560   3.656 -0.5491 -1.7542 -2.5510
19518TIP3    H279970   3.673   3.592   3.747  1.4881 -2.4051  0.4814
19519TIP3   OH279971   1.438   4.394  13.433 -0.1732 -0.5614 -0.5189
19519TIP3    H179972   1.482   4.311  13.414  1.5573 -0.1917  1.4785
19519TIP3    H279973   1.369   4.370  13.496 -1.4852 -0.8142 -1.9833
19520TIP3   OH279974   0.857   2.596   6.304 -0.2001  0.1334  0.0226
19520TIP3    H179975   0.813   2.667   6.257  0.2127 -0.5972 -1.5672
19520TIP3    H279976   0.944   2.592   6.266 -0.3250 -1.4235 -0.2012
19521TIP3   OH279977   4.278   1.535   2.842  0.2986 -0.2478  0.0674
19521TIP3    H179978   4.342   1.469   2.870 -0.1889 -0.7909 -0.0773
19521TIP3    H279979   4.313   1.618   2.875  0.3666 -0.7208  1.2263
19522TIP3   OH279980   0.730   5.666  16.130 -0.4633  0.1642  0.0594
19522TIP3    H179981   0.641   5.632  16.135 -0.3175 -0.2537 -0.1282
19522TIP3    H279982   0.770   5.640  16.213 -0.6550  0.7594  0.3421
19523TIP3   OH279983   4.956   6.389  15.740  0.4015  0.6283 -0.2084
19523TIP3    H179984   4.937   6.480  15.721 -0.4425 -0.1480 -3.8470
19523TIP3    H279985   4.873   6.343  15.725  0.9144 -0.8417  1.0853
19524TIP3   OH279986   0.582   5.735   6.989  0.0606 -0.5361  0.4245
19524TIP3    H179987   0.574   5.785   6.907  0.6843 -0.5520  0.3441
19524TIP3    H279988   0.498   5.691   6.998 -0.3962  0.2946  0.3439
19525TIP3   OH279989   4.283   3.133  16.050  0.2154  0.8056 -0.1622
19525TIP3    H179990   4.367   3.134  16.097 -0.4385 -0.9754  1.1924
19525TIP3    H279991   4.250   3.222  16.057  0.9426  0.9954  1.3807
19526TIP3   OH279992   1.243   6.291   3.912  0.4013 -0.1514 -0.0052
19526TIP3    H179993   1.158   6.323   3.882  0.6128 -0.4212 -0.8967
19526TIP3    H279994   1.249   6.202   3.879  0.7299 -0.3890  0.6715
19527TIP3   OH279995   2.492   2.093   4.567 -0.8426 -0.2125  0.2536
19527TIP3    H179996   2.576   2.074   4.610 -0.7183  1.9526  1.0939
19527TIP3    H279997   2.513   2.091   4.473  0.0572 -0.1601  0.4419
19528TIP3   OH279998   2.160   5.347   0.022  0.0106 -0.2617  0.5758
19528TIP3    H179999   2.240   5.303  -0.006  0.3145  0.3464  0.4655
19528TIP3    H280000   2.188   5.401   0.096  0.3079  2.0072 -1.0942
19529TIP3   OH280001   0.965   4.789  11.421 -0.3745  0.3262 -0.2877
19529TIP3    H180002   1.022   4.799  11.498 -0.0055 -2.7306 -0.0052
19529TIP3    H280003   0.883   4.831  11.445  0.8479  2.4827  0.3553
19530TIP3   OH280004   6.574   2.299  13.466  0.2150 -0.2096  0.0226
19530TIP3    H180005   6.649   2.354  13.445 -0.9192  1.4748  0.2202
19530TIP3    H280006   6.535   2.278  13.381 -0.6318  1.2024  0.0297
19531TIP3   OH280007   5.570   2.223  16.319 -0.0488  0.0059 -0.6134
19531TIP3    H180008   5.627   2.223  16.396  1.7428 -1.2749 -1.8596
19531TIP3    H280009   5.522   2.140  16.325  0.7387 -0.5130 -1.2938
19532TIP3   OH280010   1.944   4.024   3.659  0.6525 -0.7967 -0.7661
19532TIP3    H180011   1.965   4.085   3.588 -0.8473 -1.0642 -1.4938
19532TIP3    H280012   1.855   4.048   3.685  0.5430 -1.8166 -0.1492
19533TIP3   OH280013   5.841   2.852  16.384  0.2261  0.3605  0.0948
19533TIP3    H180014   5.756   2.833  16.344 -0.0673 -0.5895  1.1207
19533TIP3    H280015   5.830   2.938  16.423 -0.3927  0.0980  0.5181
19534TIP3   OH280016   1.116   3.103   4.689  0.1493 -0.0056  0.2577
19534TIP3    H180017   1.147   3.176   4.742  0.4504  0.5757 -0.6858
19534TIP3    H280018   1.135   3.129   4.599  1.6642 -1.8954 -0.0296
19535TIP3   OH280019   1.373   5.502   3.377 -0.0660  0.7588  0.0452
19535TIP3    H180020   1.305   5.458   3.326 -0.4046 -0.0795  1.1660
19535TIP3    H280021   1.324   5.558   3.438  0.2029 -0.0484  1.0368
19536TIP3   OH280022   6.079   4.619  11.223 -0.3988 -0.5590  0.4269
19536TIP3    H180023   6.168   4.618  11.259  0.2775 -0.7227 -1.1580
19536TIP3    H280024   6.050   4.528  11.232 -0.0028 -0.7305  0.0073
19537TIP3   OH280025   0.392   3.689   2.033  0.4006 -0.4196 -0.3572
19537TIP3    H180026   0.365   3.772   1.991  0.9029 -0.3960 -0.6369
19537TIP3    H280027   0.379   3.704   2.126  0.6342  0.0340 -0.3939
19538TIP3   OH280028   2.657   2.735  14.610  0.1260  0.2512 -0.6324
19538TIP3    H180029   2.606   2.815  14.614  0.8005  0.6940 -0.7225
19538TIP3    H280030   2.653   2.708  14.518 -2.5564 -1.4753 -0.1380
19539TIP3   OH280031   0.862   5.908   3.364  0.1330  0.3934  0.0733
19539TIP3    H180032   0.899   5.827   3.329  0.2890 -0.3460  1.8920
19539TIP3    H280033   0.815   5.947   3.289 -1.2936 -2.1675 -0.4676
19540TIP3   OH280034   2.966   5.987   1.574 -0.0454 -0.1590  0.0371
19540TIP3    H180035   2.895   5.991   1.638 -0.8688 -2.2233 -0.6464
19540TIP3    H280036   2.934   6.038   1.500  0.9128  2.2415  1.1976
19541TIP3   OH280037   5.163   5.442   0.488 -0.4402 -0.8263  0.0713
19541TIP3    H180038   5.093   5.440   0.552 -2.3162 -1.6644 -1.8740
19541TIP3    H280039   5.190   5.351   0.479  0.8664 -0.5281  0.7151
19542TIP3   OH280040   2.308   5.844   5.744  0.0578  0.0066  0.0517
19542TIP3    H180041   2.382   5.863   5.686 -0.2254 -0.3084 -0.4182
19542TIP3    H280042   2.299   5.924   5.797  0.1279  0.4219 -0.5456
19543TIP3   OH280043   5.246   3.276  16.264 -0.1757  0.0384  0.1028
19543TIP3    H180044   5.196   3.288  16.184 -0.0340 -1.2569 -0.2039
19543TIP3    H280045   5.236   3.183  16.286  1.1074  0.0052  0.6809
19544TIP3   OH280046   1.938   5.246  13.832  0.2124 -0.2749 -0.2157
19544TIP3    H180047   1.974   5.160  13.855 -1.4032 -1.0812 -0.5380
19544TIP3    H280048   1.943   5.249  13.736  1.3528  0.5184 -0.1511
19545TIP3   OH280049   2.078   0.518   3.596  0.6078 -0.1356 -0.0936
19545TIP3    H180050   2.013   0.542   3.661  2.1412  2.1780  0.7187
19545TIP3    H280051   2.106   0.430   3.621  0.8199  0.5144  2.1730
19546TIP3   OH280052   5.748   5.767  16.260 -0.1653 -0.3993  0.0083
19546TIP3    H180053   5.733   5.818  16.339  0.5104 -0.6359  0.2973
19546TIP3    H280054   5.844   5.762  16.252 -0.2177 -1.1593 -0.3067
19547TIP3   OH280055   1.180   0.300   5.134  0.6001  0.1077  0.0453
19547TIP3    H180056   1.257   0.282   5.187  0.3584 -0.1063  0.3322
19547TIP3    H280057   1.108   0.255   5.180  0.0090  1.6112  0.6606
19548TIP3   OH280058   3.331   1.749  10.913  0.1467 -0.6730 -0.0493
19548TIP3    H180059   3.240   1.734  10.888  0.0268 -0.9905  0.5570
19548TIP3    H280060   3.364   1.809  10.847 -1.2498  1.5747  1.1539
19549TIP3   OH280061   4.555   4.096   5.221 -0.2454 -0.2645 -0.2523
19549TIP3    H180062   4.526   4.187   5.224  2.2706  0.6040  0.3712
19549TIP3    H280063   4.628   4.095   5.159  0.7760 -1.5015  0.8857
19550TIP3   OH280064   0.823   4.378   2.915  0.1956 -0.1846 -0.2297
19550TIP3    H180065   0.894   4.438   2.891  1.2961 -2.0269 -1.9189
19550TIP3    H280066   0.757   4.390   2.847  0.5884 -1.0693 -0.7994
19551TIP3   OH280067   1.321   3.201  14.818 -0.0297 -0.4652  0.5367
19551TIP3    H180068   1.360   3.266  14.877  2.3411 -1.5632  0.3219
19551TIP3    H280069   1.316   3.121  14.871  0.4605 -0.9990 -0.2004
19552TIP3   OH280070   0.622   1.434  15.972  0.6278 -0.0869 -0.0840
19552TIP3    H180071   0.608   1.528  15.975 -0.9356 -0.2803 -0.3235
19552TIP3    H280072   0.712   1.422  16.002  0.1978  1.3225  2.0325
19553TIP3   OH280073   5.580   0.417  11.374 -0.3448  0.0003 -0.3173
19553TIP3    H180074   5.515   0.464  11.322 -1.6251 -1.3455 -0.0246
19553TIP3    H280075   5.557   0.436  11.465 -1.1837 -1.4677 -0.1758
19554TIP3   OH280076   0.776   5.875  14.889 -0.0286  0.6069  0.2420
19554TIP3    H180077   0.713   5.809  14.920 -2.4521  1.8968 -1.5585
19554TIP3    H280078   0.813   5.836  14.810 -0.6035  0.9052 -0.1830
19555TIP3   OH280079   4.609   6.388   2.055  0.6585 -0.0638 -0.5503
19555TIP3    H180080   4.582   6.308   2.010  1.8884  0.5733 -2.5551
19555TIP3    H280081   4.672   6.358   2.120 -0.8591 -0.9671  0.5563
19556TIP3   OH280082   5.853   0.949  13.170  0.1063 -0.4130 -0.0899
19556TIP3    H180083   5.862   0.915  13.259  1.7846 -1.2488 -0.5394
19556TIP3    H280084   5.759   0.949  13.154 -0.1141 -3.3617  0.5419
19557TIP3   OH280085   5.012   3.562  15.060 -0.8909 -0.1239 -0.0023
19557TIP3    H180086   4.921   3.587  15.072 -1.4149 -0.7522 -2.1658
19557TIP3    H280087   5.043   3.618  14.989 -0.2400 -1.3337 -0.7085
19558TIP3   OH280088   1.986   5.842   4.359  0.1051 -0.4838  0.6552
19558TIP3    H180089   1.983   5.762   4.306 -0.9026 -0.2234  0.3019
19558TIP3    H280090   1.903   5.886   4.341  0.7348  0.7585  0.6820
19559TIP3   OH280091   2.279   3.141   6.641 -0.4133 -0.3192 -0.1193
19559TIP3    H180092   2.361   3.105   6.609 -0.7246 -0.7123 -0.4940
19559TIP3    H280093   2.224   3.064   6.657 -0.5787 -0.0850  0.4971
19560TIP3   OH280094   1.616   0.353  16.184  0.2177 -0.1266 -0.7244
19560TIP3    H180095   1.604   0.349  16.279 -0.4332 -0.1339 -0.8001
19560TIP3    H280096   1.628   0.447  16.165  1.6227 -0.2411 -0.5013
19561TIP3   OH280097   4.488   3.847   5.257  0.5725  0.1387  0.5179
19561TIP3    H180098   4.515   3.938   5.242 -2.3279  0.8089 -1.4134
19561TIP3    H280099   4.535   3.796   5.191  1.0524  0.4356  0.6235
19562TIP3   OH280100   5.550   5.111   3.637  0.2463  0.5220 -0.2418
19562TIP3    H180101   5.547   5.143   3.727  1.2264 -0.9961  0.3829
19562TIP3    H280102   5.583   5.185   3.586 -1.7700  1.9085  0.3453
19563TIP3   OH280103   2.089   6.121   5.620 -0.0716  0.5908 -0.0720
19563TIP3    H180104   2.007   6.170   5.616 -0.4390 -0.0153 -0.1344
19563TIP3    H280105   2.100   6.099   5.713  0.2335  1.0132 -0.0031
19564TIP3   OH280106   1.331   1.063   2.864 -0.2065 -0.0275 -0.6139
19564TIP3    H180107   1.240   1.086   2.882 -0.2517 -0.6478  0.0229
19564TIP3    H280108   1.369   1.143   2.827 -0.2484  1.2400  1.8644
19565TIP3   OH280109   5.567   6.264   2.554  0.4604  0.5801  0.1914
19565TIP3    H180110   5.504   6.267   2.626  1.3809 -0.0122  1.0545
19565TIP3    H280111   5.565   6.353   2.517  0.5608  1.1522  1.4897
19566TIP3   OH280112   2.508   2.208  16.585  0.3110  0.3195 -0.2666
19566TIP3    H180113   2.496   2.228  16.677 -0.5697  1.2762 -0.5798
19566TIP3    H280114   2.586   2.152  16.583  0.9585  1.1482  0.9431
19567TIP3   OH280115   0.944   3.267   0.983 -0.8100  0.1741  0.2788
19567TIP3    H180116   0.897   3.201   1.034 -1.4217  0.0119 -0.4741
19567TIP3    H280117   0.944   3.345   1.038 -0.8965 -0.1873  0.7927
19568TIP3   OH280118   3.100   3.992   2.354  0.1205  0.4082  0.3047
19568TIP3    H180119   3.192   3.967   2.357 -0.5284 -2.1757  1.7407
19568TIP3    H280120   3.066   3.969   2.440 -1.5593  2.8771  0.4052
19569TIP3   OH280121   1.359   5.970   6.499  0.0895 -0.1091 -0.4688
19569TIP3    H180122   1.269   5.936   6.501  0.6617 -1.8705 -1.6989
19569TIP3    H280123   1.413   5.893   6.483  1.7667  1.0343 -0.5785
19570TIP3   OH280124   1.230   4.226   6.141 -0.0774 -0.3448  0.3183
19570TIP3    H180125   1.165   4.155   6.139  0.4880 -0.8573 -0.3558
19570TIP3    H280126   1.210   4.274   6.221  0.5576 -2.2462  1.6873
19571TIP3   OH280127   3.983   2.950   6.002  0.5770 -0.0371  0.3302
19571TIP3    H180128   3.936   2.956   6.085  0.0802  1.1233 -0.0145
19571TIP3    H280129   3.941   2.877   5.956 -1.5154  1.5006 -0.3209
19572TIP3   OH280130   5.751   3.471  15.187  0.3039  0.2834 -0.1740
19572TIP3    H180131   5.702   3.552  15.172 -1.4224 -0.5490  0.6886
19572TIP3    H280132   5.784   3.480  15.276  0.1042  0.0531 -0.0740
19573TIP3   OH280133   1.262   3.831  11.816  0.5221 -0.2378  0.3372
19573TIP3    H180134   1.205   3.757  11.838 -0.1688  0.2335  0.1611
19573TIP3    H280135   1.327   3.794  11.756 -0.3301 -0.5315 -0.4322
19574TIP3   OH280136   5.459   3.973  15.289 -0.4451 -0.2250 -0.5324
19574TIP3    H180137   5.450   3.919  15.211  1.3847  0.4903 -1.2879
19574TIP3    H280138   5.528   4.036  15.267 -1.6134  1.6099  0.7576
19575TIP3   OH280139   0.276   1.822   1.909 -0.3518  0.3441  0.1124
19575TIP3    H180140   0.370   1.806   1.919 -0.2487  0.6848 -0.2683
19575TIP3    H280141   0.248   1.762   1.841 -0.1783  1.0150 -0.5656
19576TIP3   OH280142   6.231   5.097   1.948  0.4627 -0.1666 -0.1136
19576TIP3    H180143   6.270   5.177   1.914 -1.3426  1.3808  1.2893
19576TIP3    H280144   6.237   5.105   2.043 -1.3223 -0.8444  0.0872
19577TIP3   OH280145   1.688   5.673  15.892  0.3092  0.4607  0.1931
19577TIP3    H180146   1.736   5.718  15.822 -0.3120  1.9231  0.6751
19577TIP3    H280147   1.756   5.645  15.954  1.0592 -2.3505 -1.7151
19578TIP3   OH280148   5.798   1.646  14.175  0.6312  0.6257  0.0620
19578TIP3    H180149   5.714   1.650  14.129  0.1101 -1.3139  0.7733
19578TIP3    H280150   5.847   1.578  14.130  1.5256  1.1766  0.1752
19579TIP3   OH280151   1.822   5.373   0.314  0.0755  0.8315 -0.3003
19579TIP3    H180152   1.730   5.386   0.291 -0.7827  0.1377  2.2813
19579TIP3    H280153   1.822   5.295   0.370  2.6454 -0.7117 -2.1855
19580TIP3   OH280154   3.851   4.662  13.972  0.3489 -0.1615 -1.0357
19580TIP3    H180155   3.924   4.600  13.970  1.1878  0.6492  0.9726
19580TIP3    H280156   3.888   4.740  14.015 -2.0901 -0.3361  1.6652
19581TIP3   OH280157   0.497   4.444  16.180 -0.1166  0.1258 -0.2229
19581TIP3    H180158   0.592   4.444  16.182 -0.0885 -1.8092 -0.2579
19581TIP3    H280159   0.474   4.520  16.125  1.5286 -1.3716 -3.2081
19582TIP3   OH280160   6.690   4.491   0.912  0.0518 -0.4695  0.0909
19582TIP3    H180161   6.634   4.568   0.905  0.2730 -0.4243 -1.6462
19582TIP3    H280162   6.756   4.503   0.844  0.4646 -1.8902  0.2085
19583TIP3   OH280163   5.287   1.443  12.966 -0.8560  0.0458 -0.0098
19583TIP3    H180164   5.252   1.365  13.009 -1.8352  0.0396 -0.7871
19583TIP3    H280165   5.365   1.412  12.920 -0.4917 -0.1946  0.7489
19584TIP3   OH280166   2.789   6.664  15.219 -0.6456 -0.0562  0.3250
19584TIP3    H180167   2.749   6.682  15.304 -0.3854  3.3254 -0.1343
19584TIP3    H280168   2.860   6.728  15.212  0.1409 -1.0754 -1.9449
19585TIP3   OH280169   2.002   5.045  11.152  0.5462 -0.5305 -0.0088
19585TIP3    H180170   1.992   5.016  11.061  2.3261  0.5229 -0.5777
19585TIP3    H280171   2.000   5.141  11.147  2.0087 -0.4338  0.8801
19586TIP3   OH280172   5.932   5.362   3.505  0.2022  1.2502  0.0361
19586TIP3    H180173   5.921   5.410   3.587 -0.7522  0.5798  0.3194
19586TIP3    H280174   5.984   5.421   3.450  0.2499  2.0088  0.8634
19587TIP3   OH280175   2.073   3.528  14.324  0.3201  0.3960  0.2112
19587TIP3    H180176   2.146   3.498  14.269  0.2023 -1.7257  1.0992
19587TIP3    H280177   2.086   3.622  14.332  0.8150  0.6770 -2.7022
19588TIP3   OH280178   6.277   2.298   3.272  0.1429  0.1901  0.3654
19588TIP3    H180179   6.262   2.203   3.274  1.3706 -0.1489 -1.9675
19588TIP3    H280180   6.337   2.311   3.198 -1.3144  2.9549 -0.4989
19589TIP3   OH280181   0.348   1.924   5.659  0.3667 -0.3688  0.0060
19589TIP3    H180182   0.276   1.862   5.672  0.1823  0.3672  3.3329
19589TIP3    H280183   0.310   1.996   5.609 -0.4154 -1.2326 -0.6790
19590TIP3   OH280184   1.717   6.423  11.960  0.1474 -0.2547 -0.1093
19590TIP3    H180185   1.801   6.440  11.917 -0.5943 -1.2627 -2.0802
19590TIP3    H280186   1.679   6.351  11.909 -0.9813 -1.2815  2.0435
19591TIP3   OH280187   5.070   1.970  13.277 -0.6635 -0.0698  0.0039
19591TIP3    H180188   5.130   2.003  13.209 -1.8518  1.5460 -0.3093
19591TIP3    H280189   5.099   2.014  13.357 -0.4853 -0.4625  0.1551
19592TIP3   OH280190   1.959   6.429   0.747 -0.3905 -0.7265 -0.0331
19592TIP3    H180191   1.877   6.477   0.762 -0.3120 -0.0172 -1.6168
19592TIP3    H280192   1.960   6.362   0.814 -2.8281 -1.4360 -0.6013
19593TIP3   OH280193   3.665   0.145   3.896  0.1433  0.1032 -0.3552
19593TIP3    H180194   3.617   0.104   3.968 -1.0906 -0.3392 -1.3800
19593TIP3    H280195   3.742   0.090   3.883  0.4300  0.2469  0.6734
19594TIP3   OH280196   0.622   4.713   0.911 -0.3364 -0.0871  0.2566
19594TIP3    H180197   0.533   4.698   0.878 -0.5127  0.3178  0.5357
19594TIP3    H280198   0.673   4.737   0.833 -0.4505 -0.4097  0.0834
19595TIP3   OH280199   0.416   4.202   2.270 -0.6430  0.3905  0.1282
19595TIP3    H180200   0.343   4.262   2.288 -0.5594  0.4492  0.2686
19595TIP3    H280201   0.448   4.229   2.184 -1.5186 -0.3658 -0.4501
19596TIP3   OH280202   5.356   3.469  13.455 -0.3045 -0.3052  0.1186
19596TIP3    H180203   5.277   3.448  13.505 -0.2516  0.4157  0.5171
19596TIP3    H280204   5.426   3.470  13.520  0.0329 -0.8487 -0.2192
19597TIP3   OH280205   5.387   1.131   5.516 -0.2890 -0.1463 -0.5263
19597TIP3    H180206   5.343   1.051   5.546 -0.6442  0.9649  2.2983
19597TIP3    H280207   5.477   1.104   5.502 -0.0135 -0.8285  1.9688
19598TIP3   OH280208   0.249   0.198   0.450 -0.1497  0.2795 -0.2594
19598TIP3    H180209   0.190   0.270   0.473  0.0478  0.1721  0.6132
19598TIP3    H280210   0.310   0.192   0.524 -0.4910 -1.1337 -0.0646
19599TIP3   OH280211   1.588   3.140  11.935 -0.3073  0.3296  0.5023
19599TIP3    H180212   1.522   3.192  11.889 -1.0425  0.4106  1.6014
19599TIP3    H280213   1.632   3.090  11.867 -0.7728  1.0919 -0.3715
19600TIP3   OH280214   3.352   2.333  14.143  0.1309 -0.1252 -0.0094
19600TIP3    H180215   3.390   2.245  14.137 -1.3432 -0.7663 -0.4267
19600TIP3    H280216   3.327   2.354  14.053 -1.8992 -0.4071  0.4381
19601TIP3   OH280217   1.980   6.247  12.173 -0.2913 -0.3822 -0.0434
19601TIP3    H180218   1.903   6.299  12.148 -1.1071 -1.0023  1.0878
19601TIP3    H280219   1.972   6.167  12.121 -0.8578 -0.7839  0.6435
19602TIP3   OH280220   1.986   2.840  13.318  0.2247 -0.2839 -0.3703
19602TIP3    H180221   1.975   2.747  13.298  2.2281 -0.8919  0.9754
19602TIP3    H280222   2.028   2.841  13.404  0.2041  1.8722 -0.3324
19603TIP3   OH280223   3.339   6.311   5.624  0.4775 -0.8610 -0.1649
19603TIP3    H180224   3.380   6.346   5.545 -0.2379  1.4903  0.4205
19603TIP3    H280225   3.397   6.337   5.695 -0.4536 -0.1661  0.3643
19604TIP3   OH280226   0.549   1.253  16.868  0.1214 -0.5231  0.3808
19604TIP3    H180227   0.481   1.228  16.805 -0.5551  0.6382  0.6299
19604TIP3    H280228   0.619   1.190  16.853 -1.2840 -2.2156  0.6017
19605TIP3   OH280229   1.720   1.958  15.278  0.0517  0.1703  0.4534
19605TIP3    H180230   1.693   2.002  15.198  0.1114 -0.2353  0.2090
19605TIP3    H280231   1.659   1.885  15.287 -0.9506  1.1160  1.6226
19606TIP3   OH280232   6.292   5.913   1.650  0.3801  0.6544  0.0293
19606TIP3    H180233   6.337   5.861   1.716 -0.9536  0.4981  0.8568
19606TIP3    H280234   6.310   5.868   1.567 -1.9265 -2.1183  0.8581
19607TIP3   OH280235   3.310   1.986  11.886  0.6192 -0.3290  0.0281
19607TIP3    H180236   3.237   2.036  11.850  1.4225  0.1432 -0.9681
19607TIP3    H280237   3.337   2.035  11.963 -0.2144 -0.6015  0.5091
19608TIP3   OH280238   3.657   4.561  11.669 -0.1664  0.3475 -0.3238
19608TIP3    H180239   3.640   4.624  11.599 -3.8549 -0.2481 -0.1618
19608TIP3    H280240   3.644   4.610  11.750 -1.0074 -0.0800 -0.1803
19609TIP3   OH280241   6.667   2.871  15.717 -0.3834 -0.1348  0.1684
19609TIP3    H180242   6.579   2.883  15.753  0.2722  0.5139  1.6536
19609TIP3    H280243   6.661   2.904  15.627 -1.6324 -0.0466  0.2646
19610TIP3   OH280244   3.904   3.352   0.129 -0.3027 -0.7464  0.0172
19610TIP3    H180245   3.999   3.357   0.138 -0.5194  1.3714  2.3836
19610TIP3    H280246   3.881   3.424   0.070 -0.4903 -0.4486  0.4423
19611TIP3   OH280247   3.426   4.268  12.951 -0.2562 -0.2576  0.3096
19611TIP3    H180248   3.394   4.287  13.040 -0.4535 -1.1735  0.4457
19611TIP3    H280249   3.447   4.175  12.953  2.8389  0.3133  0.3517
19612TIP3   OH280250   1.771   5.140   4.997  0.0013 -0.7016  0.0462
19612TIP3    H180251   1.680   5.111   4.996 -1.0602  2.2318  0.2383
19612TIP3    H280252   1.821   5.064   5.028 -2.1139 -2.9124 -1.6057
19613TIP3   OH280253   2.669   6.638   4.378  0.2654  0.4628 -0.4186
19613TIP3    H180254   2.720   6.633   4.297  2.1596 -0.5735  0.7545
19613TIP3    H280255   2.709   6.572   4.435  0.6048  2.7712  2.2136
19614TIP3   OH280256   3.829   1.735   2.017 -0.4143 -0.1541  0.3851
19614TIP3    H180257   3.819   1.748   1.922  0.7991 -3.5905 -0.3331
19614TIP3    H280258   3.917   1.767   2.036 -0.9653  1.3310  0.5914
19615TIP3   OH280259   0.444   4.206  13.133  0.5780 -0.1342 -0.1800
19615TIP3    H180260   0.514   4.264  13.164 -0.6585  1.8138 -0.8239
19615TIP3    H280261   0.461   4.198  13.039 -0.3445  0.8268 -0.4484
19616TIP3   OH280262   3.850   1.753   2.394 -0.2579  0.2738  0.0348
19616TIP3    H180263   3.782   1.688   2.411  0.2708 -0.1956  0.3921
19616TIP3    H280264   3.922   1.703   2.355  0.4528  0.5048  1.0306
19617TIP3   OH280265   0.676   0.756  15.862  0.0741 -0.4454  0.0289
19617TIP3    H180266   0.655   0.679  15.915  0.7936 -0.7931 -0.1801
19617TIP3    H280267   0.592   0.787  15.830 -0.2725 -0.8254  0.5594
19618TIP3   OH280268   3.558   0.999   2.226  0.0893 -0.0488 -0.1601
19618TIP3    H180269   3.480   1.045   2.259  0.6837  1.2510 -0.4974
19618TIP3    H280270   3.577   0.935   2.294  0.4344  1.6113  1.4094
19619TIP3   OH280271   3.580   0.534  11.215  0.8925  0.2383 -0.8923
19619TIP3    H180272   3.615   0.623  11.217 -0.4477  0.8417 -2.0574
19619TIP3    H280273   3.514   0.536  11.145  0.3142 -1.4730 -0.4509
19620TIP3   OH280274   0.539   0.144   6.183 -0.2852 -1.0878 -0.5003
19620TIP3    H180275   0.536   0.240   6.183 -1.7573 -1.1079 -1.1066
19620TIP3    H280276   0.524   0.120   6.275 -1.9483 -0.7496 -0.6614
19621TIP3   OH280277   1.944   1.937  13.530 -0.0577 -0.1518  0.5511
19621TIP3    H180278   2.014   1.962  13.470  0.1967 -0.2953  0.7875
19621TIP3    H280279   1.865   1.939  13.477  0.3515 -1.6846 -0.1637
19622TIP3   OH280280   4.276   2.882   5.968  0.2111  0.7527 -0.1321
19622TIP3    H180281   4.185   2.877   5.998 -0.4383 -1.1777 -2.1941
19622TIP3    H280282   4.270   2.905   5.876  1.9264  2.0478  0.0265
19623TIP3   OH280283   4.969   1.004   1.576 -0.0119  0.2852 -0.3203
19623TIP3    H180284   4.951   0.957   1.657  0.0021 -0.8977 -0.9807
19623TIP3    H280285   5.004   0.938   1.517  0.7327  1.2939 -1.0440
19624TIP3   OH280286   1.160   2.557  15.826 -0.0565  0.3860 -0.2869
19624TIP3    H180287   1.185   2.614  15.898 -2.8705 -0.3564  1.4416
19624TIP3    H280288   1.122   2.615  15.761  0.7826  0.8637 -0.3651
19625TIP3   OH280289   0.576   5.024  14.629  0.0647 -0.3752  0.0769
19625TIP3    H180290   0.624   4.957  14.580  1.6915  2.3239 -2.3863
19625TIP3    H280291   0.498   5.040  14.577  0.2950  0.4437 -0.0249
19626TIP3   OH280292   1.954   3.047   3.268  0.8760  0.3830  0.8739
19626TIP3    H180293   1.929   3.112   3.201 -0.2361 -0.9991 -0.1174
19626TIP3    H280294   1.900   3.069   3.343 -2.5055 -1.6061 -0.7298
19627TIP3   OH280295   5.692   0.195   2.128 -0.9800  0.3829 -0.2601
19627TIP3    H180296   5.730   0.278   2.156 -1.2892 -0.1455  1.9216
19627TIP3    H280297   5.607   0.218   2.091 -1.4829  0.9945  1.2032
19628TIP3   OH280298   4.265   4.009  14.324 -0.1453 -0.1740 -0.1095
19628TIP3    H180299   4.194   4.070  14.304 -0.6245 -0.6349  0.1390
19628TIP3    H280300   4.220   3.927  14.346  0.3792  0.0011  1.8143
19629TIP3   OH280301   2.708   5.783  12.022 -0.2823 -0.1106  0.5216
19629TIP3    H180302   2.754   5.722  12.080  0.7192  1.4410  1.4458
19629TIP3    H280303   2.681   5.855  12.079  0.5319  1.3744 -0.8771
19630TIP3   OH280304   0.843   1.445  10.579 -0.2507 -0.0616  0.0371
19630TIP3    H180305   0.896   1.487  10.511 -0.1227  1.6187  1.0920
19630TIP3    H280306   0.866   1.492  10.659 -0.0436 -2.2876  1.3601
19631TIP3   OH280307   1.547   5.705   3.289 -0.2016  0.0498  0.4974
19631TIP3    H180308   1.496   5.629   3.317 -1.0157  0.5008  0.2647
19631TIP3    H280309   1.504   5.779   3.332  1.7661  0.2274  2.3630
19632TIP3   OH280310   2.687   1.734   5.629  0.2311 -0.3006  0.2536
19632TIP3    H180311   2.604   1.747   5.674  0.4491 -3.9566  2.0228
19632TIP3    H280312   2.748   1.791   5.676 -0.5446 -0.3466  1.3532
19633TIP3   OH280313   4.127   5.545   3.026  0.1344 -0.0298  0.2373
19633TIP3    H180314   4.151   5.455   3.047  2.0471  0.2944 -0.2750
19633TIP3    H280315   4.057   5.567   3.087  2.1029 -0.7021  2.9422
19634TIP3   OH280316   4.915   1.980   1.226 -0.0989 -0.3711 -0.0803
19634TIP3    H180317   4.907   1.936   1.311  0.7653  0.1315  0.2823
19634TIP3    H280318   4.973   2.055   1.244  0.7773 -0.7327 -1.2933
19635TIP3   OH280319   1.272   1.418  14.020 -0.4041  0.3245 -0.3899
19635TIP3    H180320   1.315   1.414  14.106 -0.7103  0.1989 -0.2414
19635TIP3    H280321   1.344   1.421  13.957 -0.1795 -0.1352 -0.1541
19636TIP3   OH280322   5.449   4.585   4.079 -0.4559 -0.0912  0.3661
19636TIP3    H180323   5.475   4.667   4.119 -1.7352  0.3938  0.2694
19636TIP3    H280324   5.354   4.592   4.070 -0.4866 -1.2109 -0.4584
19637TIP3   OH280325   5.814   2.283  17.139  0.0386 -0.3738 -0.0349
19637TIP3    H180326   5.765   2.245  17.066  2.1196  0.3796 -1.9552
19637TIP3    H280327   5.900   2.241  17.135  0.1648 -0.4517  2.1626
19638TIP3   OH280328   5.446   4.880   0.442  0.1245 -0.3687  0.2575
19638TIP3    H180329   5.432   4.936   0.518  1.1109 -0.6859  0.6923
19638TIP3    H280330   5.461   4.941   0.370 -1.5618 -0.0541  0.1411
19639TIP3   OH280331   4.356   5.544   5.702 -0.1635  0.4171  0.5273
19639TIP3    H180332   4.397   5.506   5.624 -0.4796 -0.2594  0.6824
19639TIP3    H280333   4.413   5.516   5.774 -0.7251 -0.2805  0.7112
19640TIP3   OH280334   3.321   1.398   5.152 -0.0479 -0.4044  0.6946
19640TIP3    H180335   3.411   1.408   5.183 -0.7437  1.8136  2.2033
19640TIP3    H280336   3.320   1.441   5.066 -0.1346  1.7742  1.7149
19641TIP3   OH280337   3.933   3.213  14.090 -0.3333  0.0715 -0.0223
19641TIP3    H180338   3.960   3.181  14.004 -1.0449  1.4730 -0.8095
19641TIP3    H280339   4.011   3.203  14.146  0.8369  1.0912 -1.3939
19642TIP3   OH280340   6.184   2.354  13.139 -0.1837  0.7538  0.1250
19642TIP3    H180341   6.208   2.273  13.094  2.0981  1.6163 -0.3449
19642TIP3    H280342   6.212   2.340  13.229 -0.1804  0.8662  0.1405
19643TIP3   OH280343   6.126   3.427  11.581  0.5072 -0.3391  0.0549
19643TIP3    H180344   6.163   3.357  11.634 -0.4755 -1.0474 -0.1536
19643TIP3    H280345   6.082   3.382  11.509  0.8271  0.5507 -0.7245
19644TIP3   OH280346   5.407   2.642   0.531  0.0151 -0.0849 -0.2017
19644TIP3    H180347   5.335   2.587   0.499 -0.1850  0.0723 -0.0212
19644TIP3    H280348   5.485   2.588   0.518 -0.4336 -1.5122  2.3856
19645TIP3   OH280349   2.852   5.745   3.742  0.3461  0.1873 -0.4847
19645TIP3    H180350   2.861   5.758   3.647  2.0562 -0.7839 -0.4897
19645TIP3    H280351   2.837   5.833   3.777 -0.4809  0.5410 -1.6623
19646TIP3   OH280352   1.735   5.342  16.246  0.0445  0.1997 -0.0037
19646TIP3    H180353   1.744   5.318  16.339  1.3311 -2.3791 -0.7047
19646TIP3    H280354   1.794   5.283  16.200 -2.7561 -0.6998 -2.7770
19647TIP3   OH280355   2.579   3.690   5.788  0.2263  0.0205 -0.3964
19647TIP3    H180356   2.503   3.676   5.732 -0.4266  1.8629 -0.0629
19647TIP3    H280357   2.559   3.643   5.869 -2.1886  3.0760  0.9752
19648TIP3   OH280358   6.073   1.637   4.755 -0.3214 -0.3681 -0.6081
19648TIP3    H180359   6.094   1.725   4.725  0.8807 -0.8083 -1.1468
19648TIP3    H280360   5.995   1.612   4.707 -0.2524  0.1370 -0.9884
19649TIP3   OH280361   1.964   3.964  16.797  0.1969 -0.1084 -0.2732
19649TIP3    H180362   1.908   3.902  16.750 -0.5655  0.5681 -0.2870
19649TIP3    H280363   2.031   3.910  16.838  0.1643 -0.8233 -1.1538
19650TIP3   OH280364   4.584   6.539  14.219  0.1006  0.1922 -0.5627
19650TIP3    H180365   4.618   6.463  14.265 -0.1987  1.1532  1.3119
19650TIP3    H280366   4.650   6.559  14.153  0.6113 -1.1264 -0.4725
19651TIP3   OH280367   5.815   6.504  13.840  0.5842 -0.0794 -0.3687
19651TIP3    H180368   5.859   6.526  13.758  1.4128  1.0027  0.3345
19651TIP3    H280369   5.721   6.505  13.818  0.8295 -2.5617 -1.9135
19652TIP3   OH280370   1.088   1.689  14.517 -0.1525  0.4952  0.2133
19652TIP3    H180371   1.091   1.738  14.434  0.8652 -3.4333 -2.3556
19652TIP3    H280372   0.999   1.654  14.520  0.2372 -0.5283  0.0071
19653TIP3   OH280373   4.189   3.316   3.162 -0.3204 -0.1546  0.0605
19653TIP3    H180374   4.118   3.367   3.124 -1.0161  0.0760  1.6041
19653TIP3    H280375   4.252   3.306   3.090 -2.0210 -0.6298 -1.4306
19654TIP3   OH280376   1.307   0.368  13.018  0.0380  0.0776 -0.1344
19654TIP3    H180377   1.394   0.331  13.004  0.6889  1.6501 -0.4760
19654TIP3    H280378   1.289   0.352  13.110  0.9718  0.2863  0.0983
19655TIP3   OH280379   3.048   0.850   6.049 -0.2095  0.8378 -0.1733
19655TIP3    H180380   3.130   0.800   6.050 -0.6568  0.0680 -0.9395
19655TIP3    H280381   2.991   0.805   6.110 -0.6530  0.3133 -0.9523
19656TIP3   OH280382   3.643   1.595  11.711  0.1395 -0.5418  0.3467
19656TIP3    H180383   3.563   1.646  11.721 -0.0245 -0.5778 -0.6658
19656TIP3    H280384   3.676   1.619  11.625  0.8414 -1.0588  0.4627
19657TIP3   OH280385   6.377   1.503  14.642  0.0582 -0.3101  0.1052
19657TIP3    H180386   6.283   1.485  14.645 -0.3626  1.5668 -0.3555
19657TIP3    H280387   6.383   1.599  14.645  2.0491 -0.4171  2.1604
19658TIP3   OH280388   0.353   2.892  13.363 -0.0269 -0.2233 -0.4096
19658TIP3    H180389   0.415   2.832  13.405 -0.1733 -1.0161 -1.2915
19658TIP3    H280390   0.290   2.913  13.433 -0.3616 -1.6473 -0.2466
19659TIP3   OH280391   6.630   1.075   4.078  0.0195  0.4965 -0.2729
19659TIP3    H180392   6.698   1.054   4.014  0.7039 -0.4491  0.7261
19659TIP3    H280393   6.575   0.997   4.081 -0.8066  1.0489 -0.6724
19660TIP3   OH280394   0.994   5.217   2.030  0.1005 -0.2738 -0.2693
19660TIP3    H180395   0.931   5.221   1.958  0.2264 -0.7461 -0.4077
19660TIP3    H280396   1.034   5.303   2.031 -0.0622 -0.1912 -0.6222
19661TIP3   OH280397   5.334   2.093   4.986 -0.7261 -0.0051  0.1876
19661TIP3    H180398   5.336   2.035   4.910  0.6035 -2.4202  1.9448
19661TIP3    H280399   5.265   2.057   5.042  0.7865 -0.6096  1.7535
19662TIP3   OH280400   6.492   2.829  15.390  0.5097 -0.1634  0.3423
19662TIP3    H180401   6.426   2.899  15.385  1.5682  0.8449  0.0095
19662TIP3    H280402   6.441   2.749  15.398 -0.8416  0.4234 -1.4841
19663TIP3   OH280403   3.858   1.181   3.452  0.5321  0.3221  0.2804
19663TIP3    H180404   3.918   1.108   3.466 -0.4099 -0.7628 -1.0988
19663TIP3    H280405   3.887   1.221   3.371 -0.6861 -0.3618 -0.5354
19664TIP3   OH280406   4.937   2.978   6.415 -0.6956 -0.0094  0.2726
19664TIP3    H180407   4.856   3.004   6.370 -0.2965 -0.5505 -0.7937
19664TIP3    H280408   5.005   3.034   6.376 -0.4688  0.0820  0.7920
19665TIP3   OH280409   5.013   2.603   1.973 -0.0042  0.3881 -0.1125
19665TIP3    H180410   4.980   2.645   2.053 -1.1932  1.5969 -1.1773
19665TIP3    H280411   5.066   2.530   2.004 -3.6216 -1.7405  1.8267
19666TIP3   OH280412   1.534   0.751   1.571 -0.1021 -0.0051  0.4234
19666TIP3    H180413   1.626   0.770   1.554  0.2025 -2.1808 -0.6791
19666TIP3    H280414   1.535   0.672   1.625 -1.3295  0.3069  0.9382
19667TIP3   OH280415   1.931   0.777   6.113  0.5380 -0.0061 -0.0350
19667TIP3    H180416   1.861   0.832   6.148 -1.3796 -1.7468 -0.9279
19667TIP3    H280417   1.934   0.702   6.172  0.2408 -0.8876 -1.0999
19668TIP3   OH280418   3.170   5.185  11.702 -0.2662 -0.0902  0.3492
19668TIP3    H180419   3.154   5.224  11.616  0.6662 -1.2438 -0.3779
19668TIP3    H280420   3.083   5.169  11.738 -0.7192 -0.9385 -1.0223
19669TIP3   OH280421   4.839   3.245   6.088  0.2031  0.1228  0.0501
19669TIP3    H180422   4.915   3.301   6.105  0.5760  0.1702 -1.6246
19669TIP3    H280423   4.807   3.222   6.175  0.9258  1.7393  0.7931
19670TIP3   OH280424   4.206   0.437  13.977  0.1224  0.0159 -0.2404
19670TIP3    H180425   4.168   0.520  13.948  0.8567 -0.3385 -2.3818
19670TIP3    H280426   4.183   0.374  13.908  0.5653 -1.3091  0.7610
19671TIP3   OH280427   2.748   0.736  12.683  0.7330  0.3331  0.4406
19671TIP3    H180428   2.816   0.786  12.637  0.2634 -0.4868 -1.2181
19671TIP3    H280429   2.709   0.799  12.744  2.7826  0.8927  1.2483
19672TIP3   OH280430   6.009   5.175   0.348 -0.3049  0.5598 -0.0656
19672TIP3    H180431   5.929   5.171   0.296 -0.8134 -0.8899  0.7591
19672TIP3    H280432   6.070   5.117   0.304 -0.3692  0.1678  0.3548
19673TIP3   OH280433   4.860   1.153  12.370  0.3428  0.0572  0.2126
19673TIP3    H180434   4.926   1.095  12.408 -0.1887 -1.0896 -0.5505
19673TIP3    H280435   4.826   1.203  12.444  1.2209 -0.1913  0.7984
19674TIP3   OH280436   1.532   6.685   3.805  0.1645  0.4872  0.5765
19674TIP3    H180437   1.622   6.710   3.825  0.8979 -0.3086 -1.4138
19674TIP3    H280438   1.516   6.607   3.858  1.0195  0.0439  0.1996
19675TIP3   OH280439   2.840   1.849   3.315  0.4558  0.6345  0.2018
19675TIP3    H180440   2.767   1.903   3.283  0.8059  1.3155  0.5192
19675TIP3    H280441   2.861   1.887   3.400 -0.3380 -1.0176  1.1917
19676TIP3   OH280442   3.471   6.160   0.683  0.0251 -0.6920 -0.3241
19676TIP3    H180443   3.483   6.191   0.773 -0.4356 -0.0221 -0.4854
19676TIP3    H280444   3.555   6.177   0.641 -0.1433  0.1452 -0.3447
19677TIP3   OH280445   1.268   1.915   4.171 -0.1438  0.2660  0.1087
19677TIP3    H180446   1.224   1.985   4.220  0.1602 -0.0871  0.9120
19677TIP3    H280447   1.307   1.859   4.239 -2.2634 -1.9593 -0.3953
19678TIP3   OH280448   5.076   1.405  11.938 -0.4500  0.2187 -0.1837
19678TIP3    H180449   5.057   1.411  12.031  0.4981 -1.2300  0.1228
19678TIP3    H280450   4.996   1.369  11.900 -0.1929 -0.9732  0.3584
19679TIP3   OH280451   1.419   4.906   4.707 -0.5497 -0.3665  0.0063
19679TIP3    H180452   1.506   4.884   4.673  0.4819  0.3698  2.0032
19679TIP3    H280453   1.376   4.952   4.635  1.6020  1.3299 -0.2997
19680TIP3   OH280454   1.821   4.174  14.108 -0.1753 -0.4999 -0.2426
19680TIP3    H180455   1.826   4.181  14.203 -1.5421  2.5560 -0.2722
19680TIP3    H280456   1.913   4.176  14.079  0.2160 -0.1318  0.9599
19681TIP3   OH280457   5.143   3.901  10.941  0.1026  0.0119 -0.1151
19681TIP3    H180458   5.229   3.932  10.911 -0.3890  2.0393  0.4722
19681TIP3    H280459   5.087   3.906  10.863  0.1563  0.0365 -0.1518
19682TIP3   OH280460   4.119   2.699  11.524 -0.1729  0.1719 -0.3382
19682TIP3    H180461   4.031   2.666  11.542  0.1512 -0.3448  0.3405
19682TIP3    H280462   4.146   2.651  11.445  0.5417 -1.7184  1.0035
19683TIP3   OH280463   1.555   2.419   1.392 -0.1576  0.3113  0.1379
19683TIP3    H180464   1.547   2.439   1.485 -0.6077  1.2339 -0.0872
19683TIP3    H280465   1.512   2.334   1.382 -0.7454  0.5395  0.6570
19684TIP3   OH280466   2.309   4.113  11.799  0.1010  0.5186 -0.4352
19684TIP3    H180467   2.397   4.089  11.827 -0.4005 -1.7530 -0.6068
19684TIP3    H280468   2.272   4.032  11.765 -2.5684  1.0380  0.9761
19685TIP3   OH280469   5.098   3.676  12.514  0.5006 -0.6082 -0.0607
19685TIP3    H180470   5.168   3.707  12.570  1.0070 -1.4865 -0.1846
19685TIP3    H280471   5.126   3.699  12.425 -1.6184  3.3927  0.1193
19686TIP3   OH280472   2.272   6.718   4.217  0.5522 -0.2584  0.6238
19686TIP3    H180473   2.347   6.769   4.245 -0.2358  0.3349  1.7552
19686TIP3    H280474   2.198   6.755   4.265 -0.7258  0.0556 -1.4434
19687TIP3   OH280475   2.486   1.227   5.193 -0.2999 -0.3696  0.2474
19687TIP3    H180476   2.430   1.280   5.135  1.3827 -2.3557 -3.6097
19687TIP3    H280477   2.550   1.288   5.227 -1.3860  0.9257  0.0644
19688TIP3   OH280478   6.455   4.533  11.558  0.6625 -0.4733 -0.8182
19688TIP3    H180479   6.520   4.595  11.592  0.8513  0.1187 -2.1840
19688TIP3    H280480   6.470   4.452  11.606  1.1831  0.2045  0.1816
19689TIP3   OH280481   5.234   3.699  15.433 -0.1246 -0.3338  0.3515
19689TIP3    H180482   5.160   3.750  15.399  0.6033  0.6631  0.2507
19689TIP3    H280483   5.196   3.650  15.507 -1.6551 -2.2847 -1.5840
19690TIP3   OH280484   3.178   6.105   5.348  0.1593 -0.2077  0.1078
19690TIP3    H180485   3.134   6.025   5.319  0.6286 -0.5538  0.3322
19690TIP3    H280486   3.164   6.107   5.443 -0.4955  0.3778  0.0035
19691TIP3   OH280487   2.459   0.590  15.119  0.0662  0.7513 -0.6740
19691TIP3    H180488   2.390   0.641  15.077 -0.6802  0.2592 -0.0691
19691TIP3    H280489   2.457   0.617  15.211 -0.3804 -0.3831 -0.3320
19692TIP3   OH280490   4.759   6.313   2.833 -0.3644  0.8605 -0.3132
19692TIP3    H180491   4.673   6.337   2.868 -0.0342  0.3820  0.8861
19692TIP3    H280492   4.821   6.344   2.900  0.2891 -0.1256 -0.4403
19693TIP3   OH280493   1.120   6.434   5.229 -0.2182 -0.0740  0.2461
19693TIP3    H180494   1.047   6.413   5.288 -0.3008 -0.0794  0.1424
19693TIP3    H280495   1.157   6.348   5.206  0.0456 -0.0513  0.5810
19694TIP3   OH280496   4.058   3.178  15.387 -0.4729  0.0040 -0.5536
19694TIP3    H180497   4.062   3.262  15.341  3.0027 -0.0794 -0.6542
19694TIP3    H280498   3.980   3.185  15.442 -1.5201  2.3916 -2.1494
19695TIP3   OH280499   3.522   4.541  12.967 -0.2721  0.0168  0.5689
19695TIP3    H180500   3.613   4.567  12.953 -0.3596 -0.9316 -2.4859
19695TIP3    H280501   3.526   4.446  12.979 -0.9958 -0.6780 -3.3778
19696TIP3   OH280502   0.575   3.221  15.702  0.2494 -0.1214 -1.0539
19696TIP3    H180503   0.562   3.308  15.663  0.8858 -0.1158 -1.2655
19696TIP3    H280504   0.668   3.203  15.689  0.0254 -1.0475 -1.4620
19697TIP3   OH280505   6.275   5.276  11.607  0.1635  0.5992  0.5477
19697TIP3    H180506   6.342   5.319  11.555 -0.0522  1.0048  0.6035
19697TIP3    H280507   6.305   5.287  11.698 -0.4051  1.5485  0.6404
19698TIP3   OH280508   1.758   0.759   3.687  0.3028 -0.2869  0.0022
19698TIP3    H180509   1.668   0.752   3.655  0.0618  0.2731  0.5300
19698TIP3    H280510   1.767   0.684   3.746  0.9452 -1.6735 -1.7650
19699TIP3   OH280511   1.428   0.155  14.196 -0.1295 -0.4247 -0.3190
19699TIP3    H180512   1.363   0.087  14.213  0.1954 -0.4247  1.0091
19699TIP3    H280513   1.445   0.149  14.102  0.3568 -2.6096 -0.1357
19700TIP3   OH280514   5.229   3.159   2.647 -0.4599  0.6205 -0.1499
19700TIP3    H180515   5.241   3.095   2.716  0.8317  0.4430 -0.5184
19700TIP3    H280516   5.134   3.174   2.644 -0.5695  0.3016  1.3359
19701TIP3   OH280517   5.068   3.451   4.496  0.0441 -0.1241 -0.3992
19701TIP3    H180518   5.002   3.495   4.442  0.0147 -0.7927 -0.9256
19701TIP3    H280519   5.064   3.359   4.469  0.3893 -0.3857  0.3842
19702TIP3   OH280520   6.171   0.507   1.728  0.2326 -0.1573  0.2190
19702TIP3    H180521   6.116   0.429   1.725 -0.0891  0.0393  0.8672
19702TIP3    H280522   6.113   0.577   1.757  0.1210  0.6755 -1.8136
19703TIP3   OH280523   2.071   2.836   0.396  0.3967  0.0172 -0.0946
19703TIP3    H180524   2.053   2.912   0.451  0.4102 -0.5904  0.7716
19703TIP3    H280525   2.035   2.762   0.445 -1.1555 -0.3508 -1.6991
19704TIP3   OH280526   1.709   1.095  11.838  0.4681 -0.2747 -0.3824
19704TIP3    H180527   1.770   1.134  11.900  1.6580 -1.8012 -0.5480
19704TIP3    H280528   1.653   1.168  11.810  1.2541  0.8505  0.8879
19705TIP3   OH280529   2.471   3.915   0.618 -0.2945 -0.1346  0.0860
19705TIP3    H180530   2.478   3.820   0.626 -0.4816 -0.1639 -0.0884
19705TIP3    H280531   2.382   3.930   0.586 -0.8361  0.1972  1.7039
19706TIP3   OH280532   4.869   1.933  12.163 -0.1272 -0.3807  0.0560
19706TIP3    H180533   4.908   1.877  12.097  0.7699 -0.4685  0.6400
19706TIP3    H280534   4.931   1.932  12.236 -0.1555  1.2280  0.1530
19707TIP3   OH280535   1.576   1.272  10.896 -0.1811 -0.2958 -0.0653
19707TIP3    H180536   1.567   1.245  10.988  0.8489 -0.6168 -0.0462
19707TIP3    H280537   1.659   1.320  10.893  1.3923 -2.8479 -1.3656
19708TIP3   OH280538   6.553   4.047  16.666  0.0576 -0.2103 -0.2186
19708TIP3    H180539   6.581   4.096  16.589 -1.4984 -1.7438 -1.8372
19708TIP3    H280540   6.619   4.068  16.732  1.3253  1.3329 -1.8662
19709TIP3   OH280541   1.779   6.769  15.136  0.2556  0.7607 -0.4131
19709TIP3    H180542   1.778   6.862  15.112 -0.9382  0.9214  0.1674
19709TIP3    H280543   1.866   6.754  15.171  0.7234  1.4652 -1.2400
19710TIP3   OH280544   5.004   4.033  12.584 -0.7583  0.8339 -0.0613
19710TIP3    H180545   5.032   3.969  12.650 -0.6633 -1.5802 -2.2629
19710TIP3    H280546   4.996   4.115  12.632  2.3024 -0.0640  2.3375
19711TIP3   OH280547   6.656   4.967   4.653 -0.1304  0.4828 -0.4592
19711TIP3    H180548   6.676   4.980   4.746  0.8172 -0.0982 -0.5705
19711TIP3    H280549   6.629   4.875   4.647  1.3329  0.0576 -0.9895
19712TIP3   OH280550   1.551   6.556   4.235  0.1766  0.0283  0.0941
19712TIP3    H180551   1.499   6.562   4.154 -2.2233  0.2513  1.5646
19712TIP3    H280552   1.517   6.478   4.279  1.3498  0.0019  0.9912
19713TIP3   OH280553   2.809   5.696  15.046  0.4726 -0.5325  0.6546
19713TIP3    H180554   2.866   5.643  14.989 -1.8063 -1.1540 -1.1731
19713TIP3    H280555   2.778   5.634  15.111 -0.9965 -1.1627 -0.5863
19714TIP3   OH280556   3.001   2.496  16.264 -0.6527 -0.0534 -0.2046
19714TIP3    H180557   2.996   2.421  16.323 -1.6355  0.8831  0.9479
19714TIP3    H280558   3.089   2.531  16.278 -0.2686 -0.8288 -0.5872
19715TIP3   OH280559   1.824   4.937   1.662  0.0965 -0.0137 -0.6250
19715TIP3    H180560   1.858   4.914   1.575  3.0090  0.0854  0.4009
19715TIP3    H280561   1.874   4.884   1.723 -2.3153 -0.5358  1.0403
19716TIP3   OH280562   4.626   4.905   5.351  0.5885 -1.1729 -0.3641
19716TIP3    H180563   4.534   4.886   5.333  1.1541 -2.4462 -2.1873
19716TIP3    H280564   4.673   4.872   5.274  2.2720  2.6022 -1.1660
19717TIP3   OH280565   0.241   1.906  15.203  0.1397  0.3740 -0.1729
19717TIP3    H180566   0.154   1.914  15.241  0.9178 -1.2859  2.1726
19717TIP3    H280567   0.247   1.814  15.176  1.5396  0.1441  0.8041
19718TIP3   OH280568   1.579   5.286  12.981 -0.4675  0.0554  0.4623
19718TIP3    H180569   1.596   5.360  12.923  0.3345  0.9385  1.7882
19718TIP3    H280570   1.493   5.305  13.018 -0.5038  0.0399  0.3870
19719TIP3   OH280571   1.382   3.404   3.607 -0.4223  0.1749  0.4735
19719TIP3    H180572   1.401   3.469   3.540  3.5571 -0.7992  0.3672
19719TIP3    H280573   1.391   3.320   3.561 -0.5579 -0.4775  1.6031
19720TIP3   OH280574   0.945   0.739  11.058 -0.6464 -0.2044 -0.3896
19720TIP3    H180575   0.992   0.818  11.032 -0.7380  0.5839  1.6391
19720TIP3    H280576   0.983   0.716  11.143 -2.0427 -1.1393  0.0185
19721TIP3   OH280577   2.926   3.636  16.425  0.3145 -0.0039 -0.3163
19721TIP3    H180578   2.914   3.654  16.331  1.2967  1.4679 -0.1905
19721TIP3    H280579   2.843   3.662  16.465  0.1195 -0.0260 -0.7022
19722TIP3   OH280580   3.967   0.400  14.824 -0.0964  0.1442 -0.0212
19722TIP3    H180581   3.983   0.391  14.730 -2.0489 -0.8353 -0.3211
19722TIP3    H280582   4.054   0.404  14.863  0.7520  1.4558 -1.9244
19723TIP3   OH280583   0.878   3.291  15.148  0.0403 -0.0077 -0.4730
19723TIP3    H180584   0.783   3.281  15.147 -0.0176  0.3877  0.3615
19723TIP3    H280585   0.906   3.260  15.062 -0.9775  1.2232 -1.2725
19724TIP3   OH280586   2.425   1.322   4.721 -0.0611  0.4054  0.2594
19724TIP3    H180587   2.349   1.343   4.667 -0.6045  1.7060  1.4911
19724TIP3    H280588   2.410   1.367   4.804  0.9915 -1.1390  1.3458
19725TIP3   OH280589   6.548   3.702  13.863  0.5540 -0.0775 -0.4090
19725TIP3    H180590   6.497   3.759  13.807 -0.2469 -1.3317 -1.0125
19725TIP3    H280591   6.484   3.662  13.922  1.0275 -0.6438 -0.2669
19726TIP3   OH280592   2.439   6.466   0.153 -0.4326  0.2897  0.1629
19726TIP3    H180593   2.418   6.558   0.141 -1.6838 -0.1438 -1.1849
19726TIP3    H280594   2.372   6.433   0.213 -1.1876 -0.1776 -0.9225
19727TIP3   OH280595   4.509   5.384   4.398 -0.2517  0.5075 -0.2507
19727TIP3    H180596   4.471   5.297   4.413 -2.0115  1.5975  2.3016
19727TIP3    H280597   4.436   5.436   4.363  1.1442  0.7164 -3.1353
19728TIP3   OH280598   0.635   1.395  11.881  0.0749 -0.1808  0.3328
19728TIP3    H180599   0.629   1.300  11.870 -0.2696 -0.4137  2.2162
19728TIP3    H280600   0.551   1.428  11.849 -1.0213 -0.8421  2.3276
19729TIP3   OH280601   5.468   3.891   1.466 -0.0045 -0.6782  0.2220
19729TIP3    H180602   5.502   3.963   1.519  1.9259 -0.7496 -0.8196
19729TIP3    H280603   5.436   3.934   1.387  1.2744 -0.9352 -0.4582
19730TIP3   OH280604   0.636   4.350   5.886  0.3509  0.1503  0.3168
19730TIP3    H180605   0.702   4.316   5.825 -0.8495  0.7588 -1.3966
19730TIP3    H280606   0.676   4.430   5.921  0.4944  0.5920 -0.8108
19731TIP3   OH280607   3.470   5.030  12.173  0.2031  0.1791  0.3998
19731TIP3    H180608   3.440   5.119  12.190  1.1452  0.4319  0.7834
19731TIP3    H280609   3.391   4.983  12.148 -0.0505  1.5546 -1.6865
19732TIP3   OH280610   6.042   4.445  15.391 -0.5576 -0.4022  0.0610
19732TIP3    H180611   5.977   4.499  15.346 -1.5794 -1.0154  0.7745
19732TIP3    H280612   6.120   4.451  15.336 -0.9822  0.9228 -0.4353
19733TIP3   OH280613   5.621   4.277  12.522  0.3325  0.0215  0.5893
19733TIP3    H180614   5.639   4.297  12.430 -1.6928  0.6776  0.2730
19733TIP3    H280615   5.586   4.359  12.558 -0.8058 -0.7734  1.3796
19734TIP3   OH280616   0.726   5.270  13.096 -0.1390 -0.2422 -0.3108
19734TIP3    H180617   0.734   5.190  13.045 -1.5718 -0.5220 -0.1174
19734TIP3    H280618   0.705   5.241  13.184  3.4843  0.1630  0.8741
19735TIP3   OH280619   5.953   5.050   1.401 -0.4004  0.2925 -0.0034
19735TIP3    H180620   5.937   5.103   1.323 -0.7889  1.0124  0.5553
19735TIP3    H280621   6.035   5.083   1.437 -0.1675 -0.1090 -0.1567
19736TIP3   OH280622   0.280   4.947  11.713 -0.2778  0.2660  0.3140
19736TIP3    H180623   0.244   4.970  11.627  1.1798  1.1735 -0.1110
19736TIP3    H280624   0.247   4.859  11.730 -0.9429  0.2302 -0.9870
19737TIP3   OH280625   3.127   3.809  11.923 -0.0595  0.9036 -0.1034
19737TIP3    H180626   3.054   3.863  11.893  0.3065  0.9064 -1.0013
19737TIP3    H280627   3.091   3.760  11.997 -0.6912  1.6089  0.0630
19738TIP3   OH280628   4.512   2.782   3.677 -1.0058 -0.0396  0.2015
19738TIP3    H180629   4.529   2.806   3.768 -0.6690  0.2764  0.0568
19738TIP3    H280630   4.599   2.770   3.639 -1.1227  0.6470 -0.2971
19739TIP3   OH280631   6.448   4.947  12.362  0.7189  0.2131  0.0068
19739TIP3    H180632   6.496   4.953  12.279 -0.5872  0.2555 -0.7759
19739TIP3    H280633   6.404   5.031  12.370  1.2676  0.4133  1.0429
19740TIP3   OH280634   0.502   6.198  12.331 -0.2468 -0.7335 -0.2884
19740TIP3    H180635   0.436   6.266  12.346  0.5291 -0.2374  1.0442
19740TIP3    H280636   0.502   6.185  12.236  1.0397  2.6424 -0.8906
19741TIP3   OH280637   2.421   0.359   5.206  0.5780  0.3018 -0.4728
19741TIP3    H180638   2.333   0.339   5.175  0.4745 -0.5906  0.3290
19741TIP3    H280639   2.451   0.277   5.246  2.1537  0.3058 -1.5763
19742TIP3   OH280640   6.140   0.520   0.687  0.7788  0.6038 -0.1195
19742TIP3    H180641   6.191   0.445   0.719 -0.3254  0.7304  2.1028
19742TIP3    H280642   6.156   0.520   0.593  2.6547 -1.0188  0.1180
19743TIP3   OH280643   0.239   3.091  14.942 -0.2545  0.3657  0.4285
19743TIP3    H180644   0.224   3.136  14.859  0.6776 -0.7635 -0.3934
19743TIP3    H280645   0.292   3.014  14.918 -0.3448 -0.2217  2.0079
19744TIP3   OH280646   2.834   1.050  15.405  0.4286  0.0378 -0.3445
19744TIP3    H180647   2.893   0.983  15.440  0.6110 -0.4304 -1.4945
19744TIP3    H280648   2.827   1.114  15.475  0.6331 -0.9435  0.6156
19745TIP3   OH280649   4.179   2.674  11.829 -0.4033 -0.0821 -0.6696
19745TIP3    H180650   4.153   2.687  11.738  0.5342  2.6670 -0.6383
19745TIP3    H280651   4.122   2.733  11.879 -0.8854 -1.5323  0.5596
19746TIP3   OH280652   4.895   5.976   2.829 -0.0724  0.2985  0.2588
19746TIP3    H180653   4.947   6.037   2.776  0.2890  0.2643  0.5647
19746TIP3    H280654   4.884   6.021   2.913  3.3676 -1.4440  1.8833
19747TIP3   OH280655   4.198   6.224  16.327 -0.1876  0.2624  0.1709
19747TIP3    H180656   4.164   6.175  16.402  0.9890 -2.5255 -0.9623
19747TIP3    H280657   4.286   6.251  16.354  0.5672 -1.4661 -0.3909
19748TIP3   OH280658   2.104   0.520  12.239 -0.3916  0.3099  0.2806
19748TIP3    H180659   2.179   0.492  12.187 -1.1357 -0.2474 -0.5159
19748TIP3    H280660   2.102   0.459  12.313 -1.1772 -0.9059 -0.7079
19749TIP3   OH280661   4.201   6.645   0.326  0.2260 -0.3119 -0.5145
19749TIP3    H180662   4.124   6.612   0.280  0.7608  0.2816 -1.9102
19749TIP3    H280663   4.230   6.720   0.273  0.9255  0.3593  0.7666
19750TIP3   OH280664   3.480   0.295   1.043  0.0079 -0.0963 -0.5849
19750TIP3    H180665   3.397   0.329   1.078 -1.2123 -2.5460 -0.8688
19750TIP3    H280666   3.538   0.291   1.119 -0.5751  0.3855 -0.1029
19751TIP3   OH280667   3.412   4.609  10.496 -0.0113 -0.6117 -0.7970
19751TIP3    H180668   3.503   4.630  10.514  0.3919 -1.5202 -1.6713
19751TIP3    H280669   3.415   4.551  10.419 -1.1288 -2.8107  0.6990
19752TIP3   OH280670   3.319   5.424   5.773 -0.8592 -0.0410 -0.2301
19752TIP3    H180671   3.411   5.409   5.752 -0.6499  0.1427  0.5631
19752TIP3    H280672   3.305   5.517   5.755 -0.2705  0.4985  1.9215
19753TIP3   OH280673   2.792   1.597   6.725 -0.0426  0.6280 -0.0203
19753TIP3    H180674   2.802   1.585   6.630  0.3728  0.3080  0.0645
19753TIP3    H280675   2.700   1.574   6.742  0.3384 -1.1350 -0.0803
19754TIP3   OH280676   1.120   3.386  15.000 -0.1863  0.2212 -0.0353
19754TIP3    H180677   1.083   3.383  15.088 -0.3891  0.4211 -0.1139
19754TIP3    H280678   1.131   3.294  14.975  3.4690  0.0151  1.7167
19755TIP3   OH280679   5.887   2.479   3.944 -0.4608 -0.2667 -0.3513
19755TIP3    H180680   5.836   2.440   3.873  0.8358 -3.0516  0.0888
19755TIP3    H280681   5.839   2.452   4.023  0.2278 -0.6302 -0.0520
19756TIP3   OH280682   6.298   5.611   6.487  0.2991  0.0868 -0.4027
19756TIP3    H180683   6.202   5.620   6.486  0.0592 -2.0450 -0.5754
19756TIP3    H280684   6.330   5.701   6.495 -1.7157  0.8050  0.2180
19757TIP3   OH280685   2.225   6.027   0.691 -0.2774 -0.0155 -0.0824
19757TIP3    H180686   2.154   5.983   0.738 -0.3599 -0.5933 -0.7232
19757TIP3    H280687   2.207   6.121   0.702 -1.0116 -0.1546 -0.0446
19758TIP3   OH280688   2.454   1.506   0.095  0.2167 -0.4713  0.3317
19758TIP3    H180689   2.548   1.511   0.114 -0.1567  0.0580  2.2965
19758TIP3    H280690   2.412   1.519   0.180 -1.6667  0.8127 -0.7236
19759TIP3   OH280691   1.315   5.550  13.277 -0.2030  0.7195 -0.2457
19759TIP3    H180692   1.278   5.586  13.358  1.3952  0.5914  0.5819
19759TIP3    H280693   1.250   5.571  13.209 -1.6302  0.7255  1.0751
19760TIP3   OH280694   2.609   5.205   2.760  0.2100 -0.7544 -0.1133
19760TIP3    H180695   2.703   5.204   2.746  1.1623 -1.6655  4.5739
19760TIP3    H280696   2.588   5.116   2.789 -1.4852  0.0836  1.4820
19761TIP3   OH280697   5.414   2.309  17.119  0.2342  0.6284 -0.5517
19761TIP3    H180698   5.490   2.280  17.067  1.4741 -0.0276  1.4991
19761TIP3    H280699   5.426   2.404  17.127  0.2555  0.6769 -1.0783
19762TIP3   OH280700   2.376   0.970  13.432  0.0189 -0.8970 -0.0623
19762TIP3    H180701   2.373   0.881  13.466 -0.8916 -0.3066  1.5393
19762TIP3    H280702   2.388   0.960  13.337 -0.9075 -2.7242 -0.0252
19763TIP3   OH280703   4.752   4.990  12.259  0.3921 -0.3895  0.7339
19763TIP3    H180704   4.752   4.965  12.166  1.1961  0.5035  0.4733
19763TIP3    H280705   4.672   4.952  12.294  0.0119 -0.6361 -0.3570
19764TIP3   OH280706   2.326   6.022   1.351 -0.6772 -0.9642 -0.0409
19764TIP3    H180707   2.353   5.953   1.289 -2.1807 -1.0287 -0.6629
19764TIP3    H280708   2.272   5.976   1.415 -2.5344 -0.2546 -1.0232
19765TIP3   OH280709   0.119   3.736  15.999  0.4291  0.2682  1.1319
19765TIP3    H180710   0.164   3.819  16.016 -0.3891  1.1000 -0.5790
19765TIP3    H280711   0.034   3.746  16.042  0.5919  0.0291  1.5137
19766TIP3   OH280712   1.822   2.830   0.962 -0.1343  0.0132 -0.1957
19766TIP3    H180713   1.895   2.841   1.023  1.2570  0.8178 -1.8929
19766TIP3    H280714   1.746   2.812   1.017  1.2119 -0.1657  1.6849
19767TIP3   OH280715   1.781   3.852  13.086 -0.0930 -0.2949 -0.1322
19767TIP3    H180716   1.713   3.791  13.114 -0.8136  0.5078 -0.0845
19767TIP3    H280717   1.818   3.812  13.007  0.5880 -1.5877  0.8010
19768TIP3   OH280718   6.059   3.241  13.824 -0.5820  0.6599  0.3130
19768TIP3    H180719   6.009   3.303  13.771  1.6852  0.8793 -1.7780
19768TIP3    H280720   6.150   3.270  13.815  0.3260 -1.7281  1.0267
19769TIP3   OH280721   1.740   2.728   0.458 -0.2283  0.0380 -0.2640
19769TIP3    H180722   1.806   2.675   0.415  1.1378  0.5297  1.1245
19769TIP3    H280723   1.708   2.673   0.529  0.1336  0.5024  0.2740
19770TIP3   OH280724   5.049   3.876   3.446 -0.0747  0.4746  0.3553
19770TIP3    H180725   5.107   3.801   3.429 -0.7836 -0.0229  0.0735
19770TIP3    H280726   5.076   3.908   3.532 -0.2491 -0.5879  0.8260
19771TIP3   OH280727   4.720   2.379  16.754 -0.0852 -0.1533  0.0213
19771TIP3    H180728   4.690   2.328  16.830 -0.9861  1.6170  0.9180
19771TIP3    H280729   4.813   2.395  16.772 -0.0417 -0.6097  0.2248
19772TIP3   OH280730   1.218   0.292   3.082  0.1953  0.0637  0.7271
19772TIP3    H180731   1.258   0.295   2.995  0.4717 -2.4750  0.6962
19772TIP3    H280732   1.293   0.296   3.143  0.0751  0.8116  0.8336
19773TIP3   OH280733   0.184   4.972   3.012 -0.0095  0.5697  0.0807
19773TIP3    H180734   0.123   4.917   2.965  1.5178 -0.9611 -0.2155
19773TIP3    H280735   0.141   4.990   3.096 -0.6424 -0.9268  0.1014
19774TIP3   OH280736   5.438   5.940  16.821  0.5724  0.1073  0.1965
19774TIP3    H180737   5.447   6.035  16.814  2.5867  0.2043  2.7487
19774TIP3    H280738   5.343   5.926  16.828  0.2028  1.8497 -0.6208
19775TIP3   OH280739   5.192   5.897  13.611 -0.1982  0.3247 -0.0250
19775TIP3    H180740   5.136   5.970  13.584  1.7108  2.5830  1.6399
19775TIP3    H280741   5.277   5.917  13.573  0.4521 -0.8498  0.7544
19776TIP3   OH280742   2.882   5.655  11.835  0.3887  0.7832 -0.7602
19776TIP3    H180743   2.866   5.734  11.887  0.5249  1.2653 -1.4397
19776TIP3    H280744   2.950   5.680  11.773  0.5284  0.0860 -0.9011
19777TIP3   OH280745   3.049   5.711   4.270 -0.3908  0.2573  0.3225
19777TIP3    H180746   3.104   5.769   4.323 -1.7352 -0.0466  2.1536
19777TIP3    H280747   3.092   5.709   4.184  0.0177  3.5112  0.3074
19778TIP3   OH280748   0.410   4.615   1.140 -0.8971  0.1690  0.3482
19778TIP3    H180749   0.396   4.551   1.209 -0.3681 -0.9180 -0.5088
19778TIP3    H280750   0.504   4.635   1.144 -0.9386  0.3996  0.2102
19779TIP3   OH280751   6.115   0.142  13.305 -0.2010 -0.1069  0.5446
19779TIP3    H180752   6.098   0.050  13.286 -1.2171 -0.0297  0.9610
19779TIP3    H280753   6.209   0.147  13.321  0.0712 -0.8344 -0.7103
19780TIP3   OH280754   4.522   2.681  11.063  0.1097 -0.4018 -0.4885
19780TIP3    H180755   4.477   2.735  10.998  2.2030  1.5747 -0.4375
19780TIP3    H280756   4.615   2.689  11.040  0.7200 -1.6937  1.2948
19781TIP3   OH280757   6.541   1.035   0.476 -0.0583  0.3437  0.5501
19781TIP3    H180758   6.533   0.977   0.551  0.2839 -1.3323 -0.6595
19781TIP3    H280759   6.589   0.984   0.410  0.1709  1.9588 -0.6131
19782TIP3   OH280760   2.944   2.336   6.107  0.0574 -0.6595  0.6768
19782TIP3    H180761   2.953   2.355   6.200  0.0731 -0.0305  0.5519
19782TIP3    H280762   2.933   2.241   6.102 -1.8924 -0.5030  1.4725
19783TIP3   OH280763   0.010   4.685   0.010  0.0147 -0.0704  0.2309
19783TIP3    H180764  -0.003   4.590   0.019  1.3023 -0.2125  0.7258
19783TIP3    H280765   0.087   4.704   0.064 -0.0929  1.2294 -0.0452
19784TIP3   OH280766   3.852   3.446  12.782  0.0365  0.5211  0.6554
19784TIP3    H180767   3.867   3.539  12.799  0.3906  0.4896  0.5251
19784TIP3    H280768   3.916   3.423  12.714  0.9671 -0.1448  1.7090
19785TIP3   OH280769   4.672   6.080  17.131 -0.3577 -0.1977  0.1424
19785TIP3    H180770   4.637   6.115  17.213  0.7729  0.0260  0.5413
19785TIP3    H280771   4.682   6.157  17.075 -1.9970 -0.4530 -0.5740
19786TIP3   OH280772   4.323   2.290   1.748 -0.0214  0.3952  0.3827
19786TIP3    H180773   4.414   2.320   1.751 -0.0420  0.5136  0.0062
19786TIP3    H280774   4.287   2.334   1.670 -0.1772 -0.2683  0.0709
19787TIP3   OH280775   6.304   3.852  13.806  0.7574  0.3625 -0.5726
19787TIP3    H180776   6.291   3.940  13.770  0.3738  0.4328 -0.2721
19787TIP3    H280777   6.230   3.802  13.772  0.4832  0.3875 -0.0193
19788TIP3   OH280778   2.736   2.289  16.970  0.1284  0.0329 -0.5237
19788TIP3    H180779   2.652   2.247  16.990  0.8395 -1.5784 -0.7333
19788TIP3    H280780   2.729   2.314  16.878  0.0722 -0.6252 -0.7050
19789TIP3   OH280781   2.424   2.585   0.619  0.3125  0.4469  0.2250
19789TIP3    H180782   2.513   2.617   0.602  1.2301 -2.0374  0.0200
19789TIP3    H280783   2.433   2.523   0.691 -0.3993 -3.1994 -2.5397
19790TIP3   OH280784   0.480   2.636  11.813  0.5729 -0.3925  0.3223
19790TIP3    H180785   0.395   2.654  11.854 -0.5466 -1.6519 -1.3165
19790TIP3    H280786   0.476   2.543  11.790  1.9775 -0.2184 -0.7370
19791TIP3   OH280787   1.802   1.510   4.594  0.1577 -0.0226  0.0638
19791TIP3    H180788   1.739   1.514   4.522  0.9794 -1.1515 -0.7618
19791TIP3    H280789   1.883   1.546   4.557  1.2863 -2.7940 -0.4286
19792TIP3   OH280790   6.571   2.425  15.370  0.2698 -0.0236  0.3279
19792TIP3    H180791   6.569   2.395  15.461  1.2085 -1.0234  0.0407
19792TIP3    H280792   6.492   2.479  15.361  0.5789  0.7483  1.9382
19793TIP3   OH280793   5.926   5.134   1.140 -0.5507  0.4093 -0.5047
19793TIP3    H180794   5.983   5.142   1.063  0.8853 -0.9152  0.3803
19793TIP3    H280795   5.891   5.046   1.135  0.1343  0.0443  0.7176
19794TIP3   OH280796   4.490   0.296   2.541 -0.5745 -0.0422 -0.7873
19794TIP3    H180797   4.460   0.249   2.462 -2.2879 -3.5431  1.6694
19794TIP3    H280798   4.428   0.368   2.550 -0.4071  0.3745 -2.5495
19795TIP3   OH280799   1.091   3.464  10.636  0.1910  0.5444 -0.1754
19795TIP3    H180800   0.999   3.477  10.613  0.3584  1.4508 -0.3925
19795TIP3    H280801   1.113   3.542  10.688  0.5315 -0.2078  0.8342
19796TIP3   OH280802   3.861   2.052   4.239 -0.2054  0.2788  0.3318
19796TIP3    H180803   3.806   2.069   4.315 -1.3610  1.9862 -0.8159
19796TIP3    H280804   3.803   2.060   4.164  0.4976 -3.1179 -0.7597
19797TIP3   OH280805   6.537   5.781  14.932 -0.3279 -0.5047  0.3706
19797TIP3    H180806   6.445   5.769  14.911 -0.6836 -0.3799  1.7617
19797TIP3    H280807   6.543   5.871  14.963 -0.3087 -1.2911  2.8862
19798TIP3   OH280808   0.577   0.535   4.991  0.1506  0.2807 -0.3927
19798TIP3    H180809   0.516   0.606   5.012 -0.3233  0.2577 -1.5966
19798TIP3    H280810   0.521   0.459   4.974  0.7202 -1.1552  3.3456
19799TIP3   OH280811   0.547   2.721  17.152  0.0211 -0.2952 -0.3302
19799TIP3    H180812   0.621   2.705  17.211  2.3898  1.4257 -2.5637
19799TIP3    H280813   0.470   2.694  17.202  1.9888 -0.7843  2.7414
19800TIP3   OH280814   1.768   6.551   2.338  0.2482  0.2432 -0.1098
19800TIP3    H180815   1.814   6.554   2.422  0.4637  2.7436 -0.2375
19800TIP3    H280816   1.678   6.529   2.361  0.1537  1.5267  0.9192
19801TIP3   OH280817   3.702   5.322  11.877 -0.4898  0.1216 -0.0922
19801TIP3    H180818   3.669   5.331  11.788 -1.3947  0.1768  0.2383
19801TIP3    H280819   3.786   5.278  11.867 -0.2327  0.7995 -1.0288
19802TIP3   OH280820   1.092   0.305  12.805  0.2598  0.3836 -0.1683
19802TIP3    H180821   1.147   0.326  12.880  0.7009  0.3100 -0.4689
19802TIP3    H280822   1.138   0.343  12.730  0.4561 -0.6171 -0.5628
19803TIP3   OH280823   6.308   4.361   5.607 -0.1824  0.0672 -0.1499
19803TIP3    H180824   6.360   4.326   5.679 -0.8907  0.3261  0.4980
19803TIP3    H280825   6.233   4.302   5.599 -0.2446  0.1870 -0.5002
19804TIP3   OH280826   1.709   2.177  13.407 -0.0984  0.0816 -0.1968
19804TIP3    H180827   1.659   2.162  13.488 -1.4753  0.8302 -0.8790
19804TIP3    H280828   1.709   2.091  13.364 -0.2252 -0.0875  0.1303
19805TIP3   OH280829   0.882   3.750   2.852  0.3526  0.0358 -0.5808
19805TIP3    H180830   0.831   3.827   2.878 -1.8221 -1.5470  0.1172
19805TIP3    H280831   0.875   3.749   2.757  0.9849  1.0577 -0.6561
19806TIP3   OH280832   2.838   1.713   3.915 -0.1343  0.1411  0.0557
19806TIP3    H180833   2.904   1.643   3.912  0.2815  0.4262  1.7526
19806TIP3    H280834   2.771   1.680   3.974  0.0343  1.1392  0.8173
19807TIP3   OH280835   5.887   1.223   3.140  0.3026 -0.1611  0.3143
19807TIP3    H180836   5.847   1.149   3.095 -0.5461  0.0184  0.7392
19807TIP3    H280837   5.830   1.297   3.119 -0.2800 -0.1248  1.8893
19808TIP3   OH280838   2.736   4.247   2.474 -0.1925 -0.3483  0.5750
19808TIP3    H180839   2.775   4.236   2.561 -0.6031  0.5503  0.8852
19808TIP3    H280840   2.642   4.238   2.490 -0.2038 -1.4441  0.0057
19809TIP3   OH280841   4.531   1.023   4.530 -0.2276  0.1759 -0.0233
19809TIP3    H180842   4.441   1.053   4.538 -0.1555  0.1228  1.1373
19809TIP3    H280843   4.540   0.956   4.598  0.6287  0.0463 -0.2522
19810TIP3   OH280844   5.898   2.886  13.125 -0.6936  0.1172 -0.1013
19810TIP3    H180845   5.817   2.851  13.162 -1.2051  0.6323 -0.7083
19810TIP3    H280846   5.955   2.809  13.115 -0.0638  0.0984  2.7988
19811TIP3   OH280847   0.006   4.268  12.277  0.2418  0.2128  0.2026
19811TIP3    H180848  -0.034   4.277  12.364 -0.3219  1.5913 -0.1697
19811TIP3    H280849  -0.004   4.175  12.256  2.0604 -0.5821  2.3777
19812TIP3   OH280850   6.232   6.187   0.714  0.5396 -0.0365  0.0960
19812TIP3    H180851   6.311   6.134   0.703 -0.0260 -0.8849 -0.0395
19812TIP3    H280852   6.205   6.208   0.624 -0.1214 -0.8990  0.0754
19813TIP3   OH280853   1.510   1.539  13.642 -0.2433  0.2551  0.0227
19813TIP3    H180854   1.421   1.574  13.638  0.4217  1.9155 -1.8460
19813TIP3    H280855   1.554   1.577  13.566  2.0785 -0.4918  0.9176
19814TIP3   OH280856   3.752   5.896  14.753 -0.0344 -0.1011  0.1172
19814TIP3    H180857   3.752   5.992  14.753  0.9390  0.0631  3.8891
19814TIP3    H280858   3.838   5.871  14.787 -0.6324 -2.2744  0.2159
19815TIP3   OH280859   3.216   1.378   0.012  0.2075 -0.1803 -0.2940
19815TIP3    H180860   3.140   1.331   0.046  0.5414 -0.7735 -0.3515
19815TIP3    H280861   3.244   1.435   0.084 -1.4987  1.5870 -0.9300
19816TIP3   OH280862   1.573   3.602  11.300 -0.1715 -0.4913  0.1728
19816TIP3    H180863   1.610   3.566  11.219  0.1168  0.5133 -0.1566
19816TIP3    H280864   1.513   3.534  11.332 -1.9489 -0.0601 -2.0178
19817TIP3   OH280865   2.296   4.155   1.898 -0.4223 -0.0661 -0.2610
19817TIP3    H180866   2.309   4.235   1.848 -1.3231 -0.2469 -0.8077
19817TIP3    H280867   2.223   4.175   1.957 -0.4931 -0.4084 -0.2292
19818TIP3   OH280868   4.552   4.724  12.576  0.0257 -0.0982 -0.0385
19818TIP3    H180869   4.481   4.665  12.599  1.3832 -1.0715  1.8640
19818TIP3    H280870   4.611   4.671  12.522  0.1119  0.2408 -0.2855
19819TIP3   OH280871   0.793   2.628  16.233 -0.0271 -0.0244  0.4862
19819TIP3    H180872   0.733   2.609  16.305 -0.6665 -0.1593 -0.0707
19819TIP3    H280873   0.837   2.545  16.217  0.2476  0.0499  0.8314
19820TIP3   OH280874   4.744   2.765  12.811  0.2006  0.1539 -0.6072
19820TIP3    H180875   4.699   2.849  12.798  1.0809  1.1195  2.0677
19820TIP3    H280876   4.679   2.709  12.853  0.4802  0.4476  0.2191
19821TIP3   OH280877   6.772   2.910  16.307 -0.1331  0.3234 -0.2110
19821TIP3    H180878   6.721   2.830  16.311 -0.9440  0.8993  1.8642
19821TIP3    H280879   6.708   2.981  16.318  0.7209  1.2189 -0.7600
19822TIP3   OH280880   0.076   0.877  11.676 -0.4299  0.0562 -0.6210
19822TIP3    H180881   0.141   0.916  11.618  0.5406 -3.2611 -2.0588
19822TIP3    H280882  -0.008   0.893  11.633 -0.0423  0.3574 -1.2790
19823TIP3   OH280883   4.256   0.494  16.457  0.5604 -0.1429  0.5876
19823TIP3    H180884   4.347   0.501  16.484  0.8908 -2.3167  0.2930
19823TIP3    H280885   4.207   0.544  16.523  1.8866  0.3717  1.2198
19824TIP3   OH280886   6.357   5.457  16.645 -0.1780 -0.0602  0.3059
19824TIP3    H180887   6.296   5.520  16.684 -1.2288 -0.2138 -1.0199
19824TIP3    H280888   6.411   5.509  16.585 -0.0997 -0.1972  0.2563
19825TIP3   OH280889   2.408   6.209  15.038  0.6363 -0.0464 -0.1777
19825TIP3    H180890   2.476   6.158  15.081  0.9568  1.3852  1.1050
19825TIP3    H280891   2.354   6.242  15.109  0.3269  1.2248 -0.9618
19826TIP3   OH280892   5.421   0.436   3.187 -0.1919 -0.1495 -0.5592
19826TIP3    H180893   5.409   0.398   3.274 -0.0543 -0.6557 -0.7534
19826TIP3    H280894   5.379   0.522   3.191  1.4243  0.6388  0.5842
19827TIP3   OH280895   6.654   2.644  13.267  0.6151  0.2158  0.2454
19827TIP3    H180896   6.707   2.586  13.213 -0.4536  0.7172 -1.4274
19827TIP3    H280897   6.600   2.585  13.320  1.4678 -0.2907  0.5701
19828TIP3   OH280898   0.927   4.393   2.166  0.2043  0.3586  0.3464
19828TIP3    H180899   0.984   4.345   2.225  0.0857  1.3253  1.2896
19828TIP3    H280900   0.882   4.325   2.115  2.0973 -0.4093 -0.3581
19829TIP3   OH280901   3.658   5.074  15.312  0.1896  0.2880  0.2085
19829TIP3    H180902   3.563   5.085  15.322  0.5168  2.1409  1.7301
19829TIP3    H280903   3.668   4.982  15.285 -1.9018 -0.6403  2.2363
19830TIP3   OH280904   5.550   4.558   5.128  0.0244  0.5081 -0.1013
19830TIP3    H180905   5.473   4.573   5.183  0.6961  0.0649  0.9985
19830TIP3    H280906   5.514   4.534   5.042 -1.0478  0.6925  0.2791
19831TIP3   OH280907   3.190   0.935   5.473 -0.2455 -0.1443  0.3469
19831TIP3    H180908   3.096   0.938   5.490 -0.4363 -0.0171 -0.6351
19831TIP3    H280909   3.196   0.920   5.378  0.7212 -0.1444  0.4005
19832TIP3   OH280910   1.634   3.858   1.521 -0.0033 -0.6662  0.1536
19832TIP3    H180911   1.669   3.812   1.597  3.4967  1.3772 -0.0152
19832TIP3    H280912   1.576   3.925   1.558  1.0733 -0.1798  1.0065
19833TIP3   OH280913   0.441   0.576   2.897  0.9315 -0.2038  0.0133
19833TIP3    H180914   0.354   0.565   2.860  0.3050  1.4972  0.8534
19833TIP3    H280915   0.454   0.498   2.951  0.6222 -1.2428 -1.3648
19834TIP3   OH280916   3.321   3.173  13.847 -0.1887 -0.0349  0.5462
19834TIP3    H180917   3.302   3.130  13.764 -2.2112  0.5573  0.6492
19834TIP3    H280918   3.292   3.264  13.833  1.8868  0.7633  1.0637
19835TIP3   OH280919   6.118   0.094  15.739  0.1783 -0.4360  0.7922
19835TIP3    H180920   6.074   0.178  15.722  1.4852  0.2309  0.5272
19835TIP3    H280921   6.048   0.029  15.736 -0.6259  0.4355 -0.8134
19836TIP3   OH280922   4.757   4.015  12.806  0.6429  0.2642 -0.3424
19836TIP3    H180923   4.828   3.991  12.865  1.3066  1.3775 -0.6580
19836TIP3    H280924   4.680   4.023  12.863  0.9532 -0.0765  0.1362
19837TIP3   OH280925   4.430   0.955   0.900  0.1791 -0.8248  0.5297
19837TIP3    H180926   4.477   0.909   0.970  2.7599 -0.9593 -1.1677
19837TIP3    H280927   4.439   0.899   0.824 -1.7749 -0.2499 -0.1810
19838TIP3   OH280928   4.529   5.792   2.868  0.6119 -0.2927 -0.7342
19838TIP3    H180929   4.509   5.840   2.948  3.3455 -0.5033  0.1708
19838TIP3    H280930   4.444   5.758   2.839 -0.5026 -0.0884  1.9846
19839TIP3   OH280931   6.007   1.113  11.115  0.3114 -0.0697  0.2286
19839TIP3    H180932   6.008   1.019  11.099  1.4692 -0.0467  0.0342
19839TIP3    H280933   5.915   1.135  11.128 -0.1285 -0.9869 -1.1128
19840TIP3   OH280934   2.892   2.808  11.916 -0.1575 -0.6289  0.8105
19840TIP3    H180935   2.944   2.796  11.996 -0.0790 -1.8669  0.5902
19840TIP3    H280936   2.917   2.735  11.860 -1.6745 -0.8962  0.4461
19841TIP3   OH280937   0.201   6.673  15.724 -0.3187 -0.6192  0.5661
19841TIP3    H180938   0.186   6.597  15.780  0.6202 -1.1339  0.1453
19841TIP3    H280939   0.158   6.652  15.642 -1.1139 -0.1579  0.8591
19842TIP3   OH280940   5.569   0.858   4.301 -0.0773  0.6464 -0.3038
19842TIP3    H180941   5.630   0.882   4.371  0.8747 -2.1978 -0.0277
19842TIP3    H280942   5.486   0.845   4.345  0.5990 -1.4972  0.5008
19843TIP3   OH280943   4.815   4.718  11.316  0.0232  0.0323 -0.2431
19843TIP3    H180944   4.895   4.696  11.365 -0.3959 -1.0584 -0.0232
19843TIP3    H280945   4.757   4.756  11.381  0.5030  1.2592 -0.4919
19844TIP3   OH280946   5.551   1.732   1.070  0.3242 -0.3016  0.4086
19844TIP3    H180947   5.615   1.660   1.072  2.0469  1.0052 -2.1977
19844TIP3    H280948   5.509   1.724   0.984 -2.7911 -0.7666  1.8019
19845TIP3   OH280949   3.913   3.556   4.621 -0.4084 -0.3996 -0.5023
19845TIP3    H180950   3.870   3.635   4.655  0.3546 -0.2223  0.0626
19845TIP3    H280951   3.999   3.556   4.661  0.0450 -0.8854 -1.4378
19846TIP3   OH280952   5.853   0.694   2.495 -0.2652 -0.2000  0.2633
19846TIP3    H180953   5.768   0.698   2.452 -0.6539  2.6311  1.0661
19846TIP3    H280954   5.834   0.664   2.584  0.1783 -3.3279 -0.5855
19847TIP3   OH280955   0.074   2.418  16.051  0.1640  0.4218 -0.3156
19847TIP3    H180956  -0.006   2.373  16.078  0.9111 -0.4158  0.6228
19847TIP3    H280957   0.047   2.508  16.034 -0.7677  0.4883  1.2780
19848TIP3   OH280958   2.190   3.244  16.144 -0.3133  0.5119 -0.4495
19848TIP3    H180959   2.220   3.189  16.217  1.7020 -0.2366 -1.7705
19848TIP3    H280960   2.190   3.333  16.179 -0.8825  0.0193  0.8895
19849TIP3   OH280961   1.306   3.639  15.364  0.3011 -0.0874 -0.1314
19849TIP3    H180962   1.399   3.649  15.379  0.4904  0.6745 -1.5685
19849TIP3    H280963   1.294   3.546  15.344  0.4126 -0.5883  1.9857
19850TIP3   OH280964   6.040   4.753   1.450 -0.1481 -0.6595 -0.3390
19850TIP3    H180965   5.992   4.686   1.401  0.1246 -1.5672  0.6047
19850TIP3    H280966   5.976   4.823   1.463 -0.8887 -1.3680 -0.0715
19851TIP3   OH280967   0.415   1.540  14.301 -0.3818 -0.2701  0.7577
19851TIP3    H180968   0.440   1.620  14.348  3.8901 -0.4105 -0.8373
19851TIP3    H280969   0.451   1.469  14.354 -0.4382 -0.8409  0.0333
19852TIP3   OH280970   0.779   3.198   3.256 -0.2541  0.6602  0.4112
19852TIP3    H180971   0.865   3.216   3.295 -0.3213  3.9431 -0.6426
19852TIP3    H280972   0.720   3.193   3.331  0.5085  0.6329  1.0322
19853TIP3   OH280973   2.620   3.485  10.994  0.0392 -0.2763 -0.1939
19853TIP3    H180974   2.656   3.554  10.939  0.3322 -0.1070  0.2051
19853TIP3    H280975   2.625   3.406  10.939 -1.2452  0.1944 -1.0206
19854TIP3   OH280976   2.605   5.724   4.544  0.2685  0.6125 -0.0147
19854TIP3    H180977   2.541   5.765   4.487  0.5647  1.1834  0.0548
19854TIP3    H280978   2.685   5.721   4.492  0.2118 -0.0158 -0.0702
19855TIP3   OH280979   5.617   5.565  11.416  0.2122  0.2327  0.3375
19855TIP3    H180980   5.562   5.618  11.359  0.6670  1.1318  0.7119
19855TIP3    H280981   5.600   5.475  11.389  1.0830  0.6533 -1.8292
19856TIP3   OH280982   1.966   2.175   2.692 -0.0037 -0.0357 -0.4363
19856TIP3    H180983   1.898   2.219   2.744  0.9971  0.1580  0.7367
19856TIP3    H280984   1.921   2.150   2.611 -1.2427  0.8932 -0.0673
19857TIP3   OH280985   0.996   3.776   5.746  0.0670 -0.0651  0.0056
19857TIP3    H180986   0.973   3.696   5.793  1.1438 -2.3699 -3.0410
19857TIP3    H280987   0.913   3.807   5.710 -0.0710 -1.2004 -0.7047
19858TIP3   OH280988   3.679   4.503  12.154 -0.0732  0.1169 -0.4160
19858TIP3    H180989   3.644   4.579  12.109  1.9244  0.1446 -2.0621
19858TIP3    H280990   3.740   4.539  12.219  0.2370 -0.0390 -0.6173
19859TIP3   OH280991   0.558   4.054  13.820 -0.2153  0.1600 -0.8774
19859TIP3    H180992   0.626   4.091  13.764  0.1730  0.8442  0.0174
19859TIP3    H280993   0.574   3.960  13.819  0.5540  0.2846 -0.9140
19860TIP3   OH280994   1.993   0.340   4.038  0.0889 -0.1526 -0.2031
19860TIP3    H180995   1.905   0.353   4.072  0.1185  1.2668 -0.6018
19860TIP3    H280996   2.048   0.328   4.116 -0.3432 -0.3066  0.0793
19861TIP3   OH280997   4.169   2.173  14.849  0.3268 -0.0970  0.4548
19861TIP3    H180998   4.229   2.241  14.817  1.0621 -0.3770  1.2027
19861TIP3    H280999   4.087   2.191  14.804  1.0873  0.0329 -0.9493
19862TIP3   OH281000   3.170   6.713  15.582 -0.2442  0.7057  0.4049
19862TIP3    H181001   3.247   6.763  15.610  0.2037 -0.2217  0.8459
19862TIP3    H281002   3.185   6.624  15.614 -1.4569  0.4845  0.4125
19863TIP3   OH281003   0.223   0.308  15.774 -0.1008  1.0334 -0.4104
19863TIP3    H181004   0.164   0.383  15.768  0.7848  1.6781 -1.2995
19863TIP3    H281005   0.274   0.323  15.853 -2.6018 -0.6731  1.6930
19864TIP3   OH281006   0.889   1.276  12.215  0.4934 -0.7715 -0.1569
19864TIP3    H181007   0.934   1.349  12.172  0.3555  0.6751  2.0274
19864TIP3    H281008   0.812   1.315  12.255 -0.1526 -2.3291  0.1932
19865TIP3   OH281009   6.715   4.697  15.879 -0.1986  0.3009 -0.2282
19865TIP3    H181010   6.726   4.789  15.903 -1.2256  0.8024 -1.5699
19865TIP3    H281011   6.804   4.666  15.861 -0.0025  1.6119 -1.7060
19866TIP3   OH281012   6.497   0.418   2.785  0.3365  0.1274 -0.0275
19866TIP3    H181013   6.530   0.349   2.727  0.1867 -0.1260  0.1823
19866TIP3    H281014   6.421   0.378   2.828 -1.1725  1.1783 -1.5871
19867TIP3   OH281015   6.085   2.503  12.922  0.1210 -0.2543  0.2242
19867TIP3    H181016   6.116   2.457  13.000  1.4325  0.9529  0.4678
19867TIP3    H281017   5.995   2.528  12.942  0.9156  1.3640  2.0223
19868TIP3   OH281018   2.463   5.775  14.165  0.3300  0.3202  0.2452
19868TIP3    H181019   2.443   5.690  14.203  2.9615 -0.1188  0.8856
19868TIP3    H281020   2.394   5.833  14.196 -0.3940 -1.1432  1.4906
19869TIP3   OH281021   4.852   1.537   2.971 -0.2426 -0.0009 -0.0673
19869TIP3    H181022   4.898   1.609   2.928  1.0875  0.5574  2.1477
19869TIP3    H281023   4.763   1.540   2.934  0.4405  1.2114 -1.7644
19870TIP3   OH281024   1.091   0.183   4.470  0.0233 -0.0169  0.1024
19870TIP3    H181025   1.089   0.258   4.409  0.5826 -0.7481 -0.8492
19870TIP3    H281026   1.086   0.223   4.557 -0.2600  1.0954 -0.4006
19871TIP3   OH281027   1.661   0.997  14.297 -0.1454 -0.4738  0.0879
19871TIP3    H181028   1.655   0.925  14.359 -1.6332 -1.0649 -0.6888
19871TIP3    H281029   1.622   0.963  14.217  1.2823  0.4178 -1.0520
19872TIP3   OH281030   0.366   0.378  11.815  0.2909  0.3995 -0.0522
19872TIP3    H181031   0.318   0.300  11.786  2.4054 -0.9536 -0.1647
19872TIP3    H281032   0.385   0.426  11.735 -0.6449  0.8373 -0.0260
19873TIP3   OH281033   1.722   0.835  13.007  0.3495  0.4342 -0.1759
19873TIP3    H181034   1.741   0.854  12.916 -2.4352  0.3790 -0.8389
19873TIP3    H281035   1.673   0.911  13.038  0.3996  0.0140  0.9908
19874TIP3   OH281036   4.941   4.755  16.149  0.6796 -0.5078  0.1672
19874TIP3    H181037   4.896   4.693  16.092 -1.4135  0.8334  0.2179
19874TIP3    H281038   5.008   4.795  16.093  1.2286 -1.9194 -0.2040
19875TIP3   OH281039   2.117   4.146   1.039  0.4430 -0.2224 -0.6989
19875TIP3    H181040   2.119   4.108   0.951 -0.8215 -2.5202  0.1630
19875TIP3    H281041   2.118   4.240   1.026  0.0213 -0.5135 -3.1834
19876TIP3   OH281042   1.412   3.929  12.124  0.1497 -0.0304 -0.4958
19876TIP3    H181043   1.371   3.845  12.143  1.7973 -0.7990 -0.2096
19876TIP3    H281044   1.495   3.927  12.171  0.3342  1.6734 -0.6746
19877TIP3   OH281045   1.899   0.739   2.106  0.0799  0.1213 -0.2182
19877TIP3    H181046   1.811   0.700   2.114  0.6565 -1.1165  0.3730
19877TIP3    H281047   1.931   0.743   2.197  0.5455  0.7693 -0.4092
19878TIP3   OH281048   1.223   4.693   0.114 -0.1425  0.0007 -0.0752
19878TIP3    H181049   1.142   4.706   0.065 -1.0848 -0.0860  1.4250
19878TIP3    H281050   1.243   4.779   0.150  0.6913  0.1213 -0.7809
19879TIP3   OH281051   4.469   4.279   0.953 -0.2092 -0.3995  0.2903
19879TIP3    H181052   4.483   4.299   1.045  1.1646  0.1296 -0.0152
19879TIP3    H281053   4.434   4.360   0.915  2.5319  0.6001 -0.3293
19880TIP3   OH281054   4.974   0.628   5.484 -0.2654  0.2944  0.1132
19880TIP3    H181055   4.895   0.581   5.510 -0.0756 -0.7365 -1.0588
19880TIP3    H281056   4.990   0.690   5.555 -1.1759 -0.6308  1.1597
19881TIP3   OH281057   1.066   2.450   1.250  0.1045 -0.7123 -0.0564
19881TIP3    H181058   1.143   2.472   1.302 -0.7526 -0.2713  1.0540
19881TIP3    H281059   1.061   2.354   1.254  2.7674 -1.1887 -3.3591
19882TIP3   OH281060   5.806   5.478   2.806  0.1318 -0.3277  0.4823
19882TIP3    H181061   5.737   5.472   2.740 -0.9140  1.1891  1.3826
19882TIP3    H281062   5.852   5.395   2.800  0.0727 -0.2567 -2.1466
19883TIP3   OH281063   0.680   0.453  16.555 -0.2633  0.1877  0.1417
19883TIP3    H181064   0.774   0.459  16.540 -0.2735  1.4003  0.4989
19883TIP3    H281065   0.645   0.415  16.474  0.3143  1.5332 -0.7823
19884TIP3   OH281066   0.703   4.175   4.371 -0.4074 -0.4829 -0.3372
19884TIP3    H181067   0.769   4.222   4.320 -0.3857  0.4955  0.5597
19884TIP3    H281068   0.753   4.122   4.433 -0.4444 -1.2726 -0.9650
19885TIP3   OH281069   5.792   2.249  15.424  0.2228 -0.1252  0.0158
19885TIP3    H181070   5.806   2.314  15.355  0.6550  0.6712  0.8296
19885TIP3    H281071   5.797   2.165  15.380 -0.1829  0.3911 -1.0405
19886TIP3   OH281072   4.831   2.810  15.873  0.8718 -0.3043  0.1904
19886TIP3    H181073   4.827   2.897  15.833  1.2175 -1.2603 -2.0574
19886TIP3    H281074   4.918   2.805  15.911  0.2367  0.9403  1.8951
19887TIP3   OH281075   1.637   4.821  12.852 -0.3281 -0.2514 -0.3342
19887TIP3    H181076   1.611   4.902  12.896  1.3651  1.2450 -1.8823
19887TIP3    H281077   1.559   4.793  12.806 -0.7703  0.9037 -0.3326
19888TIP3   OH281078   2.056   1.230   3.873 -0.3021 -0.6393  0.3717
19888TIP3    H181079   2.056   1.136   3.854 -3.0421 -0.5268 -0.6754
19888TIP3    H281080   2.106   1.269   3.801  0.4695 -1.2214  0.5738
19889TIP3   OH281081   3.302   6.408  12.084  0.2383 -0.0671 -0.0775
19889TIP3    H181082   3.218   6.396  12.129 -0.3806 -1.7264 -1.5446
19889TIP3    H281083   3.277   6.421  11.992  1.5379  1.4364 -0.2568
19890TIP3   OH281084   3.940   5.894  13.305 -0.1579 -0.3792 -0.0847
19890TIP3    H181085   3.927   5.869  13.213 -0.2042  0.2104 -0.2414
19890TIP3    H281086   3.860   5.939  13.329  0.2460  0.3281 -0.0505
19891TIP3   OH281087   1.192   3.152   5.140 -0.0301 -0.7154 -0.3627
19891TIP3    H181088   1.134   3.150   5.216 -0.5421  1.4361 -0.6328
19891TIP3    H281089   1.134   3.138   5.066  0.1749 -0.9465 -0.4791
19892TIP3   OH281090   5.216   2.365   0.843 -0.2760 -0.7421  0.3562
19892TIP3    H181091   5.295   2.406   0.879 -2.1977  2.0281  1.7993
19892TIP3    H281092   5.150   2.377   0.911 -2.3269 -1.5888 -1.3815
19893TIP3   OH281093   2.013   3.075   5.809 -0.4348  0.2818  0.3683
19893TIP3    H181094   1.980   3.032   5.887 -2.2750 -0.9603 -1.0224
19893TIP3    H281095   1.973   3.162   5.810 -0.9265  0.0561  0.5256
19894TIP3   OH281096   3.357   1.969   2.364  0.0062 -0.0767  0.0022
19894TIP3    H181097   3.378   1.900   2.427 -0.0317  0.9886  1.2150
19894TIP3    H281098   3.268   1.948   2.335  0.4488 -1.2203 -0.6026
19895TIP3   OH281099   6.213   2.257   1.704  0.0778 -0.0737  0.3229
19895TIP3    H181100   6.171   2.334   1.744  0.7824 -0.4434  1.8504
19895TIP3    H281101   6.154   2.185   1.724  1.4041 -0.6327  2.6550
19896TIP3   OH281102   1.146   2.966  11.112  0.3307 -0.1079  0.1053
19896TIP3    H181103   1.088   3.038  11.089 -1.4991 -1.7190 -0.6378
19896TIP3    H281104   1.230   3.008  11.133 -0.6232  2.1860 -0.3648
19897TIP3   OH281105   6.666   1.830   2.551 -0.1027  0.0226  0.0783
19897TIP3    H181106   6.702   1.870   2.630  1.1538  2.8165 -1.7769
19897TIP3    H281107   6.735   1.772   2.520 -1.0874 -2.1263  1.5669
19898TIP3   OH281108   5.978   4.040  13.798  0.3544  0.4441  0.2533
19898TIP3    H181109   5.963   3.955  13.839 -0.3955  0.0431 -0.8210
19898TIP3    H281110   5.946   4.030  13.708  0.7975  1.6824 -0.0662
19899TIP3   OH281111   4.389   5.856   1.499 -0.2628  0.1922 -0.2407
19899TIP3    H181112   4.387   5.786   1.434 -3.7371  0.6395 -0.7762
19899TIP3    H281113   4.436   5.927   1.455  0.5254 -0.6881 -0.8778
19900TIP3   OH281114   3.530   2.363  15.518 -0.2084 -0.0866  0.1304
19900TIP3    H181115   3.438   2.352  15.493 -0.6167 -1.4567  2.0263
19900TIP3    H281116   3.568   2.276  15.509  1.0233  0.5249 -0.9280
19901TIP3   OH281117   4.794   0.048   3.357 -0.5411  0.4437 -0.2565
19901TIP3    H181118   4.858   0.037   3.288 -0.8814  1.4355 -0.7450
19901TIP3    H281119   4.829  -0.002   3.431  0.3325  0.2348 -0.8029
19902TIP3   OH281120   0.879   5.408  17.249  0.4597  0.4413 -0.0707
19902TIP3    H181121   0.784   5.415  17.236  0.2217 -1.6991  0.0746
19902TIP3    H281122   0.897   5.459  17.328 -0.8679 -0.4610  0.8531
19903TIP3   OH281123   6.162   2.184  16.343  0.7099  1.0893 -0.4526
19903TIP3    H181124   6.198   2.096  16.341  0.5143  0.9077  1.6917
19903TIP3    H281125   6.072   2.174  16.312  1.2696  0.9145 -2.1412
19904TIP3   OH281126   5.284   0.596   4.645 -0.8637 -0.0190  0.0637
19904TIP3    H181127   5.239   0.512   4.656 -0.3454 -0.6474 -2.1527
19904TIP3    H281128   5.304   0.625   4.735 -0.7199 -2.4282  0.8675
19905TIP3   OH281129   6.430   6.653   4.647 -0.0567  0.1727  0.1019
19905TIP3    H181130   6.384   6.650   4.563 -1.5190  1.0337  0.8387
19905TIP3    H281131   6.370   6.697   4.707  1.6292  1.1524  1.1889
19906TIP3   OH281132   5.581   2.234  11.494  0.1774  0.2285 -0.2077
19906TIP3    H181133   5.534   2.313  11.522  0.4073  0.4164 -0.3387
19906TIP3    H281134   5.540   2.208  11.412 -0.7880 -0.5776  0.5078
19907TIP3   OH281135   2.333   0.671  13.464 -0.0892 -0.2751 -0.4868
19907TIP3    H181136   2.414   0.638  13.504 -0.8402 -0.1720  1.1937
19907TIP3    H281137   2.349   0.665  13.369  1.7999 -0.4388 -0.1982
19908TIP3   OH281138   0.113   0.844   3.040  0.4095 -0.0094  0.1557
19908TIP3    H181139   0.147   0.840   2.951  0.3223  2.4246 -0.0421
19908TIP3    H281140   0.028   0.799   3.036 -0.5377  1.8153 -1.5097
19909TIP3   OH281141   6.259   3.675  10.675 -0.5819  0.4443 -0.2309
19909TIP3    H181142   6.279   3.582  10.668 -0.6737  0.0656  3.0135
19909TIP3    H281143   6.301   3.715  10.599  2.0869 -1.8428 -0.0927
19910TIP3   OH281144   2.180   5.856   2.466 -0.0187 -0.6062  0.7004
19910TIP3    H181145   2.102   5.907   2.488  0.2293  0.1514 -0.1429
19910TIP3    H281146   2.239   5.869   2.540  0.3490  0.9760  0.1620
19911TIP3   OH281147   2.419   5.732  16.123 -0.2830  0.0529  0.3311
19911TIP3    H181148   2.452   5.749  16.211 -1.2049  1.5265  0.4196
19911TIP3    H281149   2.497   5.738  16.067  0.4408 -1.6561  1.0926
19912TIP3   OH281150   4.748   1.374  15.002  0.3183 -0.1608 -0.9578
19912TIP3    H181151   4.764   1.282  14.984  0.6660 -0.2791 -0.0972
19912TIP3    H281152   4.692   1.403  14.930  2.3220 -0.3679 -2.7055
19913TIP3   OH281153   4.088   5.593   4.715  0.3249 -0.9259 -0.1499
19913TIP3    H181154   4.173   5.607   4.674  0.4619 -2.5332 -0.5060
19913TIP3    H281155   4.090   5.501   4.743 -0.3446 -0.3073  2.1254
19914TIP3   OH281156   1.797   6.058   3.851  0.4451 -0.2821  0.4121
19914TIP3    H181157   1.888   6.084   3.834  0.6549 -1.1546  0.1681
19914TIP3    H281158   1.799   6.019   3.938  0.2198  0.0944  0.5864
19915TIP3   OH281159   6.080   0.229  12.913 -0.0032 -0.4666  0.8240
19915TIP3    H181160   6.106   0.245  12.822  0.6658  1.6098  1.3206
19915TIP3    H281161   6.152   0.178  12.950  0.5978  0.2249  0.6344
19916TIP3   OH281162   1.415   3.677   5.383  0.2028  0.2594 -0.0799
19916TIP3    H181163   1.433   3.652   5.474 -1.8945 -1.3288 -0.0176
19916TIP3    H281164   1.355   3.751   5.389  2.1938  1.9852 -0.2594
19917TIP3   OH281165   2.195   2.307   6.146 -0.1694 -0.0003 -0.1481
19917TIP3    H181166   2.182   2.279   6.055  0.3452  0.1947 -0.2807
19917TIP3    H281167   2.106   2.321   6.179 -0.3469  0.3529 -0.7558
19918TIP3   OH281168   6.264   0.552  12.802 -0.0801 -0.1413  0.3278
19918TIP3    H181169   6.316   0.550  12.722  0.3499 -0.4538  0.6108
19918TIP3    H281170   6.298   0.480  12.855 -0.7150 -0.2657  0.5757
19919TIP3   OH281171   0.870   5.015  16.492 -0.0665 -0.6253  0.4741
19919TIP3    H181172   0.830   4.995  16.577 -0.3048 -2.0507  0.0461
19919TIP3    H281173   0.899   4.931  16.458  0.5180 -0.0032 -0.6287
19920TIP3   OH281174   1.698   5.416  11.818  0.7380 -0.3296 -0.1884
19920TIP3    H181175   1.654   5.332  11.825  0.2419 -0.0696 -0.1006
19920TIP3    H281176   1.759   5.405  11.745  1.4495 -1.0946  0.5098
19921TIP3   OH281177   0.101   0.860  13.241  0.4508 -0.4840  0.2417
19921TIP3    H181178   0.012   0.879  13.211  0.4179  0.1025  0.6817
19921TIP3    H281179   0.106   0.764  13.241 -0.3435 -0.5397  0.6630
19922TIP3   OH281180   3.749   4.818   2.544 -0.2971 -0.5760 -0.1829
19922TIP3    H181181   3.717   4.774   2.465  0.1560 -0.3733 -0.4817
19922TIP3    H281182   3.831   4.860   2.517  0.3644 -1.3015  0.6359
19923TIP3   OH281183   4.863   0.446   0.036  0.1737  0.0468 -0.3376
19923TIP3    H181184   4.834   0.533   0.062 -0.5605 -0.5167  0.8084
19923TIP3    H281185   4.893   0.405   0.118  0.2732 -0.8638 -0.8125
19924TIP3   OH281186   5.770   4.070  11.692  0.3618  0.2715  0.3219
19924TIP3    H181187   5.748   4.008  11.623 -1.4673 -2.2751  2.9842
19924TIP3    H281188   5.850   4.035  11.731  0.1634  0.4504  0.8880
19925TIP3   OH281189   5.847   2.283   1.089  0.3482  0.2229 -0.1910
19925TIP3    H181190   5.760   2.275   1.129  0.3681 -0.2968 -0.2396
19925TIP3    H281191   5.907   2.266   1.161  0.4045  0.3226 -0.2152
19926TIP3   OH281192   3.627   6.029  12.340 -0.0746  0.3767 -0.1773
19926TIP3    H181193   3.669   6.005  12.257 -0.7912 -2.1702  0.0896
19926TIP3    H281194   3.552   6.081  12.314  0.6421  1.0505 -0.9850
19927TIP3   OH281195   3.389   2.429   3.648 -0.4922  0.6023  0.3390
19927TIP3    H181196   3.342   2.406   3.728  1.6660 -3.1823  0.7535
19927TIP3    H281197   3.325   2.418   3.578 -1.5548  0.6489  1.2871
19928TIP3   OH281198   3.387   1.563  16.479  0.1956 -0.0398  0.8241
19928TIP3    H181199   3.407   1.649  16.516  1.3539 -0.3847  1.0471
19928TIP3    H281200   3.359   1.511  16.555 -1.9063  0.5015  0.4836
19929TIP3   OH281201   6.108   5.707   3.255  0.5447  0.2272 -0.0916
19929TIP3    H181202   6.124   5.666   3.171  1.4854 -2.2520  1.2087
19929TIP3    H281203   6.022   5.674   3.282  0.1513  1.1717 -0.1149
19930TIP3   OH281204   5.009   0.568  12.005 -0.0805  0.1741 -0.0174
19930TIP3    H181205   4.971   0.483  12.027  2.4958 -0.9861  0.3560
19930TIP3    H281206   5.033   0.606  12.089 -0.2290  0.7711 -0.2443
19931TIP3   OH281207   1.790   3.243  13.298  0.3470  0.0021 -0.3589
19931TIP3    H181208   1.719   3.185  13.326  1.5131 -1.4408 -0.3449
19931TIP3    H281209   1.843   3.191  13.238  1.8857  0.7686  0.2781
19932TIP3   OH281210   1.405   0.670  16.619  0.7514 -0.2011  0.0939
19932TIP3    H181211   1.460   0.699  16.692  0.0927 -1.3072  1.0765
19932TIP3    H281212   1.467   0.656  16.547  1.2269  2.3777 -0.0973
19933TIP3   OH281213   0.425   5.978  15.640  0.4515  0.0435 -0.0026
19933TIP3    H181214   0.377   5.967  15.558  0.9558 -1.0008 -0.1673
19933TIP3    H281215   0.447   5.889  15.667  1.1119  0.4324  0.7786
19934TIP3   OH281216   3.476   1.859  15.308  1.0257  0.1284  0.2567
19934TIP3    H181217   3.512   1.828  15.225  0.1793 -0.0988 -0.0348
19934TIP3    H281218   3.510   1.948  15.316  0.0917  0.6301 -0.9790
19935TIP3   OH281219   0.517   1.481   0.796 -0.0223  0.5361 -0.0983
19935TIP3    H181220   0.423   1.467   0.780  0.0359  0.2716 -0.2287
19935TIP3    H281221   0.537   1.563   0.750  0.0381  0.0239 -1.0140
19936TIP3   OH281222   2.787   3.896  15.732 -0.5586 -0.0934 -0.0996
19936TIP3    H181223   2.830   3.817  15.765  1.3519  1.3436  1.1025
19936TIP3    H281224   2.720   3.916  15.796  0.6730  0.6196  1.0299
19937TIP3   OH281225   2.566   3.737   6.278  0.4767  0.3116 -0.3035
19937TIP3    H181226   2.478   3.701   6.287  0.5231  0.5929  1.9178
19937TIP3    H281227   2.556   3.813   6.221 -0.4562 -0.4502 -1.1854
19938TIP3   OH281228   5.439   1.462  15.372  0.2561 -0.0195  0.1523
19938TIP3    H181229   5.465   1.545  15.411 -1.5064 -0.2515  2.0007
19938TIP3    H281230   5.516   1.406  15.383  0.4639  0.4999  1.6515
19939TIP3   OH281231   6.595   0.238   2.599 -0.0184  0.0645 -0.2448
19939TIP3    H181232   6.540   0.264   2.525 -1.1840 -2.2116 -0.2630
19939TIP3    H281233   6.560   0.154   2.626 -0.2975  1.2222  3.5717
19940TIP3   OH281234   3.892   6.216  10.833  0.4104  0.4312 -0.0213
19940TIP3    H181235   3.881   6.188  10.924  0.9265 -0.6700 -0.2824
19940TIP3    H281236   3.806   6.202  10.793  0.4824 -0.1531  0.0244
19941TIP3   OH281237   1.027   6.093  11.130  0.1365 -0.6512  0.5865
19941TIP3    H181238   1.061   6.176  11.096 -0.9549  0.1262  1.3295
19941TIP3    H281239   0.955   6.118  11.187  0.5198 -2.0577  1.7555
19942TIP3   OH281240   4.252   4.580   4.463 -0.0364  0.0836  0.4657
19942TIP3    H181241   4.189   4.636   4.509  1.2575  0.4263  1.8815
19942TIP3    H281242   4.307   4.641   4.414  0.7453 -0.0158  1.2119
19943TIP3   OH281243   5.830   4.053   6.245  0.2655 -0.1078 -0.0114
19943TIP3    H181244   5.828   4.006   6.328 -0.2242  0.5385  0.3506
19943TIP3    H281245   5.754   4.019   6.197  0.4461 -0.3510 -0.1278
19944TIP3   OH281246   2.311   3.421   4.346  0.4516 -0.1253 -0.0945
19944TIP3    H181247   2.250   3.465   4.287  1.8442  0.1452 -1.3699
19944TIP3    H281248   2.392   3.411   4.296  0.9836 -1.9121  0.9965
19945TIP3   OH281249   4.828   5.999   4.281  1.0159 -0.4330  0.2435
19945TIP3    H181250   4.841   5.924   4.340  0.9809 -1.0849 -0.5599
19945TIP3    H281251   4.889   6.065   4.313  1.1512 -0.8521  0.8792
19946TIP3   OH281252   6.489   5.993  12.142  0.5832 -0.1163 -0.2480
19946TIP3    H181253   6.451   6.053  12.079 -0.3939  0.7312  1.0943
19946TIP3    H281254   6.414   5.944  12.177  1.1212 -0.6755  0.1440
19947TIP3   OH281255   5.940   1.561  13.446 -0.3547 -0.5013 -0.7191
19947TIP3    H181256   5.972   1.473  13.466 -0.8320 -0.1468  2.0172
19947TIP3    H281257   5.854   1.547  13.407 -0.3408 -1.2771 -0.4804
19948TIP3   OH281258   2.062   3.477   1.820 -0.2860  0.1691  0.6805
19948TIP3    H181259   1.976   3.487   1.780 -0.3164  0.0033  0.7057
19948TIP3    H281260   2.044   3.454   1.911 -0.2132 -0.6799  0.4831
19949TIP3   OH281261   0.762   0.436   5.906  0.2337  0.2607 -0.4243
19949TIP3    H181262   0.781   0.519   5.949  1.1741  0.5361 -1.3238
19949TIP3    H281263   0.723   0.460   5.822  1.6909 -0.1361 -1.2532
19950TIP3   OH281264   4.785   0.117  16.701  0.3625  0.0317  0.5485
19950TIP3    H181265   4.707   0.099  16.752  0.4651 -1.7764  0.1169
19950TIP3    H281266   4.846   0.157  16.763 -0.3774  0.1185  1.2277
19951TIP3   OH281267   6.467   6.716   1.427  0.1850 -0.2738 -0.2699
19951TIP3    H181268   6.503   6.753   1.507 -0.9902  0.4046 -0.0357
19951TIP3    H281269   6.535   6.731   1.361  0.5532  0.4889  0.2757
19952TIP3   OH281270   5.380   1.783  11.993  0.1397  1.0022  0.3731
19952TIP3    H181271   5.426   1.849  11.940 -1.0822  1.4832 -0.1177
19952TIP3    H281272   5.317   1.743  11.933 -0.5809  0.8539  1.2014
19953TIP3   OH281273   5.525   1.273   0.427  0.6685 -0.1791 -0.4399
19953TIP3    H181274   5.615   1.253   0.451  0.4127 -0.6696  0.1485
19953TIP3    H281275   5.480   1.288   0.510 -0.7324 -4.0104 -0.2654
19954TIP3   OH281276   2.046   2.833  13.802 -0.3365  0.8260  0.6335
19954TIP3    H181277   2.120   2.827  13.863  0.2283 -0.3227 -0.1241
19954TIP3    H281278   2.086   2.822  13.715 -1.4283 -0.2602  0.2370
19955TIP3   OH281279   5.896   0.395  17.145  0.3984  0.1235  0.1622
19955TIP3    H181280   5.849   0.322  17.106  0.4977 -0.0904  0.4419
19955TIP3    H281281   5.930   0.361  17.227  2.3510 -0.2097 -0.7275
19956TIP3   OH281282   6.330   0.937   3.781  0.1248  0.1557  0.2874
19956TIP3    H181283   6.374   0.919   3.864 -1.2422  2.1340  1.5399
19956TIP3    H281284   6.246   0.890   3.788  0.3717 -0.4169 -0.4077
19957TIP3   OH281285   6.180   4.441  14.662  0.1571  0.1476  0.2177
19957TIP3    H181286   6.176   4.350  14.632  1.2721 -0.5760  2.0300
19957TIP3    H281287   6.095   4.478  14.640 -0.2118 -1.2462 -0.8450
19958TIP3   OH281288   5.751   4.919   4.538 -0.4980 -0.1166  0.5003
19958TIP3    H181289   5.825   4.959   4.492 -0.9966 -0.0906 -0.2997
19958TIP3    H281290   5.759   4.826   4.519  0.1504 -0.3107  1.6246
19959TIP3   OH281291   2.260   3.320  14.509 -0.4115  0.3838 -0.1038
19959TIP3    H181292   2.239   3.395  14.564  0.2682  0.4967  0.0138
19959TIP3    H281293   2.218   3.339  14.425  1.3636  1.8492 -0.7231
19960LIG      S81294   3.326   2.866   8.423  0.2673 -0.3254  0.1689
19960LIG     F181295   3.813   3.260   8.525  0.2292 -0.5545  0.0034
19960LIG     F281296   3.859   3.055   8.559  0.1426  0.0779  0.0718
19960LIG     F381297   3.821   3.129   8.361  0.6224 -0.0182 -0.2132
19960LIG     N181298   3.200   3.072   8.593 -0.3520  0.2380 -0.5723
19960LIG     N281299   3.372   3.282   8.732  0.6739 -0.0199 -0.0351
19960LIG     C181300   3.100   3.190   8.598 -0.1486  0.1501 -0.1839
19960LIG     C281301   3.345   3.086   8.575  0.0077 -0.3419 -0.7594
19960LIG     C381302   2.998   3.183   8.486  0.0065 -0.1256  0.3131
19960LIG     C481303   3.161   2.940   8.624 -0.1000 -0.8237  0.0516
19960LIG     C581304   3.416   2.991   8.501 -0.3243 -0.6684  0.6960
19960LIG     C681305   3.215   2.828   8.552  0.7818  0.3473 -0.1183
19960LIG     C781306   3.427   3.190   8.640  0.4902 -0.0332  0.2478
19960LIG     C881307   2.892   3.297   8.487  0.9886  0.1667 -0.8004
19960LIG     C981308   3.552   3.006   8.467 -0.7737 -0.4060  0.6262
19960LIG    C1081309   3.630   3.119   8.517 -0.4951 -0.0216 -0.8731
19960LIG    C1181310   3.062   2.915   8.713  0.8892  0.9234 -0.9097
19960LIG    C1281311   3.563   3.199   8.610  1.1339 -0.3283 -0.0774
19960LIG    C1381312   3.154   2.705   8.565  0.6196  0.7633 -1.1842
19960LIG    C1481313   2.803   3.309   8.617 -0.0222 -0.5176  0.5726
19960LIG    C1581314   3.014   2.781   8.742 -0.2453  0.2663 -0.1716
19960LIG    C1681315   3.061   2.677   8.667 -0.5297  0.4264 -0.2389
19960LIG    C1781316   3.781   3.136   8.490  0.8369 -0.6032  0.9421
19960LIG     H181317   3.146   3.291   8.604 -2.5288  1.3375 -0.7238
19960LIG     H281318   3.041   3.183   8.692 -0.1460  1.1343 -0.0977
19960LIG     H381319   2.944   3.087   8.496  0.0943 -0.1381  0.6779
19960LIG     H481320   3.041   3.171   8.384  0.1086 -1.5297  0.5139
19960LIG     H581321   2.818   3.274   8.408 -0.9228  2.9808  0.0318
19960LIG     H681322   2.949   3.389   8.461  0.0176  0.6066 -1.4315
19960LIG     H781323   3.601   2.942   8.395  0.5230  1.4796 -0.2542
19960LIG     H881324   3.018   2.995   8.771 -2.8275 -2.1602  0.9739
19960LIG     H981325   3.614   3.276   8.666 -1.2627  0.7117  0.7950
19960LIG    H1081326   3.191   2.622   8.508  2.6331  0.9566 -0.2599
19960LIG    H1181327   2.751   3.214   8.639  1.7455 -2.1733 -1.8521
19960LIG    H1281328   2.730   3.390   8.595  2.1323  1.4524  0.3188
19960LIG    H1381329   2.854   3.332   8.713 -0.8390 -0.0217  0.8948
19960LIG    H1481330   2.940   2.769   8.819 -1.5448 -0.5340 -1.4872
19960LIG    H1581331   3.019   2.578   8.673 -1.0226  0.5104 -1.7688
19960LIG    H1681332   3.448   3.332   8.774 -0.0845  2.1771 -1.0982
19960LIG    H1781333   3.303   3.240   8.791  1.0671 -1.2818 -0.4514
   6.77387   6.77387  17.29406
