* GENERATE LIGAND
*  DATE:     4/11/25      6:13:26      CREATED BY USER: charmm-gui
*
        49  EXT
         1         1  LIG       S               3.2493559339       -1.8577216196       -0.8163905853  LIG       1               0.0000000000
         2         1  LIG       N1             -1.3901325168        0.0238290297        0.9048881809  LIG       1               0.0000000000
         3         1  LIG       N2              1.3358454303        0.4613985796       -0.3299116308  LIG       1               0.0000000000
         4         1  LIG       N3             -5.5640161240        0.8804737045       -0.2271459828  LIG       1               0.0000000000
         5         1  LIG       C1             -0.7697767936        1.1824858918        1.5487545183  LIG       1               0.0000000000
         6         1  LIG       C2             -0.3196798110        2.1595974755        0.4570363861  LIG       1               0.0000000000
         7         1  LIG       C3              0.3842553293        1.5113536114       -0.7537123991  LIG       1               0.0000000000
         8         1  LIG       C4              0.8160733540       -0.8540247723        0.0412464047  LIG       1               0.0000000000
         9         1  LIG       C5             -0.5349675471       -1.0572516202        0.4806941315  LIG       1               0.0000000000
        10         1  LIG       C6             -2.8715375895       -0.0451275242        0.9198307249  LIG       1               0.0000000000
        11         1  LIG       C7             -3.3820575023       -0.2785457078       -0.5134664202  LIG       1               0.0000000000
        12         1  LIG       C8              2.7448788702        0.7552404684       -0.1342359842  LIG       1               0.0000000000
        13         1  LIG       C9              1.6073138395       -2.0090259927       -0.2202971738  LIG       1               0.0000000000
        14         1  LIG       C10            -1.0492335615       -2.3631058485        0.5558771358  LIG       1               0.0000000000
        15         1  LIG       C11            -4.9169540757       -0.3773643407       -0.6278658385  LIG       1               0.0000000000
        16         1  LIG       C12             3.7334529314       -0.2418700082       -0.3437975529  LIG       1               0.0000000000
        17         1  LIG       C13             1.0743962096       -3.2949291553       -0.1110600516  LIG       1               0.0000000000
        18         1  LIG       C14            -0.2564542732       -3.4724262672        0.2564980491  LIG       1               0.0000000000
        19         1  LIG       C15             3.1833508283        2.0695795522        0.1365989051  LIG       1               0.0000000000
        20         1  LIG       C16             5.0986951472        0.0639077841       -0.2690507154  LIG       1               0.0000000000
        21         1  LIG       C17             4.5511526492        2.3813423521        0.1758433229  LIG       1               0.0000000000
        22         1  LIG       C18             5.5051070350        1.3792707277       -0.0188468469  LIG       1               0.0000000000
        23         1  LIG       C19            -7.0141560111        0.7719250839       -0.2707902314  LIG       1               0.0000000000
        24         1  LIG       C20            -5.0616152287        2.0527092744       -0.9272985404  LIG       1               0.0000000000
        25         1  LIG       H1              0.1026432950        0.8589325122        2.1602571350  LIG       1               0.0000000000
        26         1  LIG       H2             -1.4835840420        1.6853279295        2.2393501396  LIG       1               0.0000000000
        27         1  LIG       H3              0.3569939973        2.9019721312        0.9326502966  LIG       1               0.0000000000
        28         1  LIG       H4             -1.2062602783        2.7131903076        0.0766013831  LIG       1               0.0000000000
        29         1  LIG       H5             -0.3822169391        1.0424883568       -1.4107959023  LIG       1               0.0000000000
        30         1  LIG       H6              0.8900769760        2.2931324118       -1.3628651356  LIG       1               0.0000000000
        31         1  LIG       H7             -3.3019149060        0.9071318198        1.3028608022  LIG       1               0.0000000000
        32         1  LIG       H8             -3.2172737152       -0.8537453242        1.5993095781  LIG       1               0.0000000000
        33         1  LIG       H9             -2.9760842926       -1.2403356853       -0.8941902504  LIG       1               0.0000000000
        34         1  LIG       H10            -2.9777522503        0.5087636702       -1.1811918770  LIG       1               0.0000000000
        35         1  LIG       H11            -2.0676244512       -2.5421044071        0.8603530648  LIG       1               0.0000000000
        36         1  LIG       H12            -5.2067650020       -0.6237035432       -1.6722478170  LIG       1               0.0000000000
        37         1  LIG       H13            -5.2774200309       -1.1959583736        0.0355895422  LIG       1               0.0000000000
        38         1  LIG       H14             1.6831432400       -4.1592016579       -0.3421759395  LIG       1               0.0000000000
        39         1  LIG       H15            -0.6799330298       -4.4654327807        0.3106744073  LIG       1               0.0000000000
        40         1  LIG       H16             2.4756349917        2.8673649268        0.2795583536  LIG       1               0.0000000000
        41         1  LIG       H17             5.8384713685       -0.7044969510       -0.4393339783  LIG       1               0.0000000000
        42         1  LIG       H18             4.8699088002        3.4004607669        0.3483018968  LIG       1               0.0000000000
        43         1  LIG       H19             6.5589812244        1.6221511301        0.0049914857  LIG       1               0.0000000000
        44         1  LIG       H20            -7.3739999035       -0.1581274185        0.2221966805  LIG       1               0.0000000000
        45         1  LIG       H21            -7.3766532350        0.7633368820       -1.3248495347  LIG       1               0.0000000000
        46         1  LIG       H22            -7.4945003489        1.6345706691        0.2444365415  LIG       1               0.0000000000
        47         1  LIG       H23            -4.9000250476        1.8362968589       -2.0073253498  LIG       1               0.0000000000
        48         1  LIG       H24            -4.0940938652        2.3926071277       -0.4927442071  LIG       1               0.0000000000
        49         1  LIG       H25            -5.7735642920        2.9045568550       -0.8513186826  LIG       1               0.0000000000
