PSF EXT CMAP XPLOR

         2 !NTITLE
* GENERATE LIGAND                                                               
*  DATE:     4/11/25      6:13:26      CREATED BY USER: charmm-gui              

        49 !NATOM
         1 LIG      1        LIG      S        SG311   -0.246000       32.0600           0
         2 LIG      1        LIG      N1       NG301   -0.592000       14.0070           0
         3 LIG      1        LIG      N2       NG301   -0.394000       14.0070           0
         4 LIG      1        LIG      N3       NG301   -0.586000       14.0070           0
         5 LIG      1        LIG      C1       CG321    0.550000E-01   12.0110           0
         6 LIG      1        LIG      C2       CG321   -0.177000       12.0110           0
         7 LIG      1        LIG      C3       CG321    0.420000E-01   12.0110           0
         8 LIG      1        LIG      C4       CG2R61   0.212000       12.0110           0
         9 LIG      1        LIG      C5       CG2R61   0.240000E-01   12.0110           0
        10 LIG      1        LIG      C6       CG321    0.550000E-01   12.0110           0
        11 LIG      1        LIG      C7       CG321   -0.179000       12.0110           0
        12 LIG      1        LIG      C8       CG2R61   0.229000       12.0110           0
        13 LIG      1        LIG      C9       CG2R61   0.620000E-01   12.0110           0
        14 LIG      1        LIG      C10      CG2R61  -0.110000       12.0110           0
        15 LIG      1        LIG      C11      CG321    0.640000E-01   12.0110           0
        16 LIG      1        LIG      C12      CG2R61   0.460000E-01   12.0110           0
        17 LIG      1        LIG      C13      CG2R61  -0.108000       12.0110           0
        18 LIG      1        LIG      C14      CG2R61  -0.100000       12.0110           0
        19 LIG      1        LIG      C15      CG2R61  -0.201000       12.0110           0
        20 LIG      1        LIG      C16      CG2R61  -0.108000       12.0110           0
        21 LIG      1        LIG      C17      CG2R61  -0.990000E-01   12.0110           0
        22 LIG      1        LIG      C18      CG2R61  -0.116000       12.0110           0
        23 LIG      1        LIG      C19      CG331   -0.990000E-01   12.0110           0
        24 LIG      1        LIG      C20      CG331   -0.990000E-01   12.0110           0
        25 LIG      1        LIG      H1       HGA2     0.900000E-01   1.00800           0
        26 LIG      1        LIG      H2       HGA2     0.900000E-01   1.00800           0
        27 LIG      1        LIG      H3       HGA2     0.900000E-01   1.00800           0
        28 LIG      1        LIG      H4       HGA2     0.900000E-01   1.00800           0
        29 LIG      1        LIG      H5       HGA2     0.900000E-01   1.00800           0
        30 LIG      1        LIG      H6       HGA2     0.900000E-01   1.00800           0
        31 LIG      1        LIG      H7       HGA2     0.900000E-01   1.00800           0
        32 LIG      1        LIG      H8       HGA2     0.900000E-01   1.00800           0
        33 LIG      1        LIG      H9       HGA2     0.900000E-01   1.00800           0
        34 LIG      1        LIG      H10      HGA2     0.900000E-01   1.00800           0
        35 LIG      1        LIG      H11      HGR61    0.115000       1.00800           0
        36 LIG      1        LIG      H12      HGA2     0.900000E-01   1.00800           0
        37 LIG      1        LIG      H13      HGA2     0.900000E-01   1.00800           0
        38 LIG      1        LIG      H14      HGR61    0.115000       1.00800           0
        39 LIG      1        LIG      H15      HGR61    0.115000       1.00800           0
        40 LIG      1        LIG      H16      HGR61    0.115000       1.00800           0
        41 LIG      1        LIG      H17      HGR61    0.115000       1.00800           0
        42 LIG      1        LIG      H18      HGR61    0.115000       1.00800           0
        43 LIG      1        LIG      H19      HGR61    0.115000       1.00800           0
        44 LIG      1        LIG      H20      HGA3     0.900000E-01   1.00800           0
        45 LIG      1        LIG      H21      HGA3     0.900000E-01   1.00800           0
        46 LIG      1        LIG      H22      HGA3     0.900000E-01   1.00800           0
        47 LIG      1        LIG      H23      HGA3     0.900000E-01   1.00800           0
        48 LIG      1        LIG      H24      HGA3     0.900000E-01   1.00800           0
        49 LIG      1        LIG      H25      HGA3     0.900000E-01   1.00800           0

        52 !NBOND: bonds
         1        13         1        16         2         5         2         9
         2        10         3         7         3         8         3        12
         4        15         4        23         4        24         5         6
         5        25         5        26         6         7         6        27
         6        28         7        29         7        30         8         9
         8        13         9        14        10        11        10        31
        10        32        11        15        11        33        11        34
        12        16        12        19        13        17        14        18
        14        35        15        36        15        37        16        20
        17        18        17        38        18        39        19        21
        19        40        20        22        20        41        21        22
        21        42        22        43        23        44        23        45
        23        46        24        47        24        48        24        49

        94 !NTHETA: angles
        13         1        16         5         2         9         5         2        10
         9         2        10         7         3         8         7         3        12
         8         3        12        15         4        23        15         4        24
        23         4        24         2         5         6         2         5        25
         2         5        26         6         5        25         6         5        26
        25         5        26         5         6         7         5         6        27
         5         6        28         7         6        27         7         6        28
        27         6        28         3         7         6         3         7        29
         3         7        30         6         7        29         6         7        30
        29         7        30         3         8         9         3         8        13
         9         8        13         2         9         8         2         9        14
         8         9        14         2        10        11         2        10        31
         2        10        32        11        10        31        11        10        32
        31        10        32        10        11        15        10        11        33
        10        11        34        15        11        33        15        11        34
        33        11        34         3        12        16         3        12        19
        16        12        19         1        13         8         1        13        17
         8        13        17         9        14        18         9        14        35
        18        14        35         4        15        11         4        15        36
         4        15        37        11        15        36        11        15        37
        36        15        37         1        16        12         1        16        20
        12        16        20        13        17        18        13        17        38
        18        17        38        14        18        17        14        18        39
        17        18        39        12        19        21        12        19        40
        21        19        40        16        20        22        16        20        41
        22        20        41        19        21        22        19        21        42
        22        21        42        20        22        21        20        22        43
        21        22        43         4        23        44         4        23        45
         4        23        46        44        23        45        44        23        46
        45        23        46         4        24        47         4        24        48
         4        24        49        47        24        48        47        24        49
        48        24        49

       136 !NPHI: dihedrals
         1        13         8         3         1        13         8         9
         1        13        17        18         1        13        17        38
         1        16        12         3         1        16        12        19
         1        16        20        22         1        16        20        41
         2         5         6         7         2         5         6        27
         2         5         6        28         2         9         8         3
         2         9         8        13         2         9        14        18
         2         9        14        35         2        10        11        15
         2        10        11        33         2        10        11        34
         3         7         6         5         3         7         6        27
         3         7         6        28         3         8         9        14
         3         8        13        17         3        12        16        20
         3        12        19        21         3        12        19        40
         4        15        11        10         4        15        11        33
         4        15        11        34         5         2         9         8
         5         2         9        14         5         2        10        11
         5         2        10        31         5         2        10        32
         5         6         7        29         5         6         7        30
         6         5         2         9         6         5         2        10
         6         7         3         8         6         7         3        12
         7         3         8         9         7         3         8        13
         7         3        12        16         7         3        12        19
         7         6         5        25         7         6         5        26
         8         3         7        29         8         3         7        30
         8         3        12        16         8         3        12        19
         8         9         2        10         8         9        14        18
         8         9        14        35         8        13         1        16
         8        13        17        18         8        13        17        38
         9         2         5        25         9         2         5        26
         9         2        10        11         9         2        10        31
         9         2        10        32         9         8         3        12
         9         8        13        17         9        14        18        17
         9        14        18        39        10         2         5        25
        10         2         5        26        10         2         9        14
        10        11        15        36        10        11        15        37
        11        15         4        23        11        15         4        24
        12         3         7        29        12         3         7        30
        12         3         8        13        12        16         1        13
        12        16        20        22        12        16        20        41
        12        19        21        22        12        19        21        42
        13         1        16        20        13         8         9        14
        13        17        18        14        13        17        18        39
        14        18        17        38        15         4        23        44
        15         4        23        45        15         4        23        46
        15         4        24        47        15         4        24        48
        15         4        24        49        15        11        10        31
        15        11        10        32        16         1        13        17
        16        12        19        21        16        12        19        40
        16        20        22        21        16        20        22        43
        17        18        14        35        19        12        16        20
        19        21        22        20        19        21        22        43
        20        22        21        42        21        22        20        41
        22        21        19        40        23         4        15        36
        23         4        15        37        23         4        24        47
        23         4        24        48        23         4        24        49
        24         4        15        36        24         4        15        37
        24         4        23        44        24         4        23        45
        24         4        23        46        25         5         6        27
        25         5         6        28        26         5         6        27
        26         5         6        28        27         6         7        29
        27         6         7        30        28         6         7        29
        28         6         7        30        31        10        11        33
        31        10        11        34        32        10        11        33
        32        10        11        34        33        11        15        36
        33        11        15        37        34        11        15        36
        34        11        15        37        35        14        18        39
        38        17        18        39        40        19        21        42
        41        20        22        43        42        21        22        43

         0 !NIMPHI: impropers


         0 !NDON: donors


         0 !NACC: acceptors


         0 !NNB

         0         0         0         0         0         0         0         0
         0         0         0         0         0         0         0         0
         0         0         0         0         0         0         0         0
         0         0         0         0         0         0         0         0
         0         0         0         0         0         0         0         0
         0         0         0         0         0         0         0         0
         0

         1         0 !NGRP NST2
         0         1         0

         0         0 !NUMLP NUMLPH

         0 !NCRTERM: cross-terms

