* GENERATED BY CHARMM-GUI (HTTP://WWW.CHARMM-GUI.ORG)
*
        24  EXT
         1         1  LIG       S               3.2844000000       -1.9103000000       -0.7138000000  LIG       1               0.0000000000
         2         1  LIG       N1             -1.3945000000        0.0428000000        0.8737000000  LIG       1               0.0000000000
         3         1  LIG       N2              1.3548000000        0.4585000000       -0.1868000000  LIG       1               0.0000000000
         4         1  LIG       N3             -5.5606000000        0.8645000000       -0.1473000000  LIG       1               0.0000000000
         5         1  LIG       C1             -0.7885000000        1.1989000000        1.5216000000  LIG       1               0.0000000000
         6         1  LIG       C2             -0.3015000000        2.1881000000        0.4755000000  LIG       1               0.0000000000
         7         1  LIG       C3              0.4334000000        1.5025000000       -0.6717000000  LIG       1               0.0000000000
         8         1  LIG       C4              0.7796000000       -0.8341000000        0.0208000000  LIG       1               0.0000000000
         9         1  LIG       C5             -0.5772000000       -1.0158000000        0.4588000000  LIG       1               0.0000000000
        10         1  LIG       C6             -2.8455000000       -0.0735000000        0.9039000000  LIG       1               0.0000000000
        11         1  LIG       C7             -3.3995000000       -0.2952000000       -0.5030000000  LIG       1               0.0000000000
        12         1  LIG       C8              2.7356000000        0.7715000000       -0.1633000000  LIG       1               0.0000000000
        13         1  LIG       C9              1.5719000000       -1.9846000000       -0.2221000000  LIG       1               0.0000000000
        14         1  LIG       C10            -1.0850000000       -2.3352000000        0.5156000000  LIG       1               0.0000000000
        15         1  LIG       C11            -4.9273000000       -0.3747000000       -0.5815000000  LIG       1               0.0000000000
        16         1  LIG       C12             3.7105000000       -0.2260000000       -0.3393000000  LIG       1               0.0000000000
        17         1  LIG       C13             1.0260000000       -3.2719000000       -0.1257000000  LIG       1               0.0000000000
        18         1  LIG       C14            -0.3009000000       -3.4452000000        0.2248000000  LIG       1               0.0000000000
        19         1  LIG       C15             3.1971000000        2.0840000000        0.0742000000  LIG       1               0.0000000000
        20         1  LIG       C16             5.0803000000        0.0882000000       -0.2884000000  LIG       1               0.0000000000
        21         1  LIG       C17             4.5591000000        2.3920000000        0.1276000000  LIG       1               0.0000000000
        22         1  LIG       C18             5.5024000000        1.3924000000       -0.0535000000  LIG       1               0.0000000000
        23         1  LIG       C19            -7.0148000000        0.7795000000       -0.2941000000  LIG       1               0.0000000000
        24         1  LIG       C20            -5.0398000000        2.0034000000       -0.9059000000  LIG       1               0.0000000000
